
    -----------------------------------------------------------------------
          Psi4: An Open-Source Ab Initio Electronic Structure Package
                               Psi4 1.4a2.dev629 

                         Git: Rev {master} 2938fc2 dirty


    D. G. A. Smith, L. A. Burns, A. C. Simmonett, R. M. Parrish,
    M. C. Schieber, R. Galvelis, P. Kraus, H. Kruse, R. Di Remigio,
    A. Alenaizan, A. M. James, S. Lehtola, J. P. Misiewicz, M. Scheurer,
    R. A. Shaw, J. B. Schriber, Y. Xie, Z. L. Glick, D. A. Sirianni,
    J. S. O'Brien, J. M. Waldrop, A. Kumar, E. G. Hohenstein,
    B. P. Pritchard, B. R. Brooks, H. F. Schaefer III, A. Yu. Sokolov,
    K. Patkowski, A. E. DePrince III, U. Bozkaya, R. A. King,
    F. A. Evangelista, J. M. Turney, T. D. Crawford, C. D. Sherrill,
    J. Chem. Phys. 152(18) 184108 (2020). https://doi.org/10.1063/5.0006002

                            Additional Code Authors
    E. T. Seidl, C. L. Janssen, E. F. Valeev, M. L. Leininger,
    J. F. Gonthier, R. M. Richard, H. R. McAlexander, M. Saitow, X. Wang,
    P. Verma, and M. H. Lechner

             Previous Authors, Complete List of Code Contributors,
                       and Citations for Specific Modules
    https://github.com/psi4/psi4/blob/master/codemeta.json
    https://github.com/psi4/psi4/graphs/contributors
    http://psicode.org/psi4manual/master/introduction.html#citing-psifour

    -----------------------------------------------------------------------


    Psi4 started on: Wednesday, 03 November 2021 05:49PM

    Process ID: 5965
    Host:       n044
    PSIDATADIR: /opt/psi/4/master/share/psi4
    Memory:     500.0 MiB
    Threads:    1
    
  ==> Input File <==

--------------------------------------------------------------------------
import os
memory 14 GB 
 
molecule {
 C    2.7129735657    0.4658063445    0.0002715876
 C   -0.0835637233   -0.1668052375    0.0070765805
 O   -0.8801979903   -2.3309986615   -0.0075810510
 N   -1.6611291401    1.8940807541    0.0554473264
 H    3.7455900271   -1.1159029712    0.7853866082
 H    3.3350660720    0.7535079986   -1.9506635903
 H    3.1228430880    2.1809300366    1.0803957285
 H   -0.9842928407    3.6212428018   -0.3497861981
 H   -3.4987474184    1.5630489945   -0.2933860020
units bohr
}

basis {

assign 6-31g_2dfp_

[ 6-31g_2dfp_ ]

spherical

!----------------------------------------------------------------------
! Basis Set Exchange
! Version v0.8.13
! https://www.basissetexchange.org
!----------------------------------------------------------------------
!   Basis set: 6-31G(2df,p)
! Description: 6-31G(2df,p)
!        Role: orbital
!     Version: 0  (Data from the original Basis Set Exchange)
!----------------------------------------------------------------------


****
H     0
S    3   1.00
     18.7311370              0.03349460
      2.8253937              0.23472695
      0.6401217              0.81375733
S    1   1.00
      0.1612778              1.00000000
P    1   1.00
      1.5000000              1.0000000
P    1   1.00
      0.3750000              1.0000000
****
B     0
S    6   1.00
   2068.8823000              0.0018663
    310.6495700              0.0142515
     70.6830330              0.0695516
     19.8610800              0.2325729
      6.2993048              0.4670787
      2.1270270              0.3634314
SP   3   1.00
      4.7279710             -0.1303938              0.0745976
      1.1903377             -0.1307889              0.3078467
      0.3594117              1.1309444              0.7434568
SP   1   1.00
      0.1267512              1.0000000              1.0000000
D    1   1.00
      0.8020000              1.0000000
D    1   1.00
      0.2005000              1.0000000
F    1   1.00
      0.5000000              1.0000000
****
C     0
S    6   1.00
   3047.5249000              0.0018347
    457.3695100              0.0140373
    103.9486900              0.0688426
     29.2101550              0.2321844
      9.2866630              0.4679413
      3.1639270              0.3623120
SP   3   1.00
      7.8682724             -0.1193324              0.0689991
      1.8812885             -0.1608542              0.3164240
      0.5442493              1.1434564              0.7443083
SP   1   1.00
      0.1687144              1.0000000              1.0000000
D    1   1.00
      1.2520000              1.0000000
D    1   1.00
      0.3130000              1.0000000
F    1   1.00
      0.8000000              1.0000000
****
N     0
S    6   1.00
   4173.5110000              0.0018348
    627.4579000              0.0139950
    142.9021000              0.0685870
     40.2343300              0.2322410
     12.8202100              0.4690700
      4.3904370              0.3604550
SP   3   1.00
     11.6263580             -0.1149610              0.0675800
      2.7162800             -0.1691180              0.3239070
      0.7722180              1.1458520              0.7408950
SP   1   1.00
      0.2120313              1.0000000              1.0000000
D    1   1.00
      1.8260000              1.0000000
D    1   1.00
      0.4565000              1.0000000
F    1   1.00
      1.0000000              1.0000000
****
O     0
S    6   1.00
   5484.6717000              0.0018311
    825.2349500              0.0139501
    188.0469600              0.0684451
     52.9645000              0.2327143
     16.8975700              0.4701930
      5.7996353              0.3585209
SP   3   1.00
     15.5396160             -0.1107775              0.0708743
      3.5999336             -0.1480263              0.3397528
      1.0137618              1.1307670              0.7271586
SP   1   1.00
      0.2700058              1.0000000              1.0000000
D    1   1.00
      2.5840000              1.0000000
D    1   1.00
      0.6460000              1.0000000
F    1   1.00
      1.4000000              1.0000000
****
F     0
S    6   1.00
   7001.7130900              0.0018196169
   1051.3660900              0.0139160796
    239.2856900              0.0684053245
     67.3974453              0.233185760
     21.5199573              0.471267439
      7.40310130             0.356618546
SP   3   1.00
     20.8479528             -0.108506975            0.0716287243
      4.80830834            -0.146451658            0.3459121030
      1.34406986             1.128688580            0.7224699570
SP   1   1.00
      0.358151393            1.0000000              1.0000000
D    1   1.00
      3.5000000              1.0000000
D    1   1.00
      0.8750000              1.0000000
F    1   1.00
      1.8500000              1.0000000
****
Al     0
S    6   1.00
  13983.1000000              0.00194267
   2098.7500000              0.0148599
    477.7050000              0.0728494
    134.3600000              0.2468300
     42.8709000              0.4872580
     14.5189000              0.3234960
SP   6   1.00
    239.6680000             -0.00292619             0.00460285
     57.4419000             -0.0374080              0.0331990
     18.2859000             -0.1144870              0.1362820
      6.5991400              0.1156350              0.3304760
      2.4904900              0.6125950              0.4491460
      0.9445400              0.3937990              0.2657040
SP   3   1.00
      1.2779000             -0.2276060             -0.0175130
      0.3975900              0.00144583             0.2445330
      0.1600950              1.0927900              0.8049340
SP   1   1.00
      0.0556577              1.0000000              1.0000000
D    1   1.00
      0.6500000              1.0000000
D    1   1.00
      0.1625000              1.0000000
F    1   1.00
      0.2500000              1.0000000
****
Si     0
S    6   1.00
  16115.9000000              0.00195948
   2425.5800000              0.01492880
    553.8670000              0.07284780
    156.3400000              0.24613000
     50.0683000              0.48591400
     17.0178000              0.32500200
SP   6   1.00
    292.7180000             -0.00278094             0.00443826
     69.8731000             -0.03571460             0.03266790
     22.3363000             -0.11498500             0.13472100
      8.1503900              0.09356340             0.32867800
      3.1345800              0.60301700             0.44964000
      1.2254300              0.41895900             0.26137200
SP   3   1.00
      1.7273800             -0.24463000            -0.01779510
      0.5729220              0.00431572             0.25353900
      0.2221920              1.09818000             0.80066900
SP   1   1.00
      0.0778369              1.00000000             1.00000000
D    1   1.00
      0.9000000              1.0000000
D    1   1.00
      0.2250000              1.0000000
F    1   1.00
      0.3200000              1.0000000
****
P     0
S    6   1.00
  19413.3000000              0.0018516
   2909.4200000              0.0142062
    661.3640000              0.0699995
    185.7590000              0.2400790
     59.1943000              0.4847620
     20.0310000              0.3352000
SP   6   1.00
    339.4780000             -0.00278217             0.00456462
     81.0101000             -0.0360499              0.03369360
     25.8780000             -0.1166310              0.13975500
      9.4522100              0.0968328              0.33936200
      3.6656600              0.6144180              0.45092100
      1.4674600              0.4037980              0.23858600
SP   3   1.00
      2.1562300             -0.2529230             -0.01776530
      0.7489970              0.0328517              0.27405800
      0.2831450              1.0812500              0.78542100
SP   1   1.00
      0.0998317              1.0000000              1.00000000
D    1   1.00
      1.1000000              1.0000000
D    1   1.00
      0.2750000              1.0000000
F    1   1.00
      0.4500000              1.0000000
****
S     0
S    6   1.00
  21917.1000000              0.0018690
   3301.4900000              0.0142300
    754.1460000              0.0696960
    212.7110000              0.2384870
     67.9896000              0.4833070
     23.0515000              0.3380740
SP   6   1.00
    423.7350000             -0.0023767              0.0040610
    100.7100000             -0.0316930              0.0306810
     32.1599000             -0.1133170              0.1304520
     11.8079000              0.0560900              0.3272050
      4.6311000              0.5922550              0.4528510
      1.8702500              0.4550060              0.2560420
SP   3   1.00
      2.6158400             -0.2503740             -0.0145110
      0.9221670              0.0669570              0.3102630
      0.3412870              1.0545100              0.7544830
SP   1   1.00
      0.1171670              1.0000000              1.0000000
D    1   1.00
      1.3000000              1.0000000
D    1   1.00
      0.3250000              1.0000000
F    1   1.00
      0.5500000              1.0000000
****
Cl     0
S    6   1.00
  25180.1000000              0.0018330
   3780.3500000              0.0140340
    860.4740000              0.0690970
    242.1450000              0.2374520
     77.3349000              0.4830340
     26.2470000              0.3398560
SP   6   1.00
    491.7650000             -0.0022974              0.0039894
    116.9840000             -0.0307140              0.0303180
     37.4153000             -0.1125280              0.1298800
     13.7834000              0.0450160              0.3279510
      5.4521500              0.5893530              0.4535270
      2.2258800              0.4652060              0.2521540
SP   3   1.00
      3.1864900             -0.2518300             -0.0142990
      1.1442700              0.0615890              0.3235720
      0.4203770              1.0601800              0.7435070
SP   1   1.00
      0.1426570              1.0000000              1.0000000
D    1   1.00
      1.5000000              1.0000000
D    1   1.00
      0.3750000              1.0000000
F    1   1.00
      0.7000000              1.0000000
****
}


set {
reference rhf                          
freeze_core true
e_convergence 10                       
d_convergence 10                      
dft_spherical_points 1202
dft_radial_points 99
}

e = energy('b3lyp')

print_out('Grab this energy {0}'.format(e))
--------------------------------------------------------------------------

  Memory set to  13.039 GiB by Python driver.

Scratch directory: /tmp/

*** tstart() called on n044
*** at Wed Nov  3 17:49:18 2021

   => Loading Basis Set <=

    Name: ANONYMOUS700578CF
    Role: ORBITAL
    Keyword: BASIS
    atoms 1-2 entry C          line    48 inputblock 6-31g_2dfp_ 
    atoms 3   entry O          line    90 inputblock 6-31g_2dfp_ 
    atoms 4   entry N          line    69 inputblock 6-31g_2dfp_ 
    atoms 5-9 entry H          line    15 inputblock 6-31g_2dfp_ 


         ---------------------------------------------------------
                                   SCF
               by Justin Turney, Rob Parrish, Andy Simmonett
                          and Daniel G. A. Smith
                              RKS Reference
                        1 Threads,  13351 MiB Core
         ---------------------------------------------------------

  ==> Geometry <==

    Molecular point group: c1
    Full point group: C1

    Geometry (in Bohr), charge = 0, multiplicity = 1:

       Center              X                  Y                   Z               Mass       
    ------------   -----------------  -----------------  -----------------  -----------------
         C            2.713337170376     0.467763318705     0.000108939520    12.000000000000
         C           -0.083200118624    -0.164848263295     0.006913932420    12.000000000000
         O           -0.879834385624    -2.329041687295    -0.007743699080    15.994914619570
         N           -1.660765535424     1.896037728305     0.055284678320    14.003074004430
         H            3.745953631776    -1.113945996995     0.785223960120     1.007825032230
         H            3.335429676676     0.755464972805    -1.950826238380     1.007825032230
         H            3.123206692676     2.182887010805     1.080233080420     1.007825032230
         H           -0.983929236024     3.623199776005    -0.349948846180     1.007825032230
         H           -3.498383813724     1.565005968705    -0.293548650080     1.007825032230

  Running in c1 symmetry.

  Rotational constants: A =      0.35776  B =      0.31060  C =      0.17185 [cm^-1]
  Rotational constants: A =  10725.35049  B =   9311.55288  C =   5151.82434 [MHz]
  Nuclear repulsion =  121.495274450221530

  Charge       = 0
  Multiplicity = 1
  Electrons    = 32
  Nalpha       = 16
  Nbeta        = 16

  ==> Algorithm <==

  SCF Algorithm Type is DF.
  DIIS enabled.
  MOM disabled.
  Fractional occupation disabled.
  Guess Type is SAD.
  Energy threshold   = 1.00e-10
  Density threshold  = 1.00e-10
  Integral threshold = 0.00e+00

  ==> Primary Basis <==

  Basis Set: ANONYMOUS700578CF
    Blend: 6-31G_2DFP_
    Number of shells: 52
    Number of basis function: 144
    Number of Cartesian functions: 164
    Spherical Harmonics?: true
    Max angular momentum: 3

  ==> DFT Potential <==

   => Composite Functional: B3LYP <= 

    B3LYP Hyb-GGA Exchange-Correlation Functional

    P. J. Stephens, F. J. Devlin, C. F. Chabalowski, and M. J. Frisch, J. Phys. Chem. 98, 11623 (1994)

    Deriv               =              1
    GGA                 =           TRUE
    Meta                =          FALSE

    Exchange Hybrid     =           TRUE
    MP2 Hybrid          =          FALSE

   => Exchange Functionals <=

    0.0800   Slater exchange
    0.7200         Becke 88

   => Exact (HF) Exchange <=

    0.2000               HF 

   => Correlation Functionals <=

    0.1900   Vosko, Wilk & Nusair (VWN5_RPA)
    0.8100   Lee, Yang & Parr

   => Molecular Quadrature <=

    Radial Scheme          =       TREUTLER
    Pruning Scheme         =           NONE
    Nuclear Scheme         =       TREUTLER

    BS radius alpha        =              1
    Pruning alpha          =              1
    Radial Points          =             99
    Spherical Points       =           1202
    Total Points           =        1004786
    Total Blocks           =           6733
    Max Points             =            256
    Max Functions          =            143
    Weights Tolerance      =       1.00E-15

   => Loading Basis Set <=

    Name: (ANONYMOUS700578CF AUX)
    Role: JKFIT
    Keyword: DF_BASIS_SCF
    atoms 1-2 entry C          line   198 file /opt/psi/4/master/share/psi4/basis/def2-universal-jkfit.gbs 
    atoms 3   entry O          line   318 file /opt/psi/4/master/share/psi4/basis/def2-universal-jkfit.gbs 
    atoms 4   entry N          line   258 file /opt/psi/4/master/share/psi4/basis/def2-universal-jkfit.gbs 
    atoms 5-9 entry H          line    18 file /opt/psi/4/master/share/psi4/basis/def2-universal-jkfit.gbs 

  ==> Integral Setup <==

  DFHelper Memory: AOs need 0.066 GiB; user supplied 6.417 GiB. Using in-core AOs.

  ==> MemDFJK: Density-Fitted J/K Matrices <==

    J tasked:                   Yes
    K tasked:                   Yes
    wK tasked:                   No
    OpenMP threads:               1
    Memory [MiB]:              6570
    Algorithm:                 Core
    Schwarz Cutoff:           1E-12
    Mask sparsity (%):       0.9549
    Fitting Condition:        1E-10

   => Auxiliary Basis Set <=

  Basis Set: (ANONYMOUS700578CF AUX)
    Blend: DEF2-UNIVERSAL-JKFIT
    Number of shells: 130
    Number of basis function: 394
    Number of Cartesian functions: 464
    Spherical Harmonics?: true
    Max angular momentum: 4

  Cached 100.0% of DFT collocation blocks in 3.362 [GiB].

  Minimum eigenvalue in the overlap matrix is 1.1122041591E-03.
  Reciprocal condition number of the overlap matrix is 2.0215681759E-04.
    Using symmetric orthogonalization.

  ==> Pre-Iterations <==

  SCF Guess: Superposition of Atomic Densities via on-the-fly atomic UHF (no occupation information).

   -------------------------
    Irrep   Nso     Nmo    
   -------------------------
     A        144     144 
   -------------------------
    Total     144     144
   -------------------------

  ==> Iterations <==

                           Total Energy        Delta E     RMS |[F,P]|

   @DF-RKS iter SAD:  -208.67339562830364   -2.08673e+02   0.00000e+00 
   @DF-RKS iter   1:  -208.91010055190895   -2.36705e-01   5.90454e-03 DIIS
   @DF-RKS iter   2:  -208.68783608838959    2.22264e-01   7.75735e-03 DIIS
   @DF-RKS iter   3:  -209.19817956080152   -5.10343e-01   1.93738e-03 DIIS
   @DF-RKS iter   4:  -209.22942835722097   -3.12488e-02   3.06543e-04 DIIS
   @DF-RKS iter   5:  -209.23002223449004   -5.93877e-04   1.46224e-04 DIIS
   @DF-RKS iter   6:  -209.23022065300802   -1.98419e-04   2.07457e-05 DIIS
   @DF-RKS iter   7:  -209.23022493531650   -4.28231e-06   2.37586e-06 DIIS
   @DF-RKS iter   8:  -209.23022498627805   -5.09615e-08   5.49379e-07 DIIS
   @DF-RKS iter   9:  -209.23022498909785   -2.81980e-09   2.03058e-07 DIIS
   @DF-RKS iter  10:  -209.23022498946995   -3.72097e-10   6.01137e-08 DIIS
   @DF-RKS iter  11:  -209.23022498950320   -3.32534e-11   1.31359e-08 DIIS
   @DF-RKS iter  12:  -209.23022498950547   -2.27374e-12   2.39431e-09 DIIS
   @DF-RKS iter  13:  -209.23022498950579   -3.12639e-13   3.63869e-10 DIIS
   @DF-RKS iter  14:  -209.23022498950576    2.84217e-14   1.06988e-10 DIIS
   @DF-RKS iter  15:  -209.23022498950561    1.42109e-13   3.10970e-11 DIIS
  Energy and wave function converged.


  ==> Post-Iterations <==

    Orbital Energies [Eh]
    ---------------------

    Doubly Occupied:                                                      

       1A    -19.104536     2A    -14.349022     3A    -10.281342  
       4A    -10.184718     5A     -1.024728     6A     -0.900551  
       7A     -0.737741     8A     -0.582717     9A     -0.534374  
      10A     -0.465559    11A     -0.444701    12A     -0.400382  
      13A     -0.395169    14A     -0.364153    15A     -0.269703  
      16A     -0.245637  

    Virtual:                                                              

      17A      0.028343    18A      0.064147    19A      0.112915  
      20A      0.128625    21A      0.151874    22A      0.165976  
      23A      0.215735    24A      0.287057    25A      0.343183  
      26A      0.414844    27A      0.445976    28A      0.448360  
      29A      0.466527    30A      0.482321    31A      0.494497  
      32A      0.549585    33A      0.565085    34A      0.582754  
      35A      0.597586    36A      0.629933    37A      0.635437  
      38A      0.647354    39A      0.672244    40A      0.700173  
      41A      0.713906    42A      0.740883    43A      0.826400  
      44A      0.846614    45A      0.868624    46A      0.920555  
      47A      0.939515    48A      0.964060    49A      0.987957  
      50A      0.997663    51A      1.087825    52A      1.114294  
      53A      1.135581    54A      1.163949    55A      1.256089  
      56A      1.277389    57A      1.288374    58A      1.320692  
      59A      1.332676    60A      1.343529    61A      1.362114  
      62A      1.393381    63A      1.413814    64A      1.472375  
      65A      1.487325    66A      1.554578    67A      1.562164  
      68A      1.642311    69A      1.711991    70A      1.727473  
      71A      1.782586    72A      1.821816    73A      1.911434  
      74A      1.968526    75A      1.978445    76A      2.070491  
      77A      2.183035    78A      2.220555    79A      2.339555  
      80A      2.528092    81A      2.618632    82A      2.754844  
      83A      2.836058    84A      2.913021    85A      2.953431  
      86A      2.971725    87A      3.023572    88A      3.048592  
      89A      3.107074    90A      3.163966    91A      3.201944  
      92A      3.254922    93A      3.266228    94A      3.351029  
      95A      3.376289    96A      3.412667    97A      3.448234  
      98A      3.473191    99A      3.508803   100A      3.597839  
     101A      3.635517   102A      3.667710   103A      3.744341  
     104A      3.811085   105A      3.911844   106A      3.923478  
     107A      3.956362   108A      3.980418   109A      3.999524  
     110A      4.144124   111A      4.153371   112A      4.183363  
     113A      4.263270   114A      4.377229   115A      4.409610  
     116A      4.428836   117A      4.458502   118A      4.488032  
     119A      4.522352   120A      4.564793   121A      4.739382  
     122A      4.788088   123A      4.947765   124A      5.050230  
     125A      5.081054   126A      5.104820   127A      5.141350  
     128A      5.161890   129A      5.242134   130A      5.251449  
     131A      5.321981   132A      5.402237   133A      5.603235  
     134A      5.694175   135A      5.815072   136A      5.893391  
     137A      5.978529   138A      6.044271   139A      6.452230  
     140A      6.884057   141A      6.892399   142A      7.185470  
     143A      7.382164   144A      7.596779  

    Final Occupation by Irrep:
              A 
    DOCC [    16 ]

  @DF-RKS Final Energy:  -209.23022498950561

   => Energetics <=

    Nuclear Repulsion Energy =            121.4952744502215296
    One-Electron Energy =                -524.4519043712700750
    Two-Electron Energy =                 216.5913242908898155
    DFT Exchange-Correlation Energy =     -22.8649193593468958
    Empirical Dispersion Energy =           0.0000000000000000
    VV10 Nonlocal Energy =                  0.0000000000000000
    Total Energy =                       -209.2302249895056150

Computation Completed


Properties will be evaluated at   0.000000,   0.000000,   0.000000 [a0]

Properties computed using the SCF density matrix

  Nuclear Dipole Moment: [e a0]
     X:     2.8391      Y:     3.4700      Z:    -0.3617

  Electronic Dipole Moment: [e a0]
     X:    -2.6211      Y:    -2.0895      Z:     0.1315

  Dipole Moment: [e a0]
     X:     0.2180      Y:     1.3805      Z:    -0.2302     Total:     1.4165

  Dipole Moment: [D]
     X:     0.5540      Y:     3.5090      Z:    -0.5852     Total:     3.6003


*** tstop() called on n044 at Wed Nov  3 17:50:37 2021
Module time:
	user time   =      78.68 seconds =       1.31 minutes
	system time =       0.73 seconds =       0.01 minutes
	total time  =         79 seconds =       1.32 minutes
Total time:
	user time   =      78.68 seconds =       1.31 minutes
	system time =       0.73 seconds =       0.01 minutes
	total time  =         79 seconds =       1.32 minutes
Grab this energy -209.23022498950561
    Psi4 stopped on: Wednesday, 03 November 2021 05:50PM
    Psi4 wall time for execution: 0:01:19.46

*** Psi4 exiting successfully. Buy a developer a beer!
