
 Primary working directories    : /tmp/856074.37.gen4.q
 Secondary working directories  : /tmp/856074.37.gen4.q
 Wavefunction directory         : /home/vulcan/lo21740/wfu/
 Main file repository           : /tmp/856074.37.gen4.q/

 ARCHNAME  : Linux/x86_64
 FC        : /opt/intel/compilers_and_libraries_2016.1.150/linux/bin/intel64/ifort
 FCVERSION : 16.0.1
 BLASLIB   : -mkl
 id        : ccgc

 Nodes     nprocs
 n046         1
 ga_uses_ma=false, calling ma_init with nominal heap.
 GA-space will be limited to   8.0 MW (determined by -G option)

 Using customized tuning parameters: mindgm=10; mindgv=16; mindgc=4; mindgr=1; noblas=0; mincuda=1000; minvec=7
 default implementation of scratch files=df  

 ***,Optimization of h2o_2
 memory,1000,m
 gthresh,energy=1.0d-12,orbital=1.0d-10,oneint=1.0d-16,twoint=1.0d-16,optgrad=1.0d-6,compress=1.0d-13
 geomtyp=xyz
 
 bohr
 geometry = {
  C    0.0012103669   -3.4230593226    0.0000000000
  H   -0.9707276765   -2.7308593497   -1.6822256013
  H   -0.9707276765   -2.7308593497    1.6822256013
  H    1.9380393000   -2.7328641741    0.0000000000
  H    0.0040040035   -5.4814904304    0.0000000000
  C   -0.0012103669    3.4230593226   -0.0000000000
  H   -0.0040040035    5.4814904304   -0.0000000000
  H    0.9707276765    2.7308593497   -1.6822256013
  H    0.9707276765    2.7308593497    1.6822256013
  H   -1.9380393000    2.7328641741   -0.0000000000
 }
 
 basis=VDZ
 {rhf;maxit,200}
 {ccsd(t);maxit,200}

 Variables initialized (661), CPU time= 0.00 sec
 Commands  initialized (458), CPU time= 0.00 sec, 486 directives.
 Default parameters read. Elapsed time= 0.06 sec

 Checking input...
 Passed
1


                                         ***  PROGRAM SYSTEM MOLPRO  ***
                         Copyright, University College Cardiff Consultants Limited, 2008

                                    Version 2010.1 linked May 16 2016 07:17:05


 **********************************************************************************************************************************
 LABEL *   Optimization of h2o_2                                                         
 Linux-4.4.3/n046(x86_64) 64 bit mpp version                                             DATE: 12-Apr-23          TIME: 13:41:36  
 **********************************************************************************************************************************

 SHA1:             9e8077add272b0f3cad6f7df79ec5211205f459d
 **********************************************************************************************************************************

 THRESHOLDS:

 ZERO    =  1.00D-12  ONEINT  =  1.00D-16  TWOINT  =  1.00D-16  PREFAC  =  1.00D-14  LOCALI  =  1.00D-09  EORDER  =  1.00D-04
 ENERGY  =  1.00D-12  ETEST   =  0.00D+00  EDENS   =  0.00D+00  THRDEDEF=  1.00D-06  GRADIENT=  1.00D-02  STEP    =  1.00D-03
 ORBITAL =  1.00D-10  CIVEC   =  1.00D-05  COEFF   =  1.00D-04  PRINTCI =  5.00D-02  PUNCHCI =  9.90D+01  OPTGRAD =  1.00D-06
 OPTENERG=  1.00D-06  OPTSTEP =  3.00D-04  THRGRAD =  1.00D-10  COMPRESS=  1.00D-13  VARMIN  =  1.00D-07  VARMAX  =  1.00D-03
 THRDOUB =  0.00D+00  THRDIV  =  1.00D-05  THRRED  =  1.00D-07  THRPSP  =  1.00D+00  THRDC   =  1.00D-10  THRCS   =  1.00D-10
 THRNRM  =  1.00D-08  THREQ   =  0.00D+00  THRDE   =  1.00D+00  THRREF  =  1.00D-05  SPARFAC =  1.00D+00  THRDLP  =  1.00D-07
 THRDIA  =  1.00D-10  THRDLS  =  1.00D-07  THRGPS  =  0.00D+00  THRKEX  =  0.00D+00  THRDIS  =  2.00D-01  THRVAR  =  1.00D-10
 THRLOC  =  1.00D-06  THRGAP  =  1.00D-06  THRLOCT = -1.00D+00  THRGAPT = -1.00D+00  THRORB  =  1.00D-06  THRMLTP =  0.00D+00
 THRCPQCI=  1.00D-10  KEXTA   =  0.00D+00  THRCOARS=  0.00D+00  SYMTOL  =  1.00D-06  GRADTOL =  1.00D-06  THROVL  =  1.00D-08
 THRORTH =  1.00D-08  GRID    =  1.00D-06  GRIDMAX =  1.00D-03  DTMAX   =  0.00D+00

 SETTING GEOMTYP        =    XYZ
 ZUNIT=BOHR
 

 Variable memory set to 1000000000 words,  buffer space   230000 words

 SETTING BASIS          =    VDZ


 Recomputing integrals since basis changed


 Using spherical harmonics

 Library entry C      S cc-pVDZ              selected for orbital group  1
 Library entry C      P cc-pVDZ              selected for orbital group  1
 Library entry C      D cc-pVDZ              selected for orbital group  1
 Library entry H      S cc-pVDZ              selected for orbital group  2
 Library entry H      P cc-pVDZ              selected for orbital group  2

1PROGRAM * SEWARD (Integral evaluation for generally contracted gaussian basis sets)     Author: Roland Lindh, 1990

 Geometry written to block  1 of record 700


 Point group  C2h 



 ATOMIC COORDINATES

 NR  ATOM    CHARGE       X              Y              Z

   1  C       6.00    0.001210367   -3.423059323    0.000000000
   2  C       6.00   -0.001210367    3.423059323    0.000000000
   3  H       1.00   -0.970727677   -2.730859350   -1.682225601
   4  H       1.00   -0.970727677   -2.730859350    1.682225601
   5  H       1.00    0.970727677    2.730859350   -1.682225601
   6  H       1.00    0.970727677    2.730859350    1.682225601
   7  H       1.00    1.938039300   -2.732864174    0.000000000
   8  H       1.00   -1.938039300    2.732864174    0.000000000
   9  H       1.00    0.004004003   -5.481490430    0.000000000
  10  H       1.00   -0.004004003    5.481490430    0.000000000

 Bond lengths in Bohr (Angstrom)

 1-3  2.062446929  1-4  2.062446929  1-7  2.056131236  1-9  2.058433004  2-5  2.062446929
     ( 1.091399910)     ( 1.091399910)     ( 1.088057789)     ( 1.089275832)     ( 1.091399910)

  2- 6  2.062446929   2- 8  2.056131236   2-10  2.058433004
       ( 1.091399910)       ( 1.088057789)       ( 1.089275832)

 Bond angles

  3-1-4  109.30247936   3-1-7  109.34474202   3-1-9  109.64917649   4-1-7  109.34474202

  4- 1- 9  109.64917649   5- 2- 6  109.30247936   5- 2- 8  109.34474202   5- 2-10  109.64917649

  6- 2- 8  109.34474202   6- 2-10  109.64917649   7- 1- 9  109.53592712   8- 2-10  109.53592712

 NUCLEAR CHARGE:                   20
 NUMBER OF PRIMITIVE AOS:         110
 NUMBER OF SYMMETRY AOS:          108
 NUMBER OF CONTRACTIONS:           68   (  23Ag  +  11Au  +  23Bu  +  11Bg  )
 NUMBER OF CORE ORBITALS:           2   (   1Ag  +   0Au  +   1Bu  +   0Bg  )
 NUMBER OF VALENCE ORBITALS:       16   (   6Ag  +   2Au  +   6Bu  +   2Bg  )


 NUCLEAR REPULSION ENERGY   41.33933307


 Eigenvalues of metric

         1 0.127E-01 0.347E-01 0.374E-01 0.510E-01 0.558E-01 0.665E-01 0.127E+00 0.131E+00
         2 0.385E-01 0.581E-01 0.144E+00 0.291E+00 0.415E+00 0.916E+00 0.917E+00 0.112E+01
         3 0.113E-01 0.355E-01 0.382E-01 0.414E-01 0.510E-01 0.579E-01 0.964E-01 0.132E+00
         4 0.349E-01 0.561E-01 0.127E+00 0.291E+00 0.411E+00 0.916E+00 0.917E+00 0.110E+01


 Contracted 2-electron integrals neglected if value below      1.0D-16
 AO integral compression algorithm  1   Integral accuracy      1.0D-16

     8.126 MB (compressed) written to integral file (100.0%)

     Node minimum: 8.126 MB, node maximum: 8.126 MB


 NUMBER OF SORTED TWO-ELECTRON INTEGRALS:     733089.     BUFFER LENGTH:  32768
 NUMBER OF SEGMENTS:   1  SEGMENT LENGTH:     733089      RECORD LENGTH: 524288

 Memory used in sort:       1.29 MW

 SORT1 READ      983360. AND WROTE      733089. INTEGRALS IN      3 RECORDS. CPU TIME:     0.02 SEC, REAL TIME:     0.02 SEC
 SORT2 READ      733089. AND WROTE      733089. INTEGRALS IN     31 RECORDS. CPU TIME:     0.02 SEC, REAL TIME:     0.03 SEC

 FILE SIZES:   FILE 1:     8.8 MBYTE,  FILE 4:    12.6 MBYTE,   TOTAL:     21.4 MBYTE

 OPERATOR DM      FOR CENTER  0  COORDINATES:    0.000000    0.000000    0.000000


 **********************************************************************************************************************************
 DATASETS  * FILE   NREC   LENGTH (MB)   RECORD NAMES
              1      19        8.77       500      610      700      900      950      970     1000      129      960     1100   
                                          VAR    BASINP    GEOM    SYMINP    ZMAT    AOBASIS   BASIS     P2S    ABASIS      S 
                                         1400     1410     1200     1210     1080     1600     1650     1300     1700   
                                           T        V       H0       H01     AOSYM     SMH    MOLCAS    ERIS     OPER   

 PROGRAMS   *        TOTAL       INT
 CPU TIMES  *         0.32      0.28
 REAL TIME  *         0.54 SEC
 DISK USED  *        30.27 MB      
 GA USED    *         0.00 MB       (max)       0.00 MB       (current)
 **********************************************************************************************************************************

1PROGRAM * RHF-SCF (CLOSED SHELL)       Authors: W. Meyer, H.-J. Werner


 NUMBER OF ELECTRONS:      10+   10-
 CONVERGENCE THRESHOLDS:    1.00E-10 (Density)    1.00E-13 (Energy)
 MAX. NUMBER OF ITERATIONS:      200
 INTERPOLATION TYPE:            DIIS
 INTERPOLATION STEPS:              2 (START)      1 (STEP)
 LEVEL SHIFTS:                  0.00 (CLOSED)  0.00 (OPEN) 



 Orbital guess generated from atomic densities. Full valence occupancy:    7   2   7   2

 Molecular orbital dump at record        2100.2

 Initial alpha occupancy:   4   1   4   1
 Initial beta  occupancy:   4   1   4   1
 Wave function symmetry:    1

 ITERATION    DDIFF          GRAD             ENERGY        2-EL.EN.            DIPOLE MOMENTS         DIIS
    1      0.000D+00      0.000D+00       -80.35962216    134.822680    0.00000    0.00000    0.00000    0
    2      0.000D+00      0.118D-01       -80.39228889    132.544322    0.00000    0.00000    0.00000    1
    3      0.245D-01      0.433D-02       -80.39615018    133.345520    0.00000    0.00000    0.00000    2
    4      0.853D-02      0.117D-02       -80.39667885    133.208782    0.00000    0.00000    0.00000    3
    5      0.307D-02      0.123D-03       -80.39668337    133.214816    0.00000    0.00000    0.00000    4
    6      0.433D-03      0.727D-05       -80.39668339    133.214677    0.00000    0.00000    0.00000    5
    7      0.381D-04      0.431D-06       -80.39668339    133.214675    0.00000    0.00000    0.00000    5
    8      0.139D-05      0.789D-07       -80.39668339    133.214677    0.00000    0.00000    0.00000    4
    9      0.220D-06      0.219D-07       -80.39668339    133.214678    0.00000    0.00000    0.00000    4
   10      0.761D-07      0.393D-08       -80.39668339    133.214678    0.00000    0.00000    0.00000    5
   11      0.131D-07      0.507D-09       -80.39668339    133.214678    0.00000    0.00000    0.00000    5
   12      0.150D-08      0.112D-09       -80.39668339    133.214678    0.00000    0.00000    0.00000    6
   13      0.406D-09      0.247D-10       -80.39668339    133.214678    0.00000    0.00000    0.00000    6
   14      0.525D-10      0.832D-11       -80.39668339    133.214678    0.00000    0.00000    0.00000    0

 Final occupancy:   4   1   4   1

 !RHF STATE 1.1 Energy                -80.396683392007
 Nuclear energy                        41.33933307
 One-electron energy                 -188.34335535
 Two-electron energy                   66.60733888
 Virial quotient                       -1.00229956
 !RHF STATE 1.1 Dipole moment           0.00000000     0.00000000     0.00000000
 Dipole moment /Debye                   0.00000000     0.00000000     0.00000000

 Orbital energies:

         1.1          2.1          3.1          4.1          5.1          6.1
    -11.215312    -0.944265    -0.550045    -0.538294     0.172429     0.263915

         1.2          2.2          3.2
     -0.544783     0.256964     0.584863

         1.3          2.3          3.3          4.3          5.3          6.3
    -11.215315    -0.938404    -0.545595    -0.534891     0.229282     0.257188

         1.4          2.4          3.4
     -0.537435     0.296758     0.601928


 **********************************************************************************************************************************
 DATASETS  * FILE   NREC   LENGTH (MB)   RECORD NAMES
              1      19        8.77       500      610      700      900      950      970     1000      129      960     1100   
                                          VAR    BASINP    GEOM    SYMINP    ZMAT    AOBASIS   BASIS     P2S    ABASIS      S 
                                         1400     1410     1200     1210     1080     1600     1650     1300     1700   
                                           T        V       H0       H01     AOSYM     SMH    MOLCAS    ERIS     OPER   

              2       3        0.44       700     1000     2100   
                                         GEOM     BASIS     RHF  

 PROGRAMS   *        TOTAL       RHF       INT
 CPU TIMES  *         0.36      0.04      0.28
 REAL TIME  *         0.61 SEC
 DISK USED  *        30.27 MB      
 GA USED    *         0.00 MB       (max)       0.00 MB       (current)
 **********************************************************************************************************************************


1PROGRAM * CCSD (Closed-shell coupled cluster)     Authors: C. Hampel, H.-J. Werner, 1991, M. Deegan, P.J. Knowles, 1992


 Convergence thresholds:  THRVAR = 1.00D-08  THRDEN = 1.00D-12

 CCSD(T)     terms to be evaluated (factor= 1.000)


 Number of core orbitals:           2 (   1   0   1   0 )
 Number of closed-shell orbitals:   8 (   3   1   3   1 )
 Number of external orbitals:      58 (  19  10  19  10 )

 Molecular orbitals read from record     2100.2  Type=RHF/CANONICAL (state 1.1)

 Number of N-1 electron functions:               8
 Number of N-2 electron functions:              36
 Number of singly external CSFs:               134
 Number of doubly external CSFs:             27792
 Total number of CSFs:                       27927

 Length of J-op  integral file:               0.00 MB
 Length of K-op  integral file:               0.12 MB
 Length of 3-ext integral record:             0.00 MB

 Memory could be reduced to 0.90 Mwords without degradation in triples

 Integral transformation finished. Total CPU:   0.01 sec, npass=  1  Memory used:   0.22 MW

 Reference energy:                    -80.39668339

 MP2 singlet pair energy:              -0.23207804
 MP2 triplet pair energy:              -0.09154901
 MP2 correlation energy:               -0.32362705
 MP2 total energy:                    -80.72031044

 SCS-MP2 correlation energy:           -0.33545747   (PS=  1.200000  PT=  0.333333)
 SCS-MP2 total energy:                -80.73214087

 ITER.      SQ.NORM     CORR.ENERGY   TOTAL ENERGY   ENERGY CHANGE        DEN1      VAR(S)    VAR(P)  DIIS     TIME
   1      1.13421175    -0.36752888   -80.76421228    -0.04390183    -0.03297789  0.50D-03  0.24D-02  1  1     0.04
   2      1.14682030    -0.37032635   -80.76700974    -0.00279746    -0.01276494  0.15D-04  0.96D-04  2  2     0.06
   3      1.14861264    -0.37049734   -80.76718074    -0.00017100    -0.00095559  0.17D-05  0.56D-05  3  3     0.09
   4      1.14898045    -0.37051765   -80.76720104    -0.00002031    -0.00016584  0.25D-07  0.35D-06  4  4     0.11
   5      1.14902639    -0.37051517   -80.76719856     0.00000248    -0.00002393  0.18D-08  0.18D-07  5  5     0.13
   6      1.14902770    -0.37051511   -80.76719850     0.00000006    -0.00000011  0.19D-09  0.12D-08  6  6     0.15
   7      1.14902779    -0.37051537   -80.76719876    -0.00000026     0.00000013  0.13D-10  0.71D-10  6  1     0.18
   8      1.14902797    -0.37051537   -80.76719876     0.00000001    -0.00000013  0.15D-11  0.41D-11  6  2     0.20
   9      1.14902800    -0.37051535   -80.76719875     0.00000001    -0.00000003  0.15D-12  0.26D-12  6  3     0.22
  10      1.14902799    -0.37051535   -80.76719874     0.00000000     0.00000001  0.11D-13  0.23D-13  6  4     0.25
  11      1.14902798    -0.37051535   -80.76719874    -0.00000000     0.00000001  0.80D-15  0.19D-14  6  5     0.27
  12      1.14902798    -0.37051535   -80.76719874    -0.00000000     0.00000000  0.43D-16  0.23D-15  6  6     0.29
  13      1.14902797    -0.37051535   -80.76719874    -0.00000000     0.00000000  0.34D-17  0.28D-16  6  1     0.32
  14      1.14902797    -0.37051535   -80.76719874     0.00000000     0.00000000  0.60D-18  0.37D-17  6  2     0.34
  15      1.14902797    -0.37051535   -80.76719874     0.00000000     0.00000000  0.72D-19  0.37D-18  6  3     0.36
  16      1.14902797    -0.37051535   -80.76719874    -0.00000000     0.00000000  0.16D-20  0.20D-19  6  5     0.39
  17      1.14902797    -0.37051535   -80.76719874    -0.00000000     0.00000000  0.18D-21  0.56D-21  6  4     0.41
  18      1.14902797    -0.37051535   -80.76719874     0.00000000    -0.00000000  0.45D-22  0.51D-22  6  6     0.43

 Norm of t1 vector:      0.03062777      S-energy:    -0.00000000      T1 diagnostic:  0.00541428
                                                                       D1 diagnostic:  0.00877234


 Total CPU time for triples:      0.18 sec


 RESULTS
 =======

  Reference energy                    -80.396683392007
  CCSD singlet pair energy             -0.281841796316
  CCSD triplet pair energy             -0.088673556276
  CCSD correlation energy              -0.370515352592

  Triples (T) contribution             -0.007535718915
  Total correlation energy             -0.378051071508

  CCSD total energy                   -80.767198744600
  CCSD[T] energy                      -80.774910654705
  CCSD-T energy                       -80.774640024550
 !CCSD(T) total energy                -80.774734463515

 Timing summary (sec):

 STEP                 CPU(USER)    SYS     CPU(TOT)    WALL
 Transformation          0.01      0.00      0.01      0.02
 CCSD iterations         0.42      0.05      0.47      0.51
 Triples                 0.18      0.01      0.19      0.18

 Program statistics:

 Available memory in ccsd:               999999644
 Min. memory needed in ccsd:                 94603
 Max. memory used in ccsd:                  117097
 Max. memory used in cckext:                139739 (18 integral passes)



 **********************************************************************************************************************************
 DATASETS  * FILE   NREC   LENGTH (MB)   RECORD NAMES
              1      20       10.99       500      610      700      900      950      970     1000      129      960     1100   
                                          VAR    BASINP    GEOM    SYMINP    ZMAT    AOBASIS   BASIS     P2S    ABASIS      S 
                                         1400     1410     1200     1210     1080     1600     1650     1300     1700     1380   
                                           T        V       H0       H01     AOSYM     SMH    MOLCAS    ERIS     OPER     JKOP   

              2       3        0.44       700     1000     2100   
                                         GEOM     BASIS     RHF  

 PROGRAMS   *        TOTAL   CCSD(T)       RHF       INT
 CPU TIMES  *         0.98      0.62      0.04      0.28
 REAL TIME  *         1.34 SEC
 DISK USED  *        30.27 MB      
 GA USED    *         0.00 MB       (max)       0.00 MB       (current)
 **********************************************************************************************************************************

        CCSD(T)         RHF-SCF 
    -80.77473446    -80.39668339
 **********************************************************************************************************************************
 Variable memory released
