
 Primary working directories    : /tmp/1065196.82.gen4.q
 Secondary working directories  : /tmp/1065196.82.gen4.q
 Wavefunction directory         : /home/vulcan/jj04645/wfu/
 Main file repository           : /tmp/1065196.82.gen4.q/

 ARCHNAME  : Linux/x86_64
 FC        : /opt/intel/compilers_and_libraries_2016.1.150/linux/bin/intel64/ifort
 FCVERSION : 16.0.1
 BLASLIB   : -mkl
 id        : ccgc

 Nodes     nprocs
 n064         1
 ga_uses_ma=false, calling ma_init with nominal heap.
 GA-space will be limited to   8.0 MW (determined by -G option)

 Using customized tuning parameters: mindgm=10; mindgv=16; mindgc=4; mindgr=1; noblas=0; mincuda=1000; minvec=7
 default implementation of scratch files=df  

 ***,Optimization of t-butanol
 memory,1000,m
 gthresh,energy=1.0d-12,orbital=1.0d-10,oneint=1.0d-16,twoint=1.0d-16,optgrad=1.0d-6,compress=1.0d-13
 geomtyp=xyz
 
 bohr
 geometry = {
  C    0.0085679025   -0.0558512444    0.0000000117
  O   -0.0185600518    2.6569156085    0.0000000184
  C   -2.7775605140   -0.8343803180    0.0000000255
  C    1.3409120448   -1.0159437353   -2.3787476843
  C    1.3409120714   -1.0159437468    2.3787476881
  H    1.7140677781    3.2113295681    0.0000000100
  H   -2.9557675267   -2.8904438026    0.0000000133
  H   -3.7204378267   -0.0840977550   -1.6741167340
  H   -3.7204379603   -0.0840976318    1.6741166544
  H    1.3173281819   -3.0793836329   -2.4606894489
  H    3.3150452896   -0.3996546192   -2.4012160441
  H    0.4065848007   -0.2722645972   -4.0605609595
  H    1.3173282094   -3.0793836448    2.4606894430
  H    3.3150453165   -0.3996546307    2.4012160288
  H    0.4065848462   -0.2722646168    4.0605609774
 }
 
 basis=VDZ
 {rhf;maxit,200}
 {ccsd(t);maxit,200}

 Variables initialized (661), CPU time= 0.01 sec
 Commands  initialized (458), CPU time= 0.00 sec, 486 directives.
 Default parameters read. Elapsed time= 0.05 sec

 Checking input...
 Passed
1


                                         ***  PROGRAM SYSTEM MOLPRO  ***
                         Copyright, University College Cardiff Consultants Limited, 2008

                                    Version 2010.1 linked May 16 2016 07:17:05


 **********************************************************************************************************************************
 LABEL *   Optimization of t-butanol                                                     
 Linux-4.4.3/n064(x86_64) 64 bit mpp version                                             DATE: 20-May-24          TIME: 10:26:50  
 **********************************************************************************************************************************

 SHA1:             9e8077add272b0f3cad6f7df79ec5211205f459d
 **********************************************************************************************************************************

 THRESHOLDS:

 ZERO    =  1.00D-12  ONEINT  =  1.00D-16  TWOINT  =  1.00D-16  PREFAC  =  1.00D-14  LOCALI  =  1.00D-09  EORDER  =  1.00D-04
 ENERGY  =  1.00D-12  ETEST   =  0.00D+00  EDENS   =  0.00D+00  THRDEDEF=  1.00D-06  GRADIENT=  1.00D-02  STEP    =  1.00D-03
 ORBITAL =  1.00D-10  CIVEC   =  1.00D-05  COEFF   =  1.00D-04  PRINTCI =  5.00D-02  PUNCHCI =  9.90D+01  OPTGRAD =  1.00D-06
 OPTENERG=  1.00D-06  OPTSTEP =  3.00D-04  THRGRAD =  1.00D-10  COMPRESS=  1.00D-13  VARMIN  =  1.00D-07  VARMAX  =  1.00D-03
 THRDOUB =  0.00D+00  THRDIV  =  1.00D-05  THRRED  =  1.00D-07  THRPSP  =  1.00D+00  THRDC   =  1.00D-10  THRCS   =  1.00D-10
 THRNRM  =  1.00D-08  THREQ   =  0.00D+00  THRDE   =  1.00D+00  THRREF  =  1.00D-05  SPARFAC =  1.00D+00  THRDLP  =  1.00D-07
 THRDIA  =  1.00D-10  THRDLS  =  1.00D-07  THRGPS  =  0.00D+00  THRKEX  =  0.00D+00  THRDIS  =  2.00D-01  THRVAR  =  1.00D-10
 THRLOC  =  1.00D-06  THRGAP  =  1.00D-06  THRLOCT = -1.00D+00  THRGAPT = -1.00D+00  THRORB  =  1.00D-06  THRMLTP =  0.00D+00
 THRCPQCI=  1.00D-10  KEXTA   =  0.00D+00  THRCOARS=  0.00D+00  SYMTOL  =  1.00D-06  GRADTOL =  1.00D-06  THROVL  =  1.00D-08
 THRORTH =  1.00D-08  GRID    =  1.00D-06  GRIDMAX =  1.00D-03  DTMAX   =  0.00D+00

 SETTING GEOMTYP        =    XYZ
 ZUNIT=BOHR
 

 Variable memory set to 1000000000 words,  buffer space   230000 words

 SETTING BASIS          =    VDZ


 Recomputing integrals since basis changed


 Using spherical harmonics

 Library entry C      S cc-pVDZ              selected for orbital group  1
 Library entry C      P cc-pVDZ              selected for orbital group  1
 Library entry C      D cc-pVDZ              selected for orbital group  1
 Library entry O      S cc-pVDZ              selected for orbital group  2
 Library entry O      P cc-pVDZ              selected for orbital group  2
 Library entry O      D cc-pVDZ              selected for orbital group  2
 Library entry H      S cc-pVDZ              selected for orbital group  4
 Library entry H      P cc-pVDZ              selected for orbital group  4

1PROGRAM * SEWARD (Integral evaluation for generally contracted gaussian basis sets)     Author: Roland Lindh, 1990

 Geometry written to block  1 of record 700


 Point group  Cs  



 ATOMIC COORDINATES

 NR  ATOM    CHARGE       X              Y              Z

   1  C       6.00    0.008567903   -0.055851244    0.000000000
   2  O       8.00   -0.018560052    2.656915608    0.000000000
   3  C       6.00   -2.777560514   -0.834380318    0.000000000
   4  C       6.00    1.340912058   -1.015943741   -2.378747686
   5  C       6.00    1.340912058   -1.015943741    2.378747686
   6  H       1.00    1.714067778    3.211329568    0.000000000
   7  H       1.00   -2.955767527   -2.890443803    0.000000000
   8  H       1.00   -3.720437893   -0.084097693   -1.674116694
   9  H       1.00   -3.720437893   -0.084097693    1.674116694
  10  H       1.00    1.317328196   -3.079383639   -2.460689446
  11  H       1.00    1.317328196   -3.079383639    2.460689446
  12  H       1.00    3.315045303   -0.399654625   -2.401216036
  13  H       1.00    3.315045303   -0.399654625    2.401216036
  14  H       1.00    0.406584823   -0.272264607   -4.060560968
  15  H       1.00    0.406584823   -0.272264607    4.060560968

 Bond lengths in Bohr (Angstrom)

 1-2  2.712902491  1-3  2.892856559  1-4  2.890563804  1-5  2.890563804  2-6  1.819168501
     ( 1.435606168)     ( 1.530833760)     ( 1.529620486)     ( 1.529620486)     ( 0.962662510)

  3- 7  2.063771982   3- 8  2.062670229   3- 9  2.062670229   4-10  2.065200925   4-12  2.068216422
       ( 1.092101097)       ( 1.091518075)       ( 1.091518075)       ( 1.092857262)       ( 1.094452994)

  4-14  2.062649256   5-11  2.065200925   5-13  2.068216422   5-15  2.062649256
       ( 1.091506976)       ( 1.092857262)       ( 1.094452994)       ( 1.091506976)

 Bond angles

  1-2-6  107.17091859   1-3-7  110.56564881   1-3-8  110.02067627   1-3-9  110.02067627

  1- 4-10  111.05427777   1- 4-12  110.48289368   1- 4-14  110.02622483   1- 5-11  111.05427777

  1- 5-13  110.48289368   1- 5-15  110.02622483   2- 1- 3  105.03903602   2- 1- 4  109.67835923

  2-1-5  109.67835923   3-1-4  110.76498583   3-1-5  110.76498583   4-1-5  110.75948302

  7- 3- 8  108.83917010   7- 3- 9  108.83917010   8- 3- 9  108.51019428  10- 4-12  107.95054623

 10- 4-14  108.82712305  11- 5-13  107.95054623  11- 5-15  108.82712305  12- 4-14  108.42572246

 13- 5-15  108.42572246

 NUCLEAR CHARGE:                   42
 NUMBER OF PRIMITIVE AOS:         205
 NUMBER OF SYMMETRY AOS:          200
 NUMBER OF CONTRACTIONS:          120   (  72A'  +  48A"  )
 NUMBER OF CORE ORBITALS:           5   (   4A'  +   1A"  )
 NUMBER OF VALENCE ORBITALS:       30   (  19A'  +  11A"  )


 NUCLEAR REPULSION ENERGY  199.42710186


 Eigenvalues of metric

         1 0.262E-02 0.495E-02 0.838E-02 0.169E-01 0.193E-01 0.251E-01 0.301E-01 0.338E-01
         2 0.490E-02 0.192E-01 0.241E-01 0.304E-01 0.343E-01 0.351E-01 0.375E-01 0.445E-01


 Contracted 2-electron integrals neglected if value below      1.0D-16
 AO integral compression algorithm  1   Integral accuracy      1.0D-16

     119.538 MB (compressed) written to integral file ( 98.1%)

     Node minimum: 119.538 MB, node maximum: 119.538 MB


 NUMBER OF SORTED TWO-ELECTRON INTEGRALS:   13418166.     BUFFER LENGTH:  32768
 NUMBER OF SEGMENTS:   1  SEGMENT LENGTH:   13418166      RECORD LENGTH: 524288

 Memory used in sort:      13.98 MW

 SORT1 READ    15222547. AND WROTE    13374713. INTEGRALS IN     39 RECORDS. CPU TIME:     0.16 SEC, REAL TIME:     0.93 SEC
 SORT2 READ    13374713. AND WROTE    13418166. INTEGRALS IN    456 RECORDS. CPU TIME:     0.16 SEC, REAL TIME:     0.22 SEC

 FILE SIZES:   FILE 1:   109.4 MBYTE,  FILE 4:   163.6 MBYTE,   TOTAL:    273.0 MBYTE

 OPERATOR DM      FOR CENTER  0  COORDINATES:    0.000000    0.000000    0.000000


 **********************************************************************************************************************************
 DATASETS  * FILE   NREC   LENGTH (MB)   RECORD NAMES
              1      19      109.51       500      610      700      900      950      970     1000      129      960     1100   
                                          VAR    BASINP    GEOM    SYMINP    ZMAT    AOBASIS   BASIS     P2S    ABASIS      S 
                                         1400     1410     1200     1210     1080     1600     1650     1300     1700   
                                           T        V       H0       H01     AOSYM     SMH    MOLCAS    ERIS     OPER   

 PROGRAMS   *        TOTAL       INT
 CPU TIMES  *         2.35      2.31
 REAL TIME  *         4.00 SEC
 DISK USED  *       393.53 MB      
 GA USED    *         0.00 MB       (max)       0.00 MB       (current)
 **********************************************************************************************************************************

1PROGRAM * RHF-SCF (CLOSED SHELL)       Authors: W. Meyer, H.-J. Werner


 NUMBER OF ELECTRONS:      21+   21-
 CONVERGENCE THRESHOLDS:    1.00E-10 (Density)    1.00E-13 (Energy)
 MAX. NUMBER OF ITERATIONS:      200
 INTERPOLATION TYPE:            DIIS
 INTERPOLATION STEPS:              2 (START)      1 (STEP)
 LEVEL SHIFTS:                  0.00 (CLOSED)  0.00 (OPEN) 



 Orbital guess generated from atomic densities. Full valence occupancy:   23  12

 Molecular orbital dump at record        2100.2

 Initial alpha occupancy:  14   7
 Initial beta  occupancy:  14   7
 Wave function symmetry:    1

 ITERATION    DDIFF          GRAD             ENERGY        2-EL.EN.            DIPOLE MOMENTS         DIIS
    1      0.000D+00      0.000D+00      -232.08681327    560.646815    0.89261   -0.62294    0.00000    0
    2      0.000D+00      0.851D-02      -232.16302807    555.475271    0.40993   -0.32413    0.00000    1
    3      0.169D-01      0.367D-02      -232.17372747    557.448286    0.53064   -0.42986    0.00000    2
    4      0.538D-02      0.101D-02      -232.17502872    557.227455    0.50360   -0.39388    0.00000    3
    5      0.195D-02      0.265D-03      -232.17510602    557.163440    0.50283   -0.40607    0.00000    4
    6      0.424D-03      0.493D-04      -232.17510906    557.183281    0.50219   -0.40442    0.00000    5
    7      0.124D-03      0.898D-05      -232.17510920    557.177811    0.50212   -0.40459    0.00000    6
    8      0.254D-04      0.284D-05      -232.17510921    557.179365    0.50212   -0.40468    0.00000    7
    9      0.546D-05      0.941D-06      -232.17510921    557.179002    0.50209   -0.40470    0.00000    7
   10      0.211D-05      0.264D-06      -232.17510921    557.179059    0.50209   -0.40471    0.00000    7
   11      0.693D-06      0.541D-07      -232.17510921    557.179047    0.50209   -0.40472    0.00000    7
   12      0.170D-06      0.168D-07      -232.17510921    557.179055    0.50209   -0.40472    0.00000    7
   13      0.338D-07      0.720D-08      -232.17510921    557.179053    0.50209   -0.40472    0.00000    7
   14      0.142D-07      0.238D-08      -232.17510921    557.179053    0.50209   -0.40472    0.00000    8
   15      0.422D-08      0.616D-09      -232.17510921    557.179053    0.50209   -0.40472    0.00000    8
   16      0.146D-08      0.152D-09      -232.17510921    557.179053    0.50209   -0.40472    0.00000    7
   17      0.354D-09      0.424D-10      -232.17510921    557.179053    0.50209   -0.40472    0.00000    7
   18      0.110D-09      0.119D-10      -232.17510921    557.179053    0.50209   -0.40472    0.00000    8
   19      0.241D-10      0.314D-11      -232.17510921    557.179053    0.50209   -0.40472    0.00000    8
   20      0.853D-11      0.106D-11      -232.17510921    557.179053    0.50209   -0.40472    0.00000    7
   21      0.250D-11      0.383D-12      -232.17510921    557.179053    0.50209   -0.40472    0.00000    7
   22      0.894D-12      0.120D-12      -232.17510921    557.179053    0.50209   -0.40472    0.00000    7
   23      0.379D-12      0.469D-13      -232.17510921    557.179053    0.50209   -0.40472    0.00000    8
   24      0.210D-12      0.317D-13      -232.17510921    557.179053    0.50209   -0.40472    0.00000    8
   25      0.125D-12      0.291D-13      -232.17510921    557.179053    0.50209   -0.40472    0.00000    9
   26      0.899D-13      0.282D-13      -232.17510921    557.179053    0.50209   -0.40472    0.00000    9
   27      0.420D-13      0.218D-13      -232.17510921    557.179053    0.50209   -0.40472    0.00000    9
   28      0.490D-13      0.232D-13      -232.17510921    557.179053    0.50209   -0.40472    0.00000    9
   29      0.386D-13      0.201D-13      -232.17510921    557.179053    0.50209   -0.40472    0.00000    9
   30      0.286D-13      0.241D-13      -232.17510921    557.179053    0.50209   -0.40472    0.00000    0

 Final occupancy:  14   7

 !RHF STATE 1.1 Energy               -232.175109210445
 Nuclear energy                       199.42710186
 One-electron energy                 -710.19173758
 Two-electron energy                  278.58952652
 Virial quotient                       -1.00096828
 !RHF STATE 1.1 Dipole moment           0.50209353    -0.40471763     0.00000000
 Dipole moment /Debye                   1.27611087    -1.02862224     0.00000000

 Orbital energies:

         1.1          2.1          3.1          4.1          5.1          6.1          7.1          8.1          9.1         10.1
    -20.545230   -11.282887   -11.220567   -11.214995    -1.352068    -1.063042    -0.937570    -0.766845    -0.665138    -0.620428

        11.1         12.1         13.1         14.1         15.1         16.1
     -0.573279    -0.528062    -0.505161    -0.457153     0.166827     0.220126

         1.2          2.2          3.2          4.2          5.2          6.2          7.2          8.2          9.2
    -11.220585    -0.939807    -0.617553    -0.553923    -0.514713    -0.500503    -0.426834     0.241058     0.255241


 **********************************************************************************************************************************
 DATASETS  * FILE   NREC   LENGTH (MB)   RECORD NAMES
              1      19      109.51       500      610      700      900      950      970     1000      129      960     1100   
                                          VAR    BASINP    GEOM    SYMINP    ZMAT    AOBASIS   BASIS     P2S    ABASIS      S 
                                         1400     1410     1200     1210     1080     1600     1650     1300     1700   
                                           T        V       H0       H01     AOSYM     SMH    MOLCAS    ERIS     OPER   

              2       3        0.66       700     1000     2100   
                                         GEOM     BASIS     RHF  

 PROGRAMS   *        TOTAL       RHF       INT
 CPU TIMES  *         4.28      1.91      2.31
 REAL TIME  *         6.35 SEC
 DISK USED  *       393.53 MB      
 GA USED    *         0.00 MB       (max)       0.00 MB       (current)
 **********************************************************************************************************************************


1PROGRAM * CCSD (Closed-shell coupled cluster)     Authors: C. Hampel, H.-J. Werner, 1991, M. Deegan, P.J. Knowles, 1992


 Convergence thresholds:  THRVAR = 1.00D-08  THRDEN = 1.00D-12

 CCSD(T)     terms to be evaluated (factor= 1.000)


 Number of core orbitals:           5 (   4   1 )
 Number of closed-shell orbitals:  16 (  10   6 )
 Number of external orbitals:      99 (  58  41 )

 Molecular orbitals read from record     2100.2  Type=RHF/CANONICAL (state 1.1)

 Number of N-1 electron functions:              16
 Number of N-2 electron functions:             136
 Number of singly external CSFs:               826
 Number of doubly external CSFs:            629212
 Total number of CSFs:                      630039

 Length of J-op  integral file:               0.00 MB
 Length of K-op  integral file:               0.55 MB
 Length of 3-ext integral record:             0.00 MB

 Memory could be reduced to 10.83 Mwords without degradation in triples

 Integral transformation finished. Total CPU:   0.48 sec, npass=  1  Memory used:   6.19 MW

 Reference energy:                   -232.17510921

 MP2 singlet pair energy:              -0.49769587
 MP2 triplet pair energy:              -0.27467328
 MP2 correlation energy:               -0.77236915
 MP2 total energy:                   -232.94747836

 SCS-MP2 correlation energy:           -0.76814286   (PS=  1.200000  PT=  0.333333)
 SCS-MP2 total energy:               -232.94325207

 ITER.      SQ.NORM     CORR.ENERGY   TOTAL ENERGY   ENERGY CHANGE        DEN1      VAR(S)    VAR(P)  DIIS     TIME
   1      1.27382973    -0.82961112  -233.00472033    -0.05724197    -0.03608942  0.25D-02  0.44D-02  1  1     1.44
   2      1.29504396    -0.83393917  -233.00904838    -0.00432805    -0.02222101  0.67D-04  0.42D-03  2  2     2.44
   3      1.29957895    -0.83415032  -233.00925954    -0.00021115    -0.00278162  0.25D-04  0.25D-04  3  3     3.45
   4      1.30084998    -0.83415635  -233.00926556    -0.00000602    -0.00060456  0.64D-06  0.21D-05  4  4     4.46
   5      1.30108223    -0.83416537  -233.00927458    -0.00000903    -0.00008138  0.19D-06  0.15D-06  5  5     5.47
   6      1.30112347    -0.83416212  -233.00927133     0.00000326    -0.00001324  0.26D-07  0.14D-07  6  6     6.49
   7      1.30113037    -0.83416090  -233.00927011     0.00000122    -0.00000071  0.38D-08  0.17D-08  6  1     7.50
   8      1.30113394    -0.83416091  -233.00927012    -0.00000001    -0.00000042  0.69D-09  0.22D-09  6  2     8.51
   9      1.30113451    -0.83416085  -233.00927006     0.00000006     0.00000057  0.64D-10  0.39D-10  6  4     9.53
  10      1.30113510    -0.83416083  -233.00927004     0.00000001    -0.00000001  0.51D-11  0.38D-11  6  3    10.53
  11      1.30113507    -0.83416084  -233.00927005    -0.00000000     0.00000005  0.79D-12  0.47D-12  6  5    11.54
  12      1.30113501    -0.83416084  -233.00927005    -0.00000000     0.00000003  0.14D-12  0.66D-13  6  6    12.55
  13      1.30113496    -0.83416084  -233.00927005    -0.00000000     0.00000003  0.11D-13  0.10D-13  6  2    13.56
  14      1.30113494    -0.83416084  -233.00927005    -0.00000000     0.00000001  0.17D-14  0.62D-15  6  1    14.57
  15      1.30113494    -0.83416084  -233.00927005    -0.00000000     0.00000000  0.22D-15  0.13D-15  6  4    15.58
  16      1.30113494    -0.83416084  -233.00927005     0.00000000    -0.00000000  0.35D-16  0.20D-16  6  3    16.60
  17      1.30113494    -0.83416084  -233.00927005     0.00000000    -0.00000000  0.33D-17  0.26D-17  6  5    17.61
  18      1.30113494    -0.83416084  -233.00927005    -0.00000000    -0.00000000  0.89D-18  0.35D-18  6  6    18.63
  19      1.30113494    -0.83416084  -233.00927005    -0.00000000    -0.00000000  0.22D-18  0.64D-19  6  2    19.64
  20      1.30113494    -0.83416084  -233.00927005    -0.00000000     0.00000000  0.33D-19  0.12D-19  6  1    20.65
  21      1.30113494    -0.83416084  -233.00927005    -0.00000000     0.00000000  0.40D-20  0.21D-20  6  4    21.66
  22      1.30113494    -0.83416084  -233.00927005     0.00000000    -0.00000000  0.69D-21  0.32D-21  6  3    22.67

 Norm of t1 vector:      0.06601119      S-energy:    -0.00000000      T1 diagnostic:  0.00825140
                                                                       D1 diagnostic:  0.02159428


 Total CPU time for triples:     17.74 sec


 RESULTS
 =======

  Reference energy                   -232.175109210444
  CCSD singlet pair energy             -0.581196599164
  CCSD triplet pair energy             -0.252964241838
  CCSD correlation energy              -0.834160841002

  Triples (T) contribution             -0.023279432652
  Total correlation energy             -0.857440273654

  CCSD total energy                  -233.009270051447
  CCSD[T] energy                     -233.033246619429
  CCSD-T energy                      -233.032212751178
 !CCSD(T) total energy               -233.032549484098

 Timing summary (sec):

 STEP                 CPU(USER)    SYS     CPU(TOT)    WALL
 Transformation          0.50      0.07      0.57      0.57
 CCSD iterations        22.18      0.94     23.12     26.15
 Triples                17.74      0.56     18.30     18.31

 Program statistics:

 Available memory in ccsd:               999998876
 Min. memory needed in ccsd:               1681381
 Max. memory used in ccsd:                 2239583
 Max. memory used in cckext:               2333618 (22 integral passes)



 **********************************************************************************************************************************
 DATASETS  * FILE   NREC   LENGTH (MB)   RECORD NAMES
              1      20      153.07       500      610      700      900      950      970     1000      129      960     1100   
                                          VAR    BASINP    GEOM    SYMINP    ZMAT    AOBASIS   BASIS     P2S    ABASIS      S 
                                         1400     1410     1200     1210     1080     1600     1650     1300     1700     1380   
                                           T        V       H0       H01     AOSYM     SMH    MOLCAS    ERIS     OPER     JKOP   

              2       3        0.66       700     1000     2100   
                                         GEOM     BASIS     RHF  

 PROGRAMS   *        TOTAL   CCSD(T)       RHF       INT
 CPU TIMES  *        44.71     40.43      1.91      2.31
 REAL TIME  *        52.54 SEC
 DISK USED  *       393.53 MB      
 GA USED    *         0.00 MB       (max)       0.00 MB       (current)
 **********************************************************************************************************************************

        CCSD(T)         RHF-SCF 
   -233.03254948   -232.17510921
 **********************************************************************************************************************************
 Variable memory released
