
 Primary working directories    : /tmp/943168.188.gen4.q
 Secondary working directories  : /tmp/943168.188.gen4.q
 Wavefunction directory         : /home/vulcan/mel64643/wfu/
 Main file repository           : /tmp/943168.188.gen4.q/

 ARCHNAME  : Linux/x86_64
 FC        : /opt/intel/compilers_and_libraries_2016.1.150/linux/bin/intel64/ifort
 FCVERSION : 16.0.1
 BLASLIB   : -mkl
 id        : ccgc

 Nodes     nprocs
 n066         1
 ga_uses_ma=false, calling ma_init with nominal heap.
 GA-space will be limited to   8.0 MW (determined by -G option)

 Using customized tuning parameters: mindgm=10; mindgv=16; mindgc=4; mindgr=1; noblas=0; mincuda=1000; minvec=7
 default implementation of scratch files=df  

 ***,Optimization of h2o_2
 memory,1000,m
 gthresh,energy=1.0d-12,orbital=1.0d-10,oneint=1.0d-16,twoint=1.0d-16,optgrad=1.0d-6,compress=1.0d-13
 geomtyp=xyz
 
 bohr
 geometry = {
  C    0.0003766508   -3.4224144647    0.0001317670
  H   -0.9704984318   -2.7329183345   -1.6806574366
  H   -0.9704983041   -2.7335904961    1.6811966226
  H    1.9409487108   -2.7315942940    0.0002698144
  H    0.0015491444   -5.4822259477   -0.0002800671
  C   -0.0013181705    3.4210832711    0.0015000408
  H   -0.0024962544    5.4908947529    0.0019136991
  H    0.9742700377    2.7289150911   -1.6877257892
  H    0.9695568801    2.7315872306    1.6822892996
  H   -1.9418902629    2.7302631913    0.0013620494
 }
 
 basis=AVDZ
 {rhf;maxit,200}
 {ccsd(t);maxit,200}

 Variables initialized (661), CPU time= 0.00 sec
 Commands  initialized (458), CPU time= 0.00 sec, 486 directives.
 Default parameters read. Elapsed time= 0.05 sec

 Checking input...
 Passed
1


                                         ***  PROGRAM SYSTEM MOLPRO  ***
                         Copyright, University College Cardiff Consultants Limited, 2008

                                    Version 2010.1 linked May 16 2016 07:17:05


 **********************************************************************************************************************************
 LABEL *   Optimization of h2o_2                                                         
 Linux-4.4.3/n066(x86_64) 64 bit mpp version                                             DATE: 23-Oct-23          TIME: 10:53:19  
 **********************************************************************************************************************************

 SHA1:             9e8077add272b0f3cad6f7df79ec5211205f459d
 **********************************************************************************************************************************

 THRESHOLDS:

 ZERO    =  1.00D-12  ONEINT  =  1.00D-16  TWOINT  =  1.00D-16  PREFAC  =  1.00D-14  LOCALI  =  1.00D-09  EORDER  =  1.00D-04
 ENERGY  =  1.00D-12  ETEST   =  0.00D+00  EDENS   =  0.00D+00  THRDEDEF=  1.00D-06  GRADIENT=  1.00D-02  STEP    =  1.00D-03
 ORBITAL =  1.00D-10  CIVEC   =  1.00D-05  COEFF   =  1.00D-04  PRINTCI =  5.00D-02  PUNCHCI =  9.90D+01  OPTGRAD =  1.00D-06
 OPTENERG=  1.00D-06  OPTSTEP =  3.00D-04  THRGRAD =  1.00D-10  COMPRESS=  1.00D-13  VARMIN  =  1.00D-07  VARMAX  =  1.00D-03
 THRDOUB =  0.00D+00  THRDIV  =  1.00D-05  THRRED  =  1.00D-07  THRPSP  =  1.00D+00  THRDC   =  1.00D-10  THRCS   =  1.00D-10
 THRNRM  =  1.00D-08  THREQ   =  0.00D+00  THRDE   =  1.00D+00  THRREF  =  1.00D-05  SPARFAC =  1.00D+00  THRDLP  =  1.00D-07
 THRDIA  =  1.00D-10  THRDLS  =  1.00D-07  THRGPS  =  0.00D+00  THRKEX  =  0.00D+00  THRDIS  =  2.00D-01  THRVAR  =  1.00D-10
 THRLOC  =  1.00D-06  THRGAP  =  1.00D-06  THRLOCT = -1.00D+00  THRGAPT = -1.00D+00  THRORB  =  1.00D-06  THRMLTP =  0.00D+00
 THRCPQCI=  1.00D-10  KEXTA   =  0.00D+00  THRCOARS=  0.00D+00  SYMTOL  =  1.00D-06  GRADTOL =  1.00D-06  THROVL  =  1.00D-08
 THRORTH =  1.00D-08  GRID    =  1.00D-06  GRIDMAX =  1.00D-03  DTMAX   =  0.00D+00

 SETTING GEOMTYP        =    XYZ
 ZUNIT=BOHR
 

 Variable memory set to 1000000000 words,  buffer space   230000 words

 SETTING BASIS          =    AVDZ


 Recomputing integrals since basis changed


 Using spherical harmonics

 Library entry C      S aug-cc-pVDZ          selected for orbital group  1
 Library entry C      P aug-cc-pVDZ          selected for orbital group  1
 Library entry C      D aug-cc-pVDZ          selected for orbital group  1
 Library entry H      S aug-cc-pVDZ          selected for orbital group  2
 Library entry H      P aug-cc-pVDZ          selected for orbital group  2

1PROGRAM * SEWARD (Integral evaluation for generally contracted gaussian basis sets)     Author: Roland Lindh, 1990

 Geometry written to block  1 of record 700


 Point group  C1  



 ATOMIC COORDINATES

 NR  ATOM    CHARGE       X              Y              Z

   1  C       6.00    0.000376651   -3.422414465    0.000131767
   2  H       1.00   -0.970498432   -2.732918334   -1.680657437
   3  H       1.00   -0.970498304   -2.733590496    1.681196623
   4  H       1.00    1.940948711   -2.731594294    0.000269814
   5  H       1.00    0.001549144   -5.482225948   -0.000280067
   6  C       6.00   -0.001318170    3.421083271    0.001500041
   7  H       1.00   -0.002496254    5.490894753    0.001913699
   8  H       1.00    0.974270038    2.728915091   -1.687725789
   9  H       1.00    0.969556880    2.731587231    1.682289300
  10  H       1.00   -1.941890263    2.730263191    0.001362049

 Bond lengths in Bohr (Angstrom)

 1-2  2.059867881  1-3  2.059867881  1-4  2.059867095  1-5  2.059811858  6-7  2.069811858
     ( 1.090035136)     ( 1.090035136)     ( 1.090034720)     ( 1.090005490)     ( 1.095297262)

  6- 8  2.069867881   6- 9  2.059867881   6-10  2.059867095
       ( 1.095326908)       ( 1.090035136)       ( 1.090034720)

 Bond angles

  2-1-3  109.37992579   2-1-4  109.37980976   2-1-5  109.56240831   3-1-4  109.37980975

  3-1-5  109.56240830   4-1-5  109.56250040   7-6-8  109.56240831   7-6-9  109.56240845

  7- 6-10  109.56250054   8- 6- 9  109.37992565   8- 6-10  109.37980961   9- 6-10  109.37980975

 NUCLEAR CHARGE:                   20
 NUMBER OF PRIMITIVE AOS:         162
 NUMBER OF SYMMETRY AOS:          158
 NUMBER OF CONTRACTIONS:          118   ( 118A   )
 NUMBER OF CORE ORBITALS:           2   (   2A   )
 NUMBER OF VALENCE ORBITALS:       16   (  16A   )


 NUCLEAR REPULSION ENERGY   41.30834419


 Eigenvalues of metric

         1 0.371E-03 0.572E-03 0.576E-03 0.615E-03 0.729E-03 0.732E-03 0.782E-03 0.101E-02


 Contracted 2-electron integrals neglected if value below      1.0D-16
 AO integral compression algorithm  1   Integral accuracy      1.0D-16

     210.764 MB (compressed) written to integral file ( 92.2%)

     Node minimum: 210.764 MB, node maximum: 210.764 MB


 NUMBER OF SORTED TWO-ELECTRON INTEGRALS:   24650731.     BUFFER LENGTH:  32768
 NUMBER OF SEGMENTS:   2  SEGMENT LENGTH:   15997996      RECORD LENGTH: 524288

 Memory used in sort:      16.56 MW

 SORT1 READ    28594353. AND WROTE    24444093. INTEGRALS IN     71 RECORDS. CPU TIME:     0.28 SEC, REAL TIME:     0.42 SEC
 SORT2 READ    24444093. AND WROTE    24650731. INTEGRALS IN    804 RECORDS. CPU TIME:     0.22 SEC, REAL TIME:     0.34 SEC

 FILE SIZES:   FILE 1:   188.0 MBYTE,  FILE 4:   297.8 MBYTE,   TOTAL:    485.8 MBYTE

 OPERATOR DM      FOR CENTER  0  COORDINATES:    0.000000    0.000000    0.000000


 **********************************************************************************************************************************
 DATASETS  * FILE   NREC   LENGTH (MB)   RECORD NAMES
              1      19      188.18       500      610      700      900      950      970     1000      129      960     1100   
                                          VAR    BASINP    GEOM    SYMINP    ZMAT    AOBASIS   BASIS     P2S    ABASIS      S 
                                         1400     1410     1200     1210     1080     1600     1650     1300     1700   
                                           T        V       H0       H01     AOSYM     SMH    MOLCAS    ERIS     OPER   

 PROGRAMS   *        TOTAL       INT
 CPU TIMES  *         1.62      1.58
 REAL TIME  *         2.15 SEC
 DISK USED  *       697.38 MB      
 GA USED    *         0.00 MB       (max)       0.00 MB       (current)
 **********************************************************************************************************************************

1PROGRAM * RHF-SCF (CLOSED SHELL)       Authors: W. Meyer, H.-J. Werner


 NUMBER OF ELECTRONS:      10+   10-    SPACE SYMMETRY=1    SPIN SYMMETRY: Singlet 
 CONVERGENCE THRESHOLDS:    1.00E-10 (Density)    1.00E-13 (Energy)
 MAX. NUMBER OF ITERATIONS:      200
 INTERPOLATION TYPE:            DIIS
 INTERPOLATION STEPS:              2 (START)      1 (STEP)
 LEVEL SHIFTS:                  0.00 (CLOSED)  0.00 (OPEN) 



 Orbital guess generated from atomic densities. Full valence occupancy:   18

 Molecular orbital dump at record        2100.2

 ITERATION    DDIFF          GRAD             ENERGY        2-EL.EN.            DIPOLE MOMENTS         DIIS
    1      0.000D+00      0.000D+00       -80.36241145    134.727513    0.00118    0.00172   -0.00204    0
    2      0.000D+00      0.366D-02       -80.39419185    132.430886   -0.00065   -0.00085    0.00113    1
    3      0.806D-02      0.136D-02       -80.39815462    133.256872   -0.00058   -0.00092    0.00100    2
    4      0.256D-02      0.371D-03       -80.39874118    133.125593   -0.00074   -0.00125    0.00129    3
    5      0.866D-03      0.458D-04       -80.39874991    133.132498   -0.00077   -0.00130    0.00134    4
    6      0.875D-04      0.298D-05       -80.39874996    133.132338   -0.00077   -0.00130    0.00133    5
    7      0.107D-04      0.352D-06       -80.39874996    133.132321   -0.00077   -0.00131    0.00134    5
    8      0.165D-05      0.122D-06       -80.39874996    133.132319   -0.00077   -0.00130    0.00134    5
    9      0.368D-06      0.164D-07       -80.39874996    133.132319   -0.00077   -0.00131    0.00134    5
   10      0.111D-06      0.241D-08       -80.39874996    133.132319   -0.00077   -0.00131    0.00134    5
   11      0.676D-08      0.389D-09       -80.39874996    133.132319   -0.00077   -0.00131    0.00134    5
   12      0.138D-08      0.966D-10       -80.39874996    133.132319   -0.00077   -0.00131    0.00134    6
   13      0.487D-09      0.305D-10       -80.39874996    133.132319   -0.00077   -0.00131    0.00134    6
   14      0.758D-10      0.899D-11       -80.39874996    133.132319   -0.00077   -0.00131    0.00134    0

 Final occupancy:  10

 !RHF STATE 1.1 Energy                -80.398749963807
 Nuclear energy                        41.30834419
 One-electron energy                 -188.27325387
 Two-electron energy                   66.56615972
 Virial quotient                       -1.00214953
 !RHF STATE 1.1 Dipole moment          -0.00077134    -0.00130531     0.00133697
 Dipole moment /Debye                  -0.00196043    -0.00331755     0.00339803

 Orbital energies:

         1.1          2.1          3.1          4.1          5.1          6.1          7.1          8.1          9.1         10.1
    -11.215900   -11.214662    -0.945100    -0.939011    -0.550324    -0.546639    -0.546105    -0.539163    -0.538553    -0.535011

        11.1         12.1
      0.035465     0.045886


 **********************************************************************************************************************************
 DATASETS  * FILE   NREC   LENGTH (MB)   RECORD NAMES
              1      19      188.18       500      610      700      900      950      970     1000      129      960     1100   
                                          VAR    BASINP    GEOM    SYMINP    ZMAT    AOBASIS   BASIS     P2S    ABASIS      S 
                                         1400     1410     1200     1210     1080     1600     1650     1300     1700   
                                           T        V       H0       H01     AOSYM     SMH    MOLCAS    ERIS     OPER   

              2       3        0.70       700     1000     2100   
                                         GEOM     BASIS     RHF  

 PROGRAMS   *        TOTAL       RHF       INT
 CPU TIMES  *         4.35      2.73      1.58
 REAL TIME  *         5.51 SEC
 DISK USED  *       697.38 MB      
 GA USED    *         0.00 MB       (max)       0.00 MB       (current)
 **********************************************************************************************************************************


1PROGRAM * CCSD (Closed-shell coupled cluster)     Authors: C. Hampel, H.-J. Werner, 1991, M. Deegan, P.J. Knowles, 1992


 Convergence thresholds:  THRVAR = 1.00D-08  THRDEN = 1.00D-12

 CCSD(T)     terms to be evaluated (factor= 1.000)


 Number of core orbitals:           2 (   2 )
 Number of closed-shell orbitals:   8 (   8 )
 Number of external orbitals:     108 ( 108 )

 Molecular orbitals read from record     2100.2  Type=RHF/CANONICAL (state 1.1)

 Number of N-1 electron functions:               8
 Number of N-2 electron functions:              36
 Number of singly external CSFs:               864
 Number of doubly external CSFs:            373680
 Total number of CSFs:                      374545

 Length of J-op  integral file:               0.00 MB
 Length of K-op  integral file:               1.00 MB
 Length of 3-ext integral record:             0.00 MB

 Memory could be reduced to 14.62 Mwords without degradation in triples

 Integral transformation finished. Total CPU:   0.73 sec, npass=  1  Memory used:   8.61 MW

 Reference energy:                    -80.39874996

 MP2 singlet pair energy:              -0.24118906
 MP2 triplet pair energy:              -0.09676246
 MP2 correlation energy:               -0.33795153
 MP2 total energy:                    -80.73670149

 SCS-MP2 correlation energy:           -0.34963463   (PS=  1.200000  PT=  0.333333)
 SCS-MP2 total energy:                -80.74838459

 ITER.      SQ.NORM     CORR.ENERGY   TOTAL ENERGY   ENERGY CHANGE        DEN1      VAR(S)    VAR(P)  DIIS     TIME
   1      1.14065752    -0.38163276   -80.78038273    -0.04368124    -0.03252662  0.70D-03  0.24D-02  1  1     1.58
   2      1.15375610    -0.38439838   -80.78314834    -0.00276562    -0.01272099  0.16D-04  0.11D-03  2  2     2.48
   3      1.15588104    -0.38453255   -80.78328251    -0.00013417    -0.00113581  0.25D-05  0.72D-05  3  3     3.39
   4      1.15633160    -0.38455080   -80.78330076    -0.00001825    -0.00017808  0.10D-06  0.45D-06  4  4     4.30
   5      1.15640304    -0.38454748   -80.78329744     0.00000332    -0.00003230  0.39D-08  0.31D-07  5  5     5.21
   6      1.15640691    -0.38454648   -80.78329644     0.00000100    -0.00000140  0.28D-09  0.21D-08  6  6     6.12
   7      1.15640729    -0.38454670   -80.78329666    -0.00000022    -0.00000002  0.25D-10  0.14D-09  6  1     7.03
   8      1.15640735    -0.38454672   -80.78329668    -0.00000002    -0.00000007  0.25D-11  0.98D-11  6  2     7.92
   9      1.15640729    -0.38454672   -80.78329669    -0.00000000     0.00000003  0.46D-12  0.76D-12  6  3     8.83
  10      1.15640725    -0.38454672   -80.78329669    -0.00000000     0.00000002  0.37D-13  0.67D-13  6  4     9.74
  11      1.15640722    -0.38454672   -80.78329669    -0.00000000     0.00000002  0.34D-14  0.73D-14  6  5    10.65
  12      1.15640721    -0.38454672   -80.78329669    -0.00000000     0.00000001  0.29D-15  0.88D-15  6  6    11.56
  13      1.15640721    -0.38454672   -80.78329669    -0.00000000     0.00000000  0.24D-16  0.11D-15  6  1    12.46
  14      1.15640720    -0.38454672   -80.78329669    -0.00000000     0.00000000  0.27D-17  0.12D-16  6  3    13.38
  15      1.15640720    -0.38454672   -80.78329669    -0.00000000     0.00000000  0.20D-18  0.62D-18  6  2    14.28
  16      1.15640720    -0.38454672   -80.78329669    -0.00000000     0.00000000  0.27D-19  0.48D-19  6  4    15.19
  17      1.15640720    -0.38454672   -80.78329669    -0.00000000     0.00000000  0.34D-20  0.61D-20  6  5    16.10
  18      1.15640720    -0.38454672   -80.78329669    -0.00000000     0.00000000  0.39D-21  0.51D-21  6  6    17.01

 Norm of t1 vector:      0.03921252      S-energy:    -0.00000000      T1 diagnostic:  0.00693186
                                                                       D1 diagnostic:  0.01254848


 Total CPU time for triples:     10.66 sec


 RESULTS
 =======

  Reference energy                    -80.398749963807
  CCSD singlet pair energy             -0.290347960654
  CCSD triplet pair energy             -0.094198764110
  CCSD correlation energy              -0.384546724764

  Triples (T) contribution             -0.009237893191
  Total correlation energy             -0.393784617954

  CCSD total energy                   -80.783296688571
  CCSD[T] energy                      -80.792756587566
  CCSD-T energy                       -80.792416821552
 !CCSD(T) total energy                -80.792534581761

 Timing summary (sec):

 STEP                 CPU(USER)    SYS     CPU(TOT)    WALL
 Transformation          0.74      0.08      0.82      0.82
 CCSD iterations        16.27      0.81     17.08     17.11
 Triples                10.66      0.21     10.87     10.88

 Program statistics:

 Available memory in ccsd:               999999644
 Min. memory needed in ccsd:               1156281
 Max. memory used in ccsd:                 1468601
 Max. memory used in cckext:               1135046 (18 integral passes)



 **********************************************************************************************************************************
 DATASETS  * FILE   NREC   LENGTH (MB)   RECORD NAMES
              1      20      235.15       500      610      700      900      950      970     1000      129      960     1100   
                                          VAR    BASINP    GEOM    SYMINP    ZMAT    AOBASIS   BASIS     P2S    ABASIS      S 
                                         1400     1410     1200     1210     1080     1600     1650     1300     1700     1380   
                                           T        V       H0       H01     AOSYM     SMH    MOLCAS    ERIS     OPER     JKOP   

              2       3        0.70       700     1000     2100   
                                         GEOM     BASIS     RHF  

 PROGRAMS   *        TOTAL   CCSD(T)       RHF       INT
 CPU TIMES  *        32.03     27.68      2.73      1.58
 REAL TIME  *        34.36 SEC
 DISK USED  *       697.38 MB      
 GA USED    *         0.00 MB       (max)       0.00 MB       (current)
 **********************************************************************************************************************************

        CCSD(T)         RHF-SCF 
    -80.79253458    -80.39874996
 **********************************************************************************************************************************
 Variable memory released
