
 Primary working directories    : /tmp/1049102.1755.gen4.q
 Secondary working directories  : /tmp/1049102.1755.gen4.q
 Wavefunction directory         : /home/vulcan/mel64643/wfu/
 Main file repository           : /tmp/1049102.1755.gen4.q/

 ARCHNAME  : Linux/x86_64
 FC        : /opt/intel/compilers_and_libraries_2016.1.150/linux/bin/intel64/ifort
 FCVERSION : 16.0.1
 BLASLIB   : -mkl
 id        : ccgc

 Nodes     nprocs
 n054         1
 ga_uses_ma=false, calling ma_init with nominal heap.
 GA-space will be limited to   8.0 MW (determined by -G option)

 Using customized tuning parameters: mindgm=10; mindgv=16; mindgc=4; mindgr=1; noblas=0; mincuda=1000; minvec=7
 default implementation of scratch files=df  

 ***,Optimization of h2o_3
 memory,1000,m
 gthresh,energy=1.0d-12,orbital=1.0d-10,oneint=1.0d-16,twoint=1.0d-16,optgrad=1.0d-6,compress=1.0d-13
 geomtyp=xyz
 
 
 
 bohr
 geometry = {
  C    0.9189480240    1.4065788559   -2.2729467289
  C    0.7434753305    2.7103807621    0.0185625257
  C    1.0016887345    1.4068826263    2.3025636638
  C    1.4337766362   -1.2004691693    2.2950567543
  C    1.6099767651   -2.5037798046    0.0035897046
  C    1.3518219023   -1.2000580619   -2.2802072997
  H    0.6932365396    2.4130736791   -4.0423095349
  H    0.3930904922    4.7280220014    0.0244241752
  H    0.8439567685    2.4141069074    4.0790932665
  H    1.6312769069   -2.2108344759    4.0660022522
  H    1.9263437623   -4.5275135398   -0.0019690490
  H    1.4859740114   -2.2106893817   -4.0570251974
  N   -5.4396273782   -0.3579654684   -0.0706121537
  H   -5.5880150300   -1.5693261169   -1.5511122213
  H   -6.0659836376   -1.3163077947    1.4689976498
  H   -3.5590079607   -0.0738906169    0.1979698698
 }
 
 basis=aug-cc-pvdz, H=cc-pvdz
 {rhf;maxit,200}
 {ccsd(t)}

 Variables initialized (661), CPU time= 0.00 sec
 Commands  initialized (458), CPU time= 0.00 sec, 486 directives.
 Default parameters read. Elapsed time= 0.05 sec

 Checking input...
 Passed
1


                                         ***  PROGRAM SYSTEM MOLPRO  ***
                         Copyright, University College Cardiff Consultants Limited, 2008

                                    Version 2010.1 linked May 16 2016 07:17:05


 **********************************************************************************************************************************
 LABEL *   Optimization of h2o_3                                                         
 Linux-4.4.3/n054(x86_64) 64 bit mpp version                                             DATE: 21-Mar-24          TIME: 17:55:52  
 **********************************************************************************************************************************

 SHA1:             9e8077add272b0f3cad6f7df79ec5211205f459d
 **********************************************************************************************************************************

 THRESHOLDS:

 ZERO    =  1.00D-12  ONEINT  =  1.00D-16  TWOINT  =  1.00D-16  PREFAC  =  1.00D-14  LOCALI  =  1.00D-09  EORDER  =  1.00D-04
 ENERGY  =  1.00D-12  ETEST   =  0.00D+00  EDENS   =  0.00D+00  THRDEDEF=  1.00D-06  GRADIENT=  1.00D-02  STEP    =  1.00D-03
 ORBITAL =  1.00D-10  CIVEC   =  1.00D-05  COEFF   =  1.00D-04  PRINTCI =  5.00D-02  PUNCHCI =  9.90D+01  OPTGRAD =  1.00D-06
 OPTENERG=  1.00D-06  OPTSTEP =  3.00D-04  THRGRAD =  1.00D-10  COMPRESS=  1.00D-13  VARMIN  =  1.00D-07  VARMAX  =  1.00D-03
 THRDOUB =  0.00D+00  THRDIV  =  1.00D-05  THRRED  =  1.00D-07  THRPSP  =  1.00D+00  THRDC   =  1.00D-10  THRCS   =  1.00D-10
 THRNRM  =  1.00D-08  THREQ   =  0.00D+00  THRDE   =  1.00D+00  THRREF  =  1.00D-05  SPARFAC =  1.00D+00  THRDLP  =  1.00D-07
 THRDIA  =  1.00D-10  THRDLS  =  1.00D-07  THRGPS  =  0.00D+00  THRKEX  =  0.00D+00  THRDIS  =  2.00D-01  THRVAR  =  1.00D-10
 THRLOC  =  1.00D-06  THRGAP  =  1.00D-06  THRLOCT = -1.00D+00  THRGAPT = -1.00D+00  THRORB  =  1.00D-06  THRMLTP =  0.00D+00
 THRCPQCI=  1.00D-10  KEXTA   =  0.00D+00  THRCOARS=  0.00D+00  SYMTOL  =  1.00D-06  GRADTOL =  1.00D-06  THROVL  =  1.00D-08
 THRORTH =  1.00D-08  GRID    =  1.00D-06  GRIDMAX =  1.00D-03  DTMAX   =  0.00D+00

 SETTING GEOMTYP        =    XYZ
 ZUNIT=BOHR
 

 Variable memory set to 1000000000 words,  buffer space   230000 words

 SETTING BASIS          =    AUG-CC-PVDZ,H=CC-PVDZ


 Recomputing integrals since basis changed


 Using spherical harmonics

 Library entry C      S aug-cc-pVDZ          selected for orbital group  1
 Library entry C      P aug-cc-pVDZ          selected for orbital group  1
 Library entry C      D aug-cc-pVDZ          selected for orbital group  1
 Library entry H      S cc-pVDZ              selected for orbital group  2
 Library entry H      P cc-pVDZ              selected for orbital group  2
 Library entry N      S aug-cc-pVDZ          selected for orbital group  3
 Library entry N      P aug-cc-pVDZ          selected for orbital group  3
 Library entry N      D aug-cc-pVDZ          selected for orbital group  3

1PROGRAM * SEWARD (Integral evaluation for generally contracted gaussian basis sets)     Author: Roland Lindh, 1990

 Geometry written to block  1 of record 700


 Point group  C1  



 ATOMIC COORDINATES

 NR  ATOM    CHARGE       X              Y              Z

   1  C       6.00    0.918948024    1.406578856   -2.272946729
   2  C       6.00    0.743475331    2.710380762    0.018562526
   3  C       6.00    1.001688735    1.406882626    2.302563664
   4  C       6.00    1.433776636   -1.200469169    2.295056754
   5  C       6.00    1.609976765   -2.503779805    0.003589705
   6  C       6.00    1.351821902   -1.200058062   -2.280207300
   7  H       1.00    0.693236540    2.413073679   -4.042309535
   8  H       1.00    0.393090492    4.728022001    0.024424175
   9  H       1.00    0.843956769    2.414106907    4.079093267
  10  H       1.00    1.631276907   -2.210834476    4.066002252
  11  H       1.00    1.926343762   -4.527513540   -0.001969049
  12  H       1.00    1.485974011   -2.210689382   -4.057025197
  13  N       7.00   -5.439627378   -0.357965468   -0.070612154
  14  H       1.00   -5.588015030   -1.569326117   -1.551112221
  15  H       1.00   -6.065983638   -1.316307795    1.468997650
  16  H       1.00   -3.559007961   -0.073890617    0.197969870

 Bond lengths in Bohr (Angstrom)

 1-2  2.642291570  1-6  2.642345271  1-7  2.048077694  2-3  2.642431220  2-8  2.047847666
     ( 1.398240478)     ( 1.398268896)     ( 1.083796038)     ( 1.398314378)     ( 1.083674313)

  3- 4  2.642922567   3- 9  2.048276728   4- 5  2.642061002   4-10  2.048436566   5- 6  2.642359376
       ( 1.398574388)       ( 1.083901362)       ( 1.398118467)       ( 1.083985945)       ( 1.398276360)

  5-11  2.048320582   6-12  2.048524907  13-14  1.918669843  13-15  1.918629856  13-16  1.920823838
       ( 1.083924569)       ( 1.084032693)       ( 1.015316352)       ( 1.015295192)       ( 1.016456198)

 Bond angles

  1- 2- 3  119.98067277   1- 2- 8  120.00017334   1- 6- 5  120.02353234   1- 6-12  119.98613468

  2-1-6  120.00199068   2-1-7  119.96120352   2-3-4  120.01167899   2-3-9  119.97234141

  3- 2- 8  120.01747688   3- 4- 5  120.00136230   3- 4-10  119.99378408   4- 3- 9  120.01173276

  4- 5- 6  119.98073498   4- 5-11  120.00172793   5- 4-10  120.00484891   5- 6-12  119.99031844

  6- 1- 7  120.03130610   6- 5-11  120.01421396  14-13-15  106.17607583  14-13-16  106.08043224

 15-13-16  106.33745550

 NUCLEAR CHARGE:                   52
 NUMBER OF PRIMITIVE AOS:         322
 NUMBER OF SYMMETRY AOS:          308
 NUMBER OF CONTRACTIONS:          206   ( 206A   )
 NUMBER OF CORE ORBITALS:           7   (   7A   )
 NUMBER OF VALENCE ORBITALS:       37   (  37A   )


 NUCLEAR REPULSION ENERGY  273.71635527


 Eigenvalues of metric

         1 0.861E-05 0.184E-04 0.228E-04 0.532E-04 0.643E-04 0.644E-04 0.107E-03 0.108E-03


 Contracted 2-electron integrals neglected if value below      1.0D-16
 AO integral compression algorithm  1   Integral accuracy      1.0D-16

     1892.418 MB (compressed) written to integral file ( 94.5%)

     Node minimum: 1892.418 MB, node maximum: 1892.418 MB


 NUMBER OF SORTED TWO-ELECTRON INTEGRALS:  227303181.     BUFFER LENGTH:  32768
 NUMBER OF SEGMENTS:  15  SEGMENT LENGTH:   15999503      RECORD LENGTH: 524288

 Memory used in sort:      16.56 MW

 SORT1 READ   250230697. AND WROTE   226412331. INTEGRALS IN    654 RECORDS. CPU TIME:     2.38 SEC, REAL TIME:     3.65 SEC
 SORT2 READ   226412331. AND WROTE   227303181. INTEGRALS IN   7219 RECORDS. CPU TIME:     1.41 SEC, REAL TIME:     2.31 SEC

 FILE SIZES:   FILE 1:  1743.3 MBYTE,  FILE 4:  2743.1 MBYTE,   TOTAL:   4486.4 MBYTE

 OPERATOR DM      FOR CENTER  0  COORDINATES:    0.000000    0.000000    0.000000


 **********************************************************************************************************************************
 DATASETS  * FILE   NREC   LENGTH (MB)   RECORD NAMES
              1      19     1743.77       500      610      700      900      950      970     1000      129      960     1100   
                                          VAR    BASINP    GEOM    SYMINP    ZMAT    AOBASIS   BASIS     P2S    ABASIS      S 
                                         1400     1410     1200     1210     1080     1600     1650     1300     1700   
                                           T        V       H0       H01     AOSYM     SMH    MOLCAS    ERIS     OPER   

 PROGRAMS   *        TOTAL       INT
 CPU TIMES  *        14.63     14.58
 REAL TIME  *        18.37 SEC
 DISK USED  *         6.38 GB      
 GA USED    *         0.01 MB       (max)       0.00 MB       (current)
 **********************************************************************************************************************************

1PROGRAM * RHF-SCF (CLOSED SHELL)       Authors: W. Meyer, H.-J. Werner


 NUMBER OF ELECTRONS:      26+   26-    SPACE SYMMETRY=1    SPIN SYMMETRY: Singlet 
 CONVERGENCE THRESHOLDS:    1.00E-10 (Density)    1.00E-13 (Energy)
 MAX. NUMBER OF ITERATIONS:      200
 INTERPOLATION TYPE:            DIIS
 INTERPOLATION STEPS:              2 (START)      1 (STEP)
 LEVEL SHIFTS:                  0.00 (CLOSED)  0.00 (OPEN) 



 Orbital guess generated from atomic densities. Full valence occupancy:   44

 Molecular orbital dump at record        2100.2

 ITERATION    DDIFF          GRAD             ENERGY        2-EL.EN.            DIPOLE MOMENTS         DIIS
    1      0.000D+00      0.000D+00      -286.85323981    740.894127    0.51369   -0.76881    0.13632    0
    2      0.000D+00      0.322D-02      -286.92079652    735.103374    0.42868   -0.38531    0.06247    1
    3      0.826D-02      0.133D-02      -286.93012452    737.735137    0.44474   -0.52388    0.09251    2
    4      0.217D-02      0.381D-03      -286.93134253    737.215299    0.44313   -0.49717    0.08474    3
    5      0.784D-03      0.526D-04      -286.93136633    737.204043    0.44888   -0.50728    0.08871    4
    6      0.135D-03      0.177D-04      -286.93136876    737.218942    0.44772   -0.50178    0.08662    5
    7      0.511D-04      0.554D-05      -286.93136904    737.215859    0.44837   -0.50400    0.08737    6
    8      0.150D-04      0.129D-05      -286.93136906    737.214855    0.44852   -0.50364    0.08723    7
    9      0.417D-05      0.542D-06      -286.93136906    737.215313    0.44855   -0.50373    0.08727    7
   10      0.148D-05      0.143D-06      -286.93136906    737.215262    0.44856   -0.50374    0.08726    7
   11      0.518D-06      0.411D-07      -286.93136906    737.215247    0.44857   -0.50373    0.08726    7
   12      0.143D-06      0.175D-07      -286.93136906    737.215261    0.44856   -0.50374    0.08726    8
   13      0.617D-07      0.771D-08      -286.93136906    737.215256    0.44856   -0.50374    0.08726    8
   14      0.345D-07      0.366D-08      -286.93136906    737.215258    0.44856   -0.50374    0.08726    8
   15      0.204D-07      0.138D-08      -286.93136906    737.215258    0.44856   -0.50374    0.08726    8
   16      0.713D-08      0.456D-09      -286.93136906    737.215258    0.44856   -0.50374    0.08726    9
   17      0.212D-08      0.124D-09      -286.93136906    737.215258    0.44856   -0.50374    0.08726    9
   18      0.390D-09      0.384D-10      -286.93136906    737.215258    0.44856   -0.50374    0.08726    8
   19      0.210D-09      0.159D-10      -286.93136906    737.215258    0.44856   -0.50374    0.08726    9
   20      0.172D-09      0.847D-11      -286.93136906    737.215258    0.44856   -0.50374    0.08726    9
   21      0.113D-09      0.413D-11      -286.93136906    737.215258    0.44856   -0.50374    0.08726    9
   22      0.177D-09      0.122D-11      -286.93136906    737.215258    0.44856   -0.50374    0.08726    9
   23      0.114D-09      0.739D-12      -286.93136906    737.215258    0.44856   -0.50374    0.08726    9
   24      0.117D-09      0.555D-12      -286.93136906    737.215258    0.44856   -0.50374    0.08726    9
   25      0.664D-10      0.546D-12      -286.93136906    737.215258    0.44856   -0.50374    0.08726    9
   26      0.431D-10      0.541D-12      -286.93136906    737.215258    0.44856   -0.50374    0.08726    0

 Final occupancy:  26

 !RHF STATE 1.1 Energy               -286.931369062542
 Nuclear energy                       273.71635527
 One-electron energy                 -929.25535315
 Two-electron energy                  368.60762881
 Virial quotient                       -1.00146535
 !RHF STATE 1.1 Dipole moment           0.44856365    -0.50373587     0.08726402
 Dipole moment /Debye                   1.14006040    -1.28028502     0.22178848

 Orbital energies:

         1.1          2.1          3.1          4.1          5.1          6.1          7.1          8.1          9.1         10.1
    -15.535072   -11.250632   -11.250027   -11.249674   -11.248804   -11.248661   -11.247832    -1.157505    -1.125626    -1.022057

        11.1         12.1         13.1         14.1         15.1         16.1         17.1         18.1         19.1         20.1
     -1.021952    -0.830638    -0.830539    -0.714498    -0.650455    -0.623922    -0.611739    -0.609886    -0.593574    -0.593454

        21.1         22.1         23.1         24.1         25.1         26.1         27.1         28.1
     -0.504908    -0.500101    -0.500024    -0.413502    -0.342975    -0.341991     0.063931     0.066425


 **********************************************************************************************************************************
 DATASETS  * FILE   NREC   LENGTH (MB)   RECORD NAMES
              1      19     1743.77       500      610      700      900      950      970     1000      129      960     1100   
                                          VAR    BASINP    GEOM    SYMINP    ZMAT    AOBASIS   BASIS     P2S    ABASIS      S 
                                         1400     1410     1200     1210     1080     1600     1650     1300     1700   
                                           T        V       H0       H01     AOSYM     SMH    MOLCAS    ERIS     OPER   

              2       3        1.40       700     1000     2100   
                                         GEOM     BASIS     RHF  

 PROGRAMS   *        TOTAL       RHF       INT
 CPU TIMES  *        60.09     45.45     14.58
 REAL TIME  *        68.86 SEC
 DISK USED  *         6.38 GB      
 GA USED    *         0.01 MB       (max)       0.00 MB       (current)
 **********************************************************************************************************************************


1PROGRAM * CCSD (Closed-shell coupled cluster)     Authors: C. Hampel, H.-J. Werner, 1991, M. Deegan, P.J. Knowles, 1992


 Convergence thresholds:  THRVAR = 1.00D-08  THRDEN = 1.00D-12

 CCSD(T)     terms to be evaluated (factor= 1.000)


 Number of core orbitals:           7 (   7 )
 Number of closed-shell orbitals:  19 (  19 )
 Number of external orbitals:     180 ( 180 )

 Molecular orbitals read from record     2100.2  Type=RHF/CANONICAL (state 1.1)

 Number of N-1 electron functions:              19
 Number of N-2 electron functions:             190
 Number of singly external CSFs:              3420
 Number of doubly external CSFs:           5849910
 Total number of CSFs:                     5853331

 Length of J-op  integral file:               0.00 MB
 Length of K-op  integral file:               2.96 MB
 Length of 3-ext integral record:             0.00 MB

 Memory could be reduced to 140.12 Mwords without degradation in triples

 Integral transformation finished. Total CPU:  13.92 sec, npass=  1  Memory used: 101.90 MW

 Reference energy:                   -286.93136906

 MP2 singlet pair energy:              -0.62063086
 MP2 triplet pair energy:              -0.38983344
 MP2 correlation energy:               -1.01046431
 MP2 total energy:                   -287.94183337

 SCS-MP2 correlation energy:           -0.98732007   (PS=  1.200000  PT=  0.333333)
 SCS-MP2 total energy:               -287.91868913

 ITER.      SQ.NORM     CORR.ENERGY   TOTAL ENERGY   ENERGY CHANGE        DEN1      VAR(S)    VAR(P)  DIIS     TIME
   1      1.38488283    -1.05475703  -287.98612609    -0.04429272    -0.01721415  0.36D-02  0.80D-02  1  1    50.82
   2      1.41439602    -1.06061988  -287.99198894    -0.00586285    -0.02705296  0.63D-04  0.10D-02  2  2    88.19
   3      1.42352743    -1.06071562  -287.99208469    -0.00009574    -0.00464356  0.27D-04  0.84D-04  3  3   125.58
   4      1.42746494    -1.06088437  -287.99225344    -0.00016875    -0.00121418  0.22D-05  0.11D-04  4  4   163.04
   5      1.42867862    -1.06091532  -287.99228439    -0.00003095    -0.00027322  0.27D-06  0.13D-05  5  5   200.56
   6      1.42898121    -1.06090509  -287.99227415     0.00001024    -0.00004348  0.23D-07  0.79D-07  6  6   238.12
   7      1.42902195    -1.06090672  -287.99227578    -0.00000163    -0.00000103  0.35D-08  0.82D-08  6  2   275.66
   8      1.42903114    -1.06090658  -287.99227564     0.00000014    -0.00000117  0.75D-09  0.76D-09  6  1   313.21
   9      1.42903097    -1.06090671  -287.99227577    -0.00000014     0.00000123  0.21D-09  0.92D-10  6  4   350.75
  10      1.42903217    -1.06090672  -287.99227579    -0.00000001    -0.00000018  0.57D-10  0.15D-10  6  3   388.29
  11      1.42903211    -1.06090674  -287.99227580    -0.00000002     0.00000013  0.14D-10  0.37D-11  6  5   425.81
  12      1.42903207    -1.06090674  -287.99227580    -0.00000000     0.00000003  0.15D-11  0.10D-11  6  6   463.36
  13      1.42903189    -1.06090675  -287.99227581    -0.00000000     0.00000006  0.69D-13  0.20D-12  6  2   500.90
  14      1.42903179    -1.06090675  -287.99227581    -0.00000000     0.00000002  0.81D-14  0.40D-13  6  1   538.45
  15      1.42903173    -1.06090675  -287.99227581    -0.00000000     0.00000001  0.89D-15  0.53D-14  6  3   575.96
  16      1.42903171    -1.06090675  -287.99227581    -0.00000000     0.00000000  0.12D-15  0.37D-15  6  4   613.50
  17      1.42903171    -1.06090675  -287.99227581    -0.00000000     0.00000000  0.31D-16  0.44D-16  6  5   651.04
  18      1.42903171    -1.06090675  -287.99227581    -0.00000000     0.00000000  0.81D-17  0.70D-17  6  6   688.57
  19      1.42903171    -1.06090675  -287.99227581    -0.00000000     0.00000000  0.24D-17  0.76D-18  6  2   726.10
  20      1.42903171    -1.06090675  -287.99227581    -0.00000000     0.00000000  0.75D-18  0.18D-18  6  1   763.65
  21      1.42903171    -1.06090675  -287.99227581    -0.00000000     0.00000000  0.30D-18  0.79D-19  6  3   801.19
  22      1.42903171    -1.06090675  -287.99227581    -0.00000000     0.00000000  0.12D-18  0.37D-19  6  4   838.74
  23      1.42903171    -1.06090675  -287.99227581    -0.00000000     0.00000000  0.50D-19  0.19D-19  6  5   876.29

 Norm of t1 vector:      0.08385998      S-energy:    -0.00000000      T1 diagnostic:  0.00961940
                                                                       D1 diagnostic:  0.02619030

 Doubles amplitudes (print threshold =  0.500E-01):

         I         J         SYM. A    SYM. B    A         B      T(IJ, AB)

        18        18         1         1         6         6     -0.05109842
        19        19         1         1         7         7     -0.05455312


 Total CPU time for triples:    734.38 sec


 RESULTS
 =======

  Reference energy                   -286.931369062540
  CCSD singlet pair energy             -0.711155496781
  CCSD triplet pair energy             -0.349751250285
  CCSD correlation energy              -1.060906747066

  Triples (T) contribution             -0.045602735706
  Total correlation energy             -1.106509482773

  CCSD total energy                  -287.992275809606
  CCSD[T] energy                     -288.038748744436
  CCSD-T energy                      -288.037490013312
 !CCSD(T) total energy               -288.037878545312

 Timing summary (sec):

 STEP                 CPU(USER)    SYS     CPU(TOT)    WALL
 Transformation         14.33      0.87     15.20     15.21
 CCSD iterations       861.98     12.35    874.33    874.41
 Triples               734.38     11.39    745.77    745.76

 Program statistics:

 Available memory in ccsd:               999998456
 Min. memory needed in ccsd:              14392275
 Max. memory used in ccsd:                19775697
 Max. memory used in cckext:              16737545 (23 integral passes)



 **********************************************************************************************************************************
 DATASETS  * FILE   NREC   LENGTH (MB)   RECORD NAMES
              1      20     2287.37       500      610      700      900      950      970     1000      129      960     1100   
                                          VAR    BASINP    GEOM    SYMINP    ZMAT    AOBASIS   BASIS     P2S    ABASIS      S 
                                         1400     1410     1200     1210     1080     1600     1650     1300     1700     1380   
                                           T        V       H0       H01     AOSYM     SMH    MOLCAS    ERIS     OPER     JKOP   

              2       3        1.40       700     1000     2100   
                                         GEOM     BASIS     RHF  

 PROGRAMS   *        TOTAL   CCSD(T)       RHF       INT
 CPU TIMES  *      1670.79   1610.70     45.45     14.58
 REAL TIME  *      1704.36 SEC
 DISK USED  *         6.38 GB      
 GA USED    *         0.01 MB       (max)       0.00 MB       (current)
 **********************************************************************************************************************************

        CCSD(T)         RHF-SCF 
   -288.03787855   -286.93136906
 **********************************************************************************************************************************
 Variable memory released
