
 Primary working directories    : /tmp/916840.112.gen6.q
 Secondary working directories  : /tmp/916840.112.gen6.q
 Wavefunction directory         : /home/vulcan/lo21740/wfu/
 Main file repository           : /tmp/916840.112.gen6.q/

 ARCHNAME  : Linux/x86_64
 FC        : /opt/intel/compilers_and_libraries_2016.1.150/linux/bin/intel64/ifort
 FCVERSION : 16.0.1
 BLASLIB   : -mkl
 id        : ccgc

 Nodes     nprocs
 n081         1
 ga_uses_ma=false, calling ma_init with nominal heap.
 GA-space will be limited to   8.0 MW (determined by -G option)

 Using customized tuning parameters: mindgm=10; mindgv=16; mindgc=4; mindgr=1; noblas=0; mincuda=1000; minvec=7
 default implementation of scratch files=df  

 ***,Optimization of h2o_2
 memory,1000,m
 gthresh,energy=1.0d-12,orbital=1.0d-10,oneint=1.0d-16,twoint=1.0d-16,optgrad=1.0d-6,compress=1.0d-13
 geomtyp=xyz
 
 bohr
 geometry = {
  O   -2.8091245703   -0.2027220728    0.0039327268
  H   -3.5738391973    1.4439705614   -0.0049907312
  H   -1.0070988495    0.1086975855    0.0019145555
  O    2.6824341236    0.1966201595    0.0008046072
  H    3.3358215252   -0.7010455106   -1.4396557702
  H    3.3367949763   -0.7055669690    1.4379946118
 }
 
 basis=aug-cc-pvdz, H=cc-pvdz
 {rhf;maxit,200}
 {ccsd(t);maxit,200}

 Variables initialized (661), CPU time= 0.00 sec
 Commands  initialized (458), CPU time= 0.01 sec, 486 directives.
 Default parameters read. Elapsed time= 0.04 sec

 Checking input...
 Passed
1


                                         ***  PROGRAM SYSTEM MOLPRO  ***
                         Copyright, University College Cardiff Consultants Limited, 2008

                                    Version 2010.1 linked May 16 2016 07:17:05


 **********************************************************************************************************************************
 LABEL *   Optimization of h2o_2                                                         
 Linux-4.4.3/n081(x86_64) 64 bit mpp version                                             DATE: 18-Jul-23          TIME: 11:15:26  
 **********************************************************************************************************************************

 SHA1:             9e8077add272b0f3cad6f7df79ec5211205f459d
 **********************************************************************************************************************************

 THRESHOLDS:

 ZERO    =  1.00D-12  ONEINT  =  1.00D-16  TWOINT  =  1.00D-16  PREFAC  =  1.00D-14  LOCALI  =  1.00D-09  EORDER  =  1.00D-04
 ENERGY  =  1.00D-12  ETEST   =  0.00D+00  EDENS   =  0.00D+00  THRDEDEF=  1.00D-06  GRADIENT=  1.00D-02  STEP    =  1.00D-03
 ORBITAL =  1.00D-10  CIVEC   =  1.00D-05  COEFF   =  1.00D-04  PRINTCI =  5.00D-02  PUNCHCI =  9.90D+01  OPTGRAD =  1.00D-06
 OPTENERG=  1.00D-06  OPTSTEP =  3.00D-04  THRGRAD =  1.00D-10  COMPRESS=  1.00D-13  VARMIN  =  1.00D-07  VARMAX  =  1.00D-03
 THRDOUB =  0.00D+00  THRDIV  =  1.00D-05  THRRED  =  1.00D-07  THRPSP  =  1.00D+00  THRDC   =  1.00D-10  THRCS   =  1.00D-10
 THRNRM  =  1.00D-08  THREQ   =  0.00D+00  THRDE   =  1.00D+00  THRREF  =  1.00D-05  SPARFAC =  1.00D+00  THRDLP  =  1.00D-07
 THRDIA  =  1.00D-10  THRDLS  =  1.00D-07  THRGPS  =  0.00D+00  THRKEX  =  0.00D+00  THRDIS  =  2.00D-01  THRVAR  =  1.00D-10
 THRLOC  =  1.00D-06  THRGAP  =  1.00D-06  THRLOCT = -1.00D+00  THRGAPT = -1.00D+00  THRORB  =  1.00D-06  THRMLTP =  0.00D+00
 THRCPQCI=  1.00D-10  KEXTA   =  0.00D+00  THRCOARS=  0.00D+00  SYMTOL  =  1.00D-06  GRADTOL =  1.00D-06  THROVL  =  1.00D-08
 THRORTH =  1.00D-08  GRID    =  1.00D-06  GRIDMAX =  1.00D-03  DTMAX   =  0.00D+00

 SETTING GEOMTYP        =    XYZ
 ZUNIT=BOHR
 

 Variable memory set to 1000000000 words,  buffer space   230000 words

 SETTING BASIS          =    AUG-CC-PVDZ,H=CC-PVDZ


 Recomputing integrals since basis changed


 Using spherical harmonics

 Library entry O      S aug-cc-pVDZ          selected for orbital group  1
 Library entry O      P aug-cc-pVDZ          selected for orbital group  1
 Library entry O      D aug-cc-pVDZ          selected for orbital group  1
 Library entry H      S cc-pVDZ              selected for orbital group  2
 Library entry H      P cc-pVDZ              selected for orbital group  2

1PROGRAM * SEWARD (Integral evaluation for generally contracted gaussian basis sets)     Author: Roland Lindh, 1990

 Geometry written to block  1 of record 700


 Point group  C1  



 ATOMIC COORDINATES

 NR  ATOM    CHARGE       X              Y              Z

   1  O       8.00   -2.809124570   -0.202722073    0.003932727
   2  H       1.00   -3.573839197    1.443970561   -0.004990731
   3  H       1.00   -1.007098849    0.108697585    0.001914556
   4  O       8.00    2.682434124    0.196620160    0.000804607
   5  H       1.00    3.335821525   -0.701045511   -1.439655770
   6  H       1.00    3.336794976   -0.705566969    1.437994612

 Bond lengths in Bohr (Angstrom)

 1-2  1.815616898  1-3  1.828738083  4-5  1.818693171  4-6  1.818693171
     ( 0.960783083)     ( 0.967726515)     ( 0.962410976)     ( 0.962410976)

 Bond angles

  2-1-3  105.10455826   5-4-6  104.58292009

 NUCLEAR CHARGE:                   20
 NUMBER OF PRIMITIVE AOS:         102
 NUMBER OF SYMMETRY AOS:           98
 NUMBER OF CONTRACTIONS:           66   (  66A   )
 NUMBER OF CORE ORBITALS:           2   (   2A   )
 NUMBER OF VALENCE ORBITALS:       12   (  12A   )


 NUCLEAR REPULSION ENERGY   36.54528472


 Eigenvalues of metric

         1 0.609E-02 0.786E-02 0.121E-01 0.130E-01 0.165E-01 0.165E-01 0.209E-01 0.284E-01


 Contracted 2-electron integrals neglected if value below      1.0D-16
 AO integral compression algorithm  1   Integral accuracy      1.0D-16

     22.020 MB (compressed) written to integral file ( 88.3%)

     Node minimum: 22.020 MB, node maximum: 22.020 MB


 NUMBER OF SORTED TWO-ELECTRON INTEGRALS:    2445366.     BUFFER LENGTH:  32768
 NUMBER OF SEGMENTS:   1  SEGMENT LENGTH:    2445366      RECORD LENGTH: 524288

 Memory used in sort:       3.00 MW

 SORT1 READ     3139200. AND WROTE     2377461. INTEGRALS IN      7 RECORDS. CPU TIME:     0.03 SEC, REAL TIME:     0.04 SEC
 SORT2 READ     2377461. AND WROTE     2445366. INTEGRALS IN     84 RECORDS. CPU TIME:     0.03 SEC, REAL TIME:     0.05 SEC

 FILE SIZES:   FILE 1:    20.3 MBYTE,  FILE 4:    29.4 MBYTE,   TOTAL:     49.6 MBYTE

 OPERATOR DM      FOR CENTER  0  COORDINATES:    0.000000    0.000000    0.000000


 **********************************************************************************************************************************
 DATASETS  * FILE   NREC   LENGTH (MB)   RECORD NAMES
              1      19       20.30       500      610      700      900      950      970     1000      129      960     1100   
                                          VAR    BASINP    GEOM    SYMINP    ZMAT    AOBASIS   BASIS     P2S    ABASIS      S 
                                         1400     1410     1200     1210     1080     1600     1650     1300     1700   
                                           T        V       H0       H01     AOSYM     SMH    MOLCAS    ERIS     OPER   

 PROGRAMS   *        TOTAL       INT
 CPU TIMES  *         0.29      0.24
 REAL TIME  *         0.50 SEC
 DISK USED  *        72.29 MB      
 GA USED    *         0.00 MB       (max)       0.00 MB       (current)
 **********************************************************************************************************************************

1PROGRAM * RHF-SCF (CLOSED SHELL)       Authors: W. Meyer, H.-J. Werner


 NUMBER OF ELECTRONS:      10+   10-    SPACE SYMMETRY=1    SPIN SYMMETRY: Singlet 
 CONVERGENCE THRESHOLDS:    1.00E-10 (Density)    1.00E-13 (Energy)
 MAX. NUMBER OF ITERATIONS:      200
 INTERPOLATION TYPE:            DIIS
 INTERPOLATION STEPS:              2 (START)      1 (STEP)
 LEVEL SHIFTS:                  0.00 (CLOSED)  0.00 (OPEN) 



 Orbital guess generated from atomic densities. Full valence occupancy:   14

 Molecular orbital dump at record        2100.2

 ITERATION    DDIFF          GRAD             ENERGY        2-EL.EN.            DIPOLE MOMENTS         DIIS
    1      0.000D+00      0.000D+00      -152.02067761    191.276756    1.36429    0.09006   -0.00739    0
    2      0.000D+00      0.118D-01      -152.07013449    184.800841    1.02176    0.03075   -0.00449    1
    3      0.225D-01      0.666D-02      -152.08696312    187.581665    1.08029    0.05569   -0.00520    2
    4      0.767D-02      0.747D-03      -152.08735400    187.359834    1.06666    0.05364   -0.00517    3
    5      0.127D-02      0.179D-03      -152.08738346    187.380842    1.06272    0.05470   -0.00516    4
    6      0.357D-03      0.372D-04      -152.08738494    187.383484    1.06192    0.05411   -0.00516    5
    7      0.870D-04      0.166D-04      -152.08738511    187.382594    1.06170    0.05443   -0.00516    6
    8      0.238D-04      0.358D-05      -152.08738512    187.382563    1.06158    0.05439   -0.00516    7
    9      0.944D-05      0.523D-06      -152.08738512    187.382569    1.06156    0.05439   -0.00516    6
   10      0.124D-05      0.100D-06      -152.08738512    187.382567    1.06156    0.05439   -0.00516    6
   11      0.239D-06      0.263D-07      -152.08738512    187.382570    1.06156    0.05439   -0.00516    6
   12      0.551D-07      0.755D-08      -152.08738512    187.382568    1.06156    0.05440   -0.00516    6
   13      0.189D-07      0.237D-08      -152.08738512    187.382569    1.06156    0.05440   -0.00516    6
   14      0.441D-08      0.792D-09      -152.08738512    187.382569    1.06156    0.05440   -0.00516    7
   15      0.150D-08      0.218D-09      -152.08738512    187.382569    1.06156    0.05440   -0.00516    7
   16      0.393D-09      0.112D-09      -152.08738512    187.382569    1.06156    0.05440   -0.00516    8
   17      0.198D-09      0.151D-10      -152.08738512    187.382569    1.06156    0.05440   -0.00516    8
   18      0.317D-10      0.595D-11      -152.08738512    187.382569    1.06156    0.05440   -0.00516    0

 Final occupancy:  10

 !RHF STATE 1.1 Energy               -152.087385124760
 Nuclear energy                        36.54528472
 One-electron energy                 -282.32395434
 Two-electron energy                   93.69128450
 Virial quotient                       -1.00167588
 !RHF STATE 1.1 Dipole moment           1.06155870     0.05439510    -0.00516061
 Dipole moment /Debye                   2.69803635     0.13824949    -0.01311609

 Orbital energies:

         1.1          2.1          3.1          4.1          5.1          6.1          7.1          8.1          9.1         10.1
    -20.602659   -20.545804    -1.381149    -1.323056    -0.741579    -0.694955    -0.614092    -0.558059    -0.529645    -0.479696

        11.1         12.1
      0.112452     0.152866


 **********************************************************************************************************************************
 DATASETS  * FILE   NREC   LENGTH (MB)   RECORD NAMES
              1      19       20.30       500      610      700      900      950      970     1000      129      960     1100   
                                          VAR    BASINP    GEOM    SYMINP    ZMAT    AOBASIS   BASIS     P2S    ABASIS      S 
                                         1400     1410     1200     1210     1080     1600     1650     1300     1700   
                                           T        V       H0       H01     AOSYM     SMH    MOLCAS    ERIS     OPER   

              2       3        0.44       700     1000     2100   
                                         GEOM     BASIS     RHF  

 PROGRAMS   *        TOTAL       RHF       INT
 CPU TIMES  *         0.57      0.28      0.24
 REAL TIME  *         0.83 SEC
 DISK USED  *        72.29 MB      
 GA USED    *         0.00 MB       (max)       0.00 MB       (current)
 **********************************************************************************************************************************


1PROGRAM * CCSD (Closed-shell coupled cluster)     Authors: C. Hampel, H.-J. Werner, 1991, M. Deegan, P.J. Knowles, 1992


 Convergence thresholds:  THRVAR = 1.00D-08  THRDEN = 1.00D-12

 CCSD(T)     terms to be evaluated (factor= 1.000)


 Number of core orbitals:           2 (   2 )
 Number of closed-shell orbitals:   8 (   8 )
 Number of external orbitals:      56 (  56 )

 Molecular orbitals read from record     2100.2  Type=RHF/CANONICAL (state 1.1)

 Number of N-1 electron functions:               8
 Number of N-2 electron functions:              36
 Number of singly external CSFs:               448
 Number of doubly external CSFs:            100576
 Total number of CSFs:                      101025

 Length of J-op  integral file:               0.00 MB
 Length of K-op  integral file:               0.33 MB
 Length of 3-ext integral record:             0.00 MB

 Memory could be reduced to 2.44 Mwords without degradation in triples

 Integral transformation finished. Total CPU:   0.06 sec, npass=  1  Memory used:   1.72 MW

 Reference energy:                   -152.08738512

 MP2 singlet pair energy:              -0.27017124
 MP2 triplet pair energy:              -0.16860822
 MP2 correlation energy:               -0.43877946
 MP2 total energy:                   -152.52616459

 SCS-MP2 correlation energy:           -0.42911727   (PS=  1.200000  PT=  0.333333)
 SCS-MP2 total energy:               -152.51650240

 ITER.      SQ.NORM     CORR.ENERGY   TOTAL ENERGY   ENERGY CHANGE        DEN1      VAR(S)    VAR(P)  DIIS     TIME
   1      1.12064851    -0.45245649  -152.53984162    -0.01367703    -0.00444835  0.23D-02  0.17D-02  1  1     0.16
   2      1.12872951    -0.45379134  -152.54117647    -0.00133485    -0.00868960  0.16D-04  0.26D-03  2  2     0.27
   3      1.13153048    -0.45404526  -152.54143038    -0.00025392    -0.00158805  0.34D-04  0.91D-05  3  3     0.38
   4      1.13241348    -0.45398617  -152.54137129     0.00005909    -0.00038417  0.14D-05  0.87D-06  4  4     0.49
   5      1.13264739    -0.45397441  -152.54135954     0.00001175    -0.00007216  0.19D-06  0.54D-07  5  5     0.60
   6      1.13269458    -0.45397079  -152.54135591     0.00000363    -0.00000660  0.18D-07  0.50D-08  6  6     0.71
   7      1.13270607    -0.45396939  -152.54135452     0.00000140    -0.00000108  0.13D-08  0.90D-09  6  2     0.83
   8      1.13270864    -0.45396937  -152.54135450     0.00000002    -0.00000005  0.15D-09  0.75D-10  6  1     0.94
   9      1.13270918    -0.45396932  -152.54135445     0.00000005     0.00000018  0.12D-10  0.89D-11  6  4     1.05
  10      1.13270946    -0.45396930  -152.54135443     0.00000002    -0.00000004  0.20D-11  0.70D-12  6  3     1.16
  11      1.13270942    -0.45396931  -152.54135444    -0.00000001     0.00000004  0.34D-12  0.99D-13  6  5     1.28
  12      1.13270939    -0.45396932  -152.54135444    -0.00000000     0.00000001  0.63D-13  0.15D-13  6  6     1.39
  13      1.13270937    -0.45396932  -152.54135444    -0.00000000     0.00000001  0.81D-14  0.27D-14  6  1     1.50
  14      1.13270936    -0.45396932  -152.54135444    -0.00000000     0.00000000  0.14D-14  0.36D-15  6  2     1.61
  15      1.13270936    -0.45396932  -152.54135444    -0.00000000     0.00000000  0.26D-15  0.59D-16  6  4     1.73
  16      1.13270936    -0.45396932  -152.54135444    -0.00000000    -0.00000000  0.34D-16  0.12D-16  6  3     1.84
  17      1.13270936    -0.45396932  -152.54135444     0.00000000    -0.00000000  0.28D-17  0.17D-17  6  6     1.95
  18      1.13270936    -0.45396932  -152.54135444    -0.00000000     0.00000000  0.28D-18  0.13D-18  6  5     2.07
  19      1.13270936    -0.45396932  -152.54135444     0.00000000    -0.00000000  0.65D-19  0.21D-19  6  2     2.18
  20      1.13270936    -0.45396932  -152.54135444     0.00000000    -0.00000000  0.11D-19  0.36D-20  6  1     2.29

 Norm of t1 vector:      0.06790634      S-energy:    -0.00000000      T1 diagnostic:  0.01200426
                                                                       D1 diagnostic:  0.02669115


 Total CPU time for triples:      0.73 sec


 RESULTS
 =======

  Reference energy                   -152.087385124760
  CCSD singlet pair energy             -0.304527059083
  CCSD triplet pair energy             -0.149442259415
  CCSD correlation energy              -0.453969318499

  Triples (T) contribution             -0.010266611710
  Total correlation energy             -0.464235930209

  CCSD total energy                  -152.541354443259
  CCSD[T] energy                     -152.552348434848
  CCSD-T energy                      -152.551335379152
 !CCSD(T) total energy               -152.551621054969

 Timing summary (sec):

 STEP                 CPU(USER)    SYS     CPU(TOT)    WALL
 Transformation          0.06      0.02      0.08      0.07
 CCSD iterations         2.23      0.10      2.33      2.37
 Triples                 0.73      0.02      0.75      0.74

 Program statistics:

 Available memory in ccsd:               999999644
 Min. memory needed in ccsd:                333849
 Max. memory used in ccsd:                  413833
 Max. memory used in cckext:                383006 (20 integral passes)



 **********************************************************************************************************************************
 DATASETS  * FILE   NREC   LENGTH (MB)   RECORD NAMES
              1      20       28.01       500      610      700      900      950      970     1000      129      960     1100   
                                          VAR    BASINP    GEOM    SYMINP    ZMAT    AOBASIS   BASIS     P2S    ABASIS      S 
                                         1400     1410     1200     1210     1080     1600     1650     1300     1700     1380   
                                           T        V       H0       H01     AOSYM     SMH    MOLCAS    ERIS     OPER     JKOP   

              2       3        0.44       700     1000     2100   
                                         GEOM     BASIS     RHF  

 PROGRAMS   *        TOTAL   CCSD(T)       RHF       INT
 CPU TIMES  *         3.60      3.04      0.28      0.24
 REAL TIME  *         4.04 SEC
 DISK USED  *        72.29 MB      
 GA USED    *         0.00 MB       (max)       0.00 MB       (current)
 **********************************************************************************************************************************

        CCSD(T)         RHF-SCF 
   -152.55162105   -152.08738512
 **********************************************************************************************************************************
 Variable memory released
