
 Primary working directories    : /tmp/916842.120.gen6.q
 Secondary working directories  : /tmp/916842.120.gen6.q
 Wavefunction directory         : /home/vulcan/lo21740/wfu/
 Main file repository           : /tmp/916842.120.gen6.q/

 ARCHNAME  : Linux/x86_64
 FC        : /opt/intel/compilers_and_libraries_2016.1.150/linux/bin/intel64/ifort
 FCVERSION : 16.0.1
 BLASLIB   : -mkl
 id        : ccgc

 Nodes     nprocs
 n081         1
 ga_uses_ma=false, calling ma_init with nominal heap.
 GA-space will be limited to   8.0 MW (determined by -G option)

 Using customized tuning parameters: mindgm=10; mindgv=16; mindgc=4; mindgr=1; noblas=0; mincuda=1000; minvec=7
 default implementation of scratch files=df  

 ***,Optimization of h2o_2
 memory,1000,m
 gthresh,energy=1.0d-12,orbital=1.0d-10,oneint=1.0d-16,twoint=1.0d-16,optgrad=1.0d-6,compress=1.0d-13
 geomtyp=xyz
 
 bohr
 geometry = {
  O   -2.8117973559   -0.2069442791    0.0034852530
  H   -3.5600243194    1.4473278502    0.0012744491
  H   -1.0097767143    0.1044961217    0.0004095553
  O    2.6797518907    0.1924539082   -0.0048127928
  H    3.3434380415   -0.6988510893   -1.4445144798
  H    3.3233964653   -0.6985287578    1.4441580153
 }
 
 basis=aug-cc-pvdz
 {rhf;maxit,200}
 {ccsd(t);maxit,200}

 Variables initialized (661), CPU time= 0.00 sec
 Commands  initialized (458), CPU time= 0.01 sec, 486 directives.
 Default parameters read. Elapsed time= 0.04 sec

 Checking input...
 Passed
1


                                         ***  PROGRAM SYSTEM MOLPRO  ***
                         Copyright, University College Cardiff Consultants Limited, 2008

                                    Version 2010.1 linked May 16 2016 07:17:05


 **********************************************************************************************************************************
 LABEL *   Optimization of h2o_2                                                         
 Linux-4.4.3/n081(x86_64) 64 bit mpp version                                             DATE: 18-Jul-23          TIME: 11:29:56  
 **********************************************************************************************************************************

 SHA1:             9e8077add272b0f3cad6f7df79ec5211205f459d
 **********************************************************************************************************************************

 THRESHOLDS:

 ZERO    =  1.00D-12  ONEINT  =  1.00D-16  TWOINT  =  1.00D-16  PREFAC  =  1.00D-14  LOCALI  =  1.00D-09  EORDER  =  1.00D-04
 ENERGY  =  1.00D-12  ETEST   =  0.00D+00  EDENS   =  0.00D+00  THRDEDEF=  1.00D-06  GRADIENT=  1.00D-02  STEP    =  1.00D-03
 ORBITAL =  1.00D-10  CIVEC   =  1.00D-05  COEFF   =  1.00D-04  PRINTCI =  5.00D-02  PUNCHCI =  9.90D+01  OPTGRAD =  1.00D-06
 OPTENERG=  1.00D-06  OPTSTEP =  3.00D-04  THRGRAD =  1.00D-10  COMPRESS=  1.00D-13  VARMIN  =  1.00D-07  VARMAX  =  1.00D-03
 THRDOUB =  0.00D+00  THRDIV  =  1.00D-05  THRRED  =  1.00D-07  THRPSP  =  1.00D+00  THRDC   =  1.00D-10  THRCS   =  1.00D-10
 THRNRM  =  1.00D-08  THREQ   =  0.00D+00  THRDE   =  1.00D+00  THRREF  =  1.00D-05  SPARFAC =  1.00D+00  THRDLP  =  1.00D-07
 THRDIA  =  1.00D-10  THRDLS  =  1.00D-07  THRGPS  =  0.00D+00  THRKEX  =  0.00D+00  THRDIS  =  2.00D-01  THRVAR  =  1.00D-10
 THRLOC  =  1.00D-06  THRGAP  =  1.00D-06  THRLOCT = -1.00D+00  THRGAPT = -1.00D+00  THRORB  =  1.00D-06  THRMLTP =  0.00D+00
 THRCPQCI=  1.00D-10  KEXTA   =  0.00D+00  THRCOARS=  0.00D+00  SYMTOL  =  1.00D-06  GRADTOL =  1.00D-06  THROVL  =  1.00D-08
 THRORTH =  1.00D-08  GRID    =  1.00D-06  GRIDMAX =  1.00D-03  DTMAX   =  0.00D+00

 SETTING GEOMTYP        =    XYZ
 ZUNIT=BOHR
 

 Variable memory set to 1000000000 words,  buffer space   230000 words

 SETTING BASIS          =    AUG-CC-PVDZ


 Recomputing integrals since basis changed


 Using spherical harmonics

 Library entry O      S aug-cc-pVDZ          selected for orbital group  1
 Library entry O      P aug-cc-pVDZ          selected for orbital group  1
 Library entry O      D aug-cc-pVDZ          selected for orbital group  1
 Library entry H      S aug-cc-pVDZ          selected for orbital group  2
 Library entry H      P aug-cc-pVDZ          selected for orbital group  2

1PROGRAM * SEWARD (Integral evaluation for generally contracted gaussian basis sets)     Author: Roland Lindh, 1990

 Geometry written to block  1 of record 700


 Point group  C1  



 ATOMIC COORDINATES

 NR  ATOM    CHARGE       X              Y              Z

   1  O       8.00   -2.811797356   -0.206944279    0.003485253
   2  H       1.00   -3.560024319    1.447327850    0.001274449
   3  H       1.00   -1.009776714    0.104496122    0.000409555
   4  O       8.00    2.679751891    0.192453908   -0.004812793
   5  H       1.00    3.343438041   -0.698851089   -1.444514480
   6  H       1.00    3.323396465   -0.698528758    1.444158015

 Bond lengths in Bohr (Angstrom)

 1-2  1.815616907  1-3  1.828738083  4-5  1.818693172  4-6  1.818693172
     ( 0.960783088)     ( 0.967726515)     ( 0.962410977)     ( 0.962410977)

 Bond angles

  2-1-3  104.53160047   5-4-6  105.15587832

 NUCLEAR CHARGE:                   20
 NUMBER OF PRIMITIVE AOS:         118
 NUMBER OF SYMMETRY AOS:          114
 NUMBER OF CONTRACTIONS:           82   (  82A   )
 NUMBER OF CORE ORBITALS:           2   (   2A   )
 NUMBER OF VALENCE ORBITALS:       12   (  12A   )


 NUCLEAR REPULSION ENERGY   36.54860204


 Eigenvalues of metric

         1 0.166E-02 0.208E-02 0.263E-02 0.296E-02 0.617E-02 0.889E-02 0.116E-01 0.153E-01


 Contracted 2-electron integrals neglected if value below      1.0D-16
 AO integral compression algorithm  1   Integral accuracy      1.0D-16

     54.526 MB (compressed) written to integral file ( 94.4%)

     Node minimum: 54.526 MB, node maximum: 54.526 MB


 NUMBER OF SORTED TWO-ELECTRON INTEGRALS:    5791906.     BUFFER LENGTH:  32768
 NUMBER OF SEGMENTS:   1  SEGMENT LENGTH:    5791906      RECORD LENGTH: 524288

 Memory used in sort:       6.35 MW

 SORT1 READ     7252644. AND WROTE     5721171. INTEGRALS IN     17 RECORDS. CPU TIME:     0.05 SEC, REAL TIME:     0.09 SEC
 SORT2 READ     5721171. AND WROTE     5791906. INTEGRALS IN    208 RECORDS. CPU TIME:     0.07 SEC, REAL TIME:     0.09 SEC

 FILE SIZES:   FILE 1:    47.3 MBYTE,  FILE 4:    71.3 MBYTE,   TOTAL:    118.6 MBYTE

 OPERATOR DM      FOR CENTER  0  COORDINATES:    0.000000    0.000000    0.000000


 **********************************************************************************************************************************
 DATASETS  * FILE   NREC   LENGTH (MB)   RECORD NAMES
              1      19       47.36       500      610      700      900      950      970     1000      129      960     1100   
                                          VAR    BASINP    GEOM    SYMINP    ZMAT    AOBASIS   BASIS     P2S    ABASIS      S 
                                         1400     1410     1200     1210     1080     1600     1650     1300     1700   
                                           T        V       H0       H01     AOSYM     SMH    MOLCAS    ERIS     OPER   

 PROGRAMS   *        TOTAL       INT
 CPU TIMES  *         0.41      0.37
 REAL TIME  *         0.69 SEC
 DISK USED  *       173.77 MB      
 GA USED    *         0.00 MB       (max)       0.00 MB       (current)
 **********************************************************************************************************************************

1PROGRAM * RHF-SCF (CLOSED SHELL)       Authors: W. Meyer, H.-J. Werner


 NUMBER OF ELECTRONS:      10+   10-    SPACE SYMMETRY=1    SPIN SYMMETRY: Singlet 
 CONVERGENCE THRESHOLDS:    1.00E-10 (Density)    1.00E-13 (Energy)
 MAX. NUMBER OF ITERATIONS:      200
 INTERPOLATION TYPE:            DIIS
 INTERPOLATION STEPS:              2 (START)      1 (STEP)
 LEVEL SHIFTS:                  0.00 (CLOSED)  0.00 (OPEN) 



 Orbital guess generated from atomic densities. Full valence occupancy:   14

 Molecular orbital dump at record        2100.2

 ITERATION    DDIFF          GRAD             ENERGY        2-EL.EN.            DIPOLE MOMENTS         DIIS
    1      0.000D+00      0.000D+00      -152.02131858    191.277817    1.36884    0.09941    0.00173    0
    2      0.000D+00      0.955D-02      -152.07072147    184.771268    1.01015    0.02449    0.00055    1
    3      0.179D-01      0.543D-02      -152.08778427    187.568669    1.07297    0.05577    0.00078    2
    4      0.606D-02      0.598D-03      -152.08816626    187.353329    1.05871    0.05334    0.00076    3
    5      0.103D-02      0.142D-03      -152.08819531    187.373991    1.05481    0.05478    0.00073    4
    6      0.271D-03      0.313D-04      -152.08819691    187.376576    1.05410    0.05413    0.00073    5
    7      0.623D-04      0.147D-04      -152.08819712    187.375575    1.05388    0.05453    0.00073    6
    8      0.206D-04      0.290D-05      -152.08819714    187.375527    1.05378    0.05449    0.00073    7
    9      0.717D-05      0.454D-06      -152.08819714    187.375536    1.05376    0.05450    0.00073    6
   10      0.985D-06      0.904D-07      -152.08819714    187.375531    1.05376    0.05450    0.00073    6
   11      0.201D-06      0.225D-07      -152.08819714    187.375536    1.05375    0.05450    0.00073    6
   12      0.449D-07      0.699D-08      -152.08819714    187.375534    1.05375    0.05450    0.00073    6
   13      0.167D-07      0.260D-08      -152.08819714    187.375535    1.05375    0.05450    0.00073    6
   14      0.484D-08      0.694D-09      -152.08819714    187.375535    1.05375    0.05450    0.00073    7
   15      0.154D-08      0.202D-09      -152.08819714    187.375535    1.05375    0.05450    0.00073    7
   16      0.332D-09      0.917D-10      -152.08819714    187.375535    1.05375    0.05450    0.00073    7
   17      0.167D-09      0.254D-10      -152.08819714    187.375535    1.05375    0.05450    0.00073    7
   18      0.591D-10      0.631D-11      -152.08819714    187.375535    1.05375    0.05450    0.00073    0

 Final occupancy:  10

 !RHF STATE 1.1 Energy               -152.088197138261
 Nuclear energy                        36.54860204
 One-electron energy                 -282.32456653
 Two-electron energy                   93.68776736
 Virial quotient                       -1.00166987
 !RHF STATE 1.1 Dipole moment           1.05375489     0.05449601     0.00072874
 Dipole moment /Debye                   2.67820235     0.13850597     0.00185216

 Orbital energies:

         1.1          2.1          3.1          4.1          5.1          6.1          7.1          8.1          9.1         10.1
    -20.602699   -20.546523    -1.380991    -1.324140    -0.742827    -0.694449    -0.613258    -0.559241    -0.529980    -0.480408

        11.1         12.1
      0.028380     0.055231


 **********************************************************************************************************************************
 DATASETS  * FILE   NREC   LENGTH (MB)   RECORD NAMES
              1      19       47.36       500      610      700      900      950      970     1000      129      960     1100   
                                          VAR    BASINP    GEOM    SYMINP    ZMAT    AOBASIS   BASIS     P2S    ABASIS      S 
                                         1400     1410     1200     1210     1080     1600     1650     1300     1700   
                                           T        V       H0       H01     AOSYM     SMH    MOLCAS    ERIS     OPER   

              2       3        0.48       700     1000     2100   
                                         GEOM     BASIS     RHF  

 PROGRAMS   *        TOTAL       RHF       INT
 CPU TIMES  *         1.03      0.62      0.37
 REAL TIME  *         1.41 SEC
 DISK USED  *       173.77 MB      
 GA USED    *         0.00 MB       (max)       0.00 MB       (current)
 **********************************************************************************************************************************


1PROGRAM * CCSD (Closed-shell coupled cluster)     Authors: C. Hampel, H.-J. Werner, 1991, M. Deegan, P.J. Knowles, 1992


 Convergence thresholds:  THRVAR = 1.00D-08  THRDEN = 1.00D-12

 CCSD(T)     terms to be evaluated (factor= 1.000)


 Number of core orbitals:           2 (   2 )
 Number of closed-shell orbitals:   8 (   8 )
 Number of external orbitals:      72 (  72 )

 Molecular orbitals read from record     2100.2  Type=RHF/CANONICAL (state 1.1)

 Number of N-1 electron functions:               8
 Number of N-2 electron functions:              36
 Number of singly external CSFs:               576
 Number of doubly external CSFs:            166176
 Total number of CSFs:                      166753

 Length of J-op  integral file:               0.00 MB
 Length of K-op  integral file:               0.50 MB
 Length of 3-ext integral record:             0.00 MB

 Memory could be reduced to 4.70 Mwords without degradation in triples

 Integral transformation finished. Total CPU:   0.13 sec, npass=  1  Memory used:   3.09 MW

 Reference energy:                   -152.08819714

 MP2 singlet pair energy:              -0.27224106
 MP2 triplet pair energy:              -0.16968046
 MP2 correlation energy:               -0.44192152
 MP2 total energy:                   -152.53011866

 SCS-MP2 correlation energy:           -0.43226822   (PS=  1.200000  PT=  0.333333)
 SCS-MP2 total energy:               -152.52046536

 ITER.      SQ.NORM     CORR.ENERGY   TOTAL ENERGY   ENERGY CHANGE        DEN1      VAR(S)    VAR(P)  DIIS     TIME
   1      1.12160084    -0.45556407  -152.54376121    -0.01364255    -0.00399229  0.25D-02  0.17D-02  1  1     0.34
   2      1.12997576    -0.45683291  -152.54503005    -0.00126884    -0.00891654  0.17D-04  0.28D-03  2  2     0.56
   3      1.13294901    -0.45708965  -152.54528679    -0.00025674    -0.00167752  0.35D-04  0.10D-04  3  3     0.79
   4      1.13388272    -0.45702473  -152.54522187     0.00006492    -0.00040713  0.17D-05  0.10D-05  4  4     1.01
   5      1.13413932    -0.45701003  -152.54520716     0.00001471    -0.00008257  0.22D-06  0.69D-07  5  5     1.23
   6      1.13419013    -0.45700690  -152.54520403     0.00000313    -0.00000665  0.23D-07  0.67D-08  6  6     1.46
   7      1.13420270    -0.45700536  -152.54520250     0.00000154    -0.00000123  0.20D-08  0.12D-08  6  2     1.68
   8      1.13420585    -0.45700531  -152.54520244     0.00000005    -0.00000008  0.24D-09  0.13D-09  6  1     1.91
   9      1.13420644    -0.45700528  -152.54520242     0.00000002     0.00000027  0.27D-10  0.15D-10  6  4     2.13
  10      1.13420685    -0.45700524  -152.54520238     0.00000004    -0.00000007  0.52D-11  0.14D-11  6  3     2.36
  11      1.13420682    -0.45700525  -152.54520239    -0.00000001     0.00000004  0.11D-11  0.24D-12  6  5     2.58
  12      1.13420678    -0.45700526  -152.54520240    -0.00000000     0.00000001  0.22D-12  0.53D-13  6  6     2.80
  13      1.13420675    -0.45700526  -152.54520240    -0.00000000     0.00000001  0.29D-13  0.92D-14  6  1     3.03
  14      1.13420674    -0.45700526  -152.54520240    -0.00000000     0.00000000  0.44D-14  0.12D-14  6  2     3.25
  15      1.13420673    -0.45700526  -152.54520240     0.00000000    -0.00000000  0.62D-15  0.24D-15  6  3     3.48
  16      1.13420673    -0.45700526  -152.54520240     0.00000000    -0.00000000  0.66D-16  0.30D-16  6  4     3.70
  17      1.13420673    -0.45700526  -152.54520240     0.00000000    -0.00000000  0.76D-17  0.36D-17  6  5     3.92
  18      1.13420673    -0.45700526  -152.54520240     0.00000000    -0.00000000  0.12D-17  0.81D-18  6  4     4.15
  19      1.13420673    -0.45700526  -152.54520240     0.00000000    -0.00000000  0.10D-18  0.62D-19  6  1     4.37
  20      1.13420673    -0.45700526  -152.54520240    -0.00000000     0.00000000  0.23D-19  0.72D-20  6  6     4.59
  21      1.13420673    -0.45700526  -152.54520240    -0.00000000     0.00000000  0.47D-20  0.13D-20  6  2     4.82

 Norm of t1 vector:      0.07019538      S-energy:    -0.00000000      T1 diagnostic:  0.01240891
                                                                       D1 diagnostic:  0.02772042


 Total CPU time for triples:      1.72 sec


 RESULTS
 =======

  Reference energy                   -152.088197138261
  CCSD singlet pair energy             -0.306629122116
  CCSD triplet pair energy             -0.150376139298
  CCSD correlation energy              -0.457005261416

  Triples (T) contribution             -0.010946492578
  Total correlation energy             -0.467951753995

  CCSD total energy                  -152.545202399678
  CCSD[T] energy                     -152.556958024947
  CCSD-T energy                      -152.555810610450
 !CCSD(T) total energy               -152.556148892256

 Timing summary (sec):

 STEP                 CPU(USER)    SYS     CPU(TOT)    WALL
 Transformation          0.14      0.02      0.16      0.16
 CCSD iterations         4.68      0.23      4.91      4.94
 Triples                 1.72      0.04      1.76      1.77

 Program statistics:

 Available memory in ccsd:               999999644
 Min. memory needed in ccsd:                533913
 Max. memory used in ccsd:                  669257
 Max. memory used in cckext:                567422 (21 integral passes)



 **********************************************************************************************************************************
 DATASETS  * FILE   NREC   LENGTH (MB)   RECORD NAMES
              1      20       62.52       500      610      700      900      950      970     1000      129      960     1100   
                                          VAR    BASINP    GEOM    SYMINP    ZMAT    AOBASIS   BASIS     P2S    ABASIS      S 
                                         1400     1410     1200     1210     1080     1600     1650     1300     1700     1380   
                                           T        V       H0       H01     AOSYM     SMH    MOLCAS    ERIS     OPER     JKOP   

              2       3        0.48       700     1000     2100   
                                         GEOM     BASIS     RHF  

 PROGRAMS   *        TOTAL   CCSD(T)       RHF       INT
 CPU TIMES  *         7.59      6.56      0.62      0.37
 REAL TIME  *         8.30 SEC
 DISK USED  *       173.77 MB      
 GA USED    *         0.00 MB       (max)       0.00 MB       (current)
 **********************************************************************************************************************************

        CCSD(T)         RHF-SCF 
   -152.55614889   -152.08819714
 **********************************************************************************************************************************
 Variable memory released
