[Molden Format]
[ATOMS] AU
N        1    7       -0.0000005535       -0.0000005478       -0.1333532295
H        2    1       -1.2535494882       -1.2398044331        0.6176218973
H        3    1       -0.4472760516        1.7051598663        0.6176172880
H        4    1        1.7008332303       -0.4653478225        0.6176172896
[Molden Format]
[GTO]
  1 0
s  10 1.00
   11420.0000000000       5.230000000000000E-004
   1712.00000000000       4.045000000000000E-003
   389.300000000000       2.077500000000000E-002
   110.000000000000       8.072699999999999E-002
   35.5700000000000       0.233074000000000     
   12.5400000000000       0.433501000000000     
   4.64400000000000       0.347472000000000     
   1.29300000000000       4.126200000000000E-002
  0.511800000000000      -8.508000000000000E-003
  0.178700000000000       2.384000000000000E-003
s  10 1.00
   11420.0000000000      -1.150000000000000E-004
   1712.00000000000      -8.950000000000000E-004
   389.300000000000      -4.624000000000000E-003
   110.000000000000      -1.852800000000000E-002
   35.5700000000000      -5.733900000000000E-002
   12.5400000000000      -0.132076000000000     
   4.64400000000000      -0.172510000000000     
   1.29300000000000       0.151814000000000     
  0.511800000000000       0.599944000000000     
  0.178700000000000       0.387462000000000     
s  10 1.00
   11420.0000000000       0.000000000000000E+000
   1712.00000000000       0.000000000000000E+000
   389.300000000000       0.000000000000000E+000
   110.000000000000       0.000000000000000E+000
   35.5700000000000       0.000000000000000E+000
   12.5400000000000       0.000000000000000E+000
   4.64400000000000       0.000000000000000E+000
   1.29300000000000        1.00000000000000     
  0.511800000000000       0.000000000000000E+000
  0.178700000000000       0.000000000000000E+000
s  10 1.00
   11420.0000000000       0.000000000000000E+000
   1712.00000000000       0.000000000000000E+000
   389.300000000000       0.000000000000000E+000
   110.000000000000       0.000000000000000E+000
   35.5700000000000       0.000000000000000E+000
   12.5400000000000       0.000000000000000E+000
   4.64400000000000       0.000000000000000E+000
   1.29300000000000       0.000000000000000E+000
  0.511800000000000       0.000000000000000E+000
  0.178700000000000        1.00000000000000     
p   5 1.00
   26.6300000000000       1.467000000000000E-002
   5.94800000000000       9.176400000000000E-002
   1.74200000000000       0.298683000000000     
  0.555000000000000       0.498487000000000     
  0.172500000000000       0.337023000000000     
p   5 1.00
   26.6300000000000       0.000000000000000E+000
   5.94800000000000       0.000000000000000E+000
   1.74200000000000       0.000000000000000E+000
  0.555000000000000        1.00000000000000     
  0.172500000000000       0.000000000000000E+000
p   5 1.00
   26.6300000000000       0.000000000000000E+000
   5.94800000000000       0.000000000000000E+000
   1.74200000000000       0.000000000000000E+000
  0.555000000000000       0.000000000000000E+000
  0.172500000000000        1.00000000000000     
d   2 1.00
   1.65400000000000        1.00000000000000     
  0.469000000000000       0.000000000000000E+000
d   2 1.00
   1.65400000000000       0.000000000000000E+000
  0.469000000000000        1.00000000000000     
f   1 1.00
   1.09300000000000        1.00000000000000     
 
  2 0
s   5 1.00
   33.8700000000000       6.068000000000000E-003
   5.09500000000000       4.530800000000000E-002
   1.15900000000000       0.202822000000000     
  0.325800000000000       0.503903000000000     
  0.102700000000000       0.383421000000000     
s   5 1.00
   33.8700000000000       0.000000000000000E+000
   5.09500000000000       0.000000000000000E+000
   1.15900000000000       0.000000000000000E+000
  0.325800000000000        1.00000000000000     
  0.102700000000000       0.000000000000000E+000
s   5 1.00
   33.8700000000000       0.000000000000000E+000
   5.09500000000000       0.000000000000000E+000
   1.15900000000000       0.000000000000000E+000
  0.325800000000000       0.000000000000000E+000
  0.102700000000000        1.00000000000000     
p   2 1.00
   1.40700000000000        1.00000000000000     
  0.388000000000000       0.000000000000000E+000
p   2 1.00
   1.40700000000000       0.000000000000000E+000
  0.388000000000000        1.00000000000000     
d   1 1.00
   1.05700000000000        1.00000000000000     
 
  3 0
s   5 1.00
   33.8700000000000       6.068000000000000E-003
   5.09500000000000       4.530800000000000E-002
   1.15900000000000       0.202822000000000     
  0.325800000000000       0.503903000000000     
  0.102700000000000       0.383421000000000     
s   5 1.00
   33.8700000000000       0.000000000000000E+000
   5.09500000000000       0.000000000000000E+000
   1.15900000000000       0.000000000000000E+000
  0.325800000000000        1.00000000000000     
  0.102700000000000       0.000000000000000E+000
s   5 1.00
   33.8700000000000       0.000000000000000E+000
   5.09500000000000       0.000000000000000E+000
   1.15900000000000       0.000000000000000E+000
  0.325800000000000       0.000000000000000E+000
  0.102700000000000        1.00000000000000     
p   2 1.00
   1.40700000000000        1.00000000000000     
  0.388000000000000       0.000000000000000E+000
p   2 1.00
   1.40700000000000       0.000000000000000E+000
  0.388000000000000        1.00000000000000     
d   1 1.00
   1.05700000000000        1.00000000000000     
 
  4 0
s   5 1.00
   33.8700000000000       6.068000000000000E-003
   5.09500000000000       4.530800000000000E-002
   1.15900000000000       0.202822000000000     
  0.325800000000000       0.503903000000000     
  0.102700000000000       0.383421000000000     
s   5 1.00
   33.8700000000000       0.000000000000000E+000
   5.09500000000000       0.000000000000000E+000
   1.15900000000000       0.000000000000000E+000
  0.325800000000000        1.00000000000000     
  0.102700000000000       0.000000000000000E+000
s   5 1.00
   33.8700000000000       0.000000000000000E+000
   5.09500000000000       0.000000000000000E+000
   1.15900000000000       0.000000000000000E+000
  0.325800000000000       0.000000000000000E+000
  0.102700000000000        1.00000000000000     
p   2 1.00
   1.40700000000000        1.00000000000000     
  0.388000000000000       0.000000000000000E+000
p   2 1.00
   1.40700000000000       0.000000000000000E+000
  0.388000000000000        1.00000000000000     
d   1 1.00
   1.05700000000000        1.00000000000000     
 
[MO]
 Sym= A
 Ene=  -15.5352816216807     
 Spin= Alpha
 Occup= 1.0
  1        0.9994249303
  2        0.0002896972
  3        0.0011107271
  4       -0.0008967998
  5       -0.0000001678
  6        0.0000001927
  7        0.0055432956
  8       -0.0000006244
  9        0.0000006206
 10       -0.0038854290
 11       -0.0000001421
 12        0.0000001365
 13       -0.0019158375
 14        0.0000359002
 15        0.0000360622
 16       -0.0000719624
 17        0.0000000035
 18       -0.0000001983
 19        0.0000002015
 20       -0.0000224078
 21       -0.0000218548
 22        0.0000442626
 23        0.0000000007
 24       -0.0000000591
 25        0.0000000580
 26        0.0000389562
 27        0.0000402435
 28       -0.0000284034
 29       -0.0001169002
 30       -0.0001206975
 31        0.0000425209
 32        0.0000000316
 33       -0.0000000330
 34        0.0000426892
 35        0.0000000022
 36        0.0011548095
 37       -0.0000188029
 38       -0.0006286259
 39       -0.0000960765
 40       -0.0000949325
 41        0.0001099233
 42        0.0002262885
 43        0.0002238731
 44       -0.0000154775
 45       -0.0000095477
 46       -0.0000070400
 47        0.0000165877
 48       -0.0002213915
 49        0.0002009135
 50        0.0001986528
 51        0.0011545333
 52       -0.0000195773
 53       -0.0006285937
 54       -0.0000343696
 55        0.0001309046
 56        0.0001100995
 57        0.0000806208
 58       -0.0003074405
 59       -0.0000152199
 60        0.0000882070
 61       -0.0001048002
 62        0.0000165932
 63        0.0001087730
 64        0.0000717477
 65       -0.0002734478
 66        0.0011550884
 67       -0.0000180487
 68       -0.0006286587
 69        0.0001300221
 70       -0.0000355397
 71        0.0001097479
 72       -0.0003074807
 73        0.0000841521
 74       -0.0000157275
 75       -0.0001035239
 76        0.0000869406
 77        0.0000165833
 78        0.0001126150
 79       -0.0002723733
 80        0.0000744991
 Sym= A
 Ene=  -1.13847503178111     
 Spin= Alpha
 Occup= 1.0
  1        0.0129315042
  2       -0.8078199158
  3        0.0105648994
  4        0.0809520335
  5        0.0000721395
  6       -0.0000739396
  7       -0.1160334537
  8       -0.0000105167
  9        0.0000106537
 10       -0.0053324535
 11       -0.0000186702
 12        0.0000191185
 13        0.0273322970
 14       -0.0009598436
 15       -0.0009597937
 16        0.0019196373
 17       -0.0000000340
 18        0.0000025374
 19       -0.0000025786
 20       -0.0013200109
 21       -0.0013157571
 22        0.0026357680
 23       -0.0000000400
 24        0.0000029925
 25       -0.0000030689
 26       -0.0005304549
 27       -0.0005476355
 28        0.0008988261
 29        0.0015911138
 30        0.0016431463
 31       -0.0013489765
 32        0.0000002510
 33       -0.0000002399
 34       -0.0013475018
 35       -0.0000000121
 36       -0.3672657594
 37        0.1009644173
 38        0.1325598310
 39       -0.0068190812
 40       -0.0067451150
 41        0.0035969548
 42       -0.0055468155
 43       -0.0054858666
 44        0.0002344760
 45       -0.0001419470
 46       -0.0001289461
 47        0.0002708931
 48       -0.0012337850
 49        0.0006300671
 50        0.0006228288
 51       -0.3673982663
 52        0.1010079438
 53        0.1326112032
 54       -0.0024344144
 55        0.0092818914
 56        0.0035992839
 57       -0.0019797211
 58        0.0075471887
 59        0.0002358498
 60        0.0004026227
 61       -0.0006738523
 62        0.0002712296
 63        0.0006061214
 64        0.0002252543
 65       -0.0008582928
 66       -0.3671340386
 67        0.1009209920
 68        0.1325087375
 69        0.0092472327
 70       -0.0025303397
 71        0.0035945900
 72        0.0075238336
 73       -0.0020584632
 74        0.0002331190
 75       -0.0006655508
 76        0.0003949850
 77        0.0002705658
 78        0.0006276359
 79       -0.0008532095
 80        0.0002333131
 Sym= A
 Ene= -0.621423869514032     
 Spin= Alpha
 Occup= 1.0
  1        0.0000041493
  2        0.0000930458
  3       -0.0000023812
  4        0.0000313650
  5        0.6832982964
  6        0.0745040350
  7       -0.0000731305
  8       -0.0400522335
  9       -0.0043695348
 10        0.0000080878
 11       -0.0799550377
 12       -0.0087187860
 13        0.0000080428
 14        0.0028198766
 15       -0.0028194401
 16       -0.0000004365
 17       -0.0072556172
 18        0.0118778213
 19        0.0012949636
 20        0.0024930666
 21       -0.0024924737
 22       -0.0000005929
 23       -0.0064133699
 24        0.0186713655
 25        0.0020353379
 26        0.0002650120
 27        0.0000289712
 28        0.0000000189
 29        0.0002640914
 30        0.0000285329
 31       -0.0000728111
 32       -0.0010591274
 33       -0.0001154465
 34        0.0000727544
 35        0.0001873769
 36       -0.5428575586
 37        0.0629669981
 38        0.1304534280
 39       -0.0058285822
 40       -0.0106278776
 41        0.0069915004
 42       -0.0086340542
 43       -0.0220167560
 44        0.0109441400
 45        0.0001872034
 46       -0.0010662012
 47        0.0008789978
 48       -0.0039796795
 49        0.0026179822
 50        0.0032148001
 51       -0.1021511554
 52        0.0118538464
 53        0.0245541611
 54        0.0047655116
 55        0.0035103916
 56        0.0013154761
 57        0.0137063702
 58        0.0077984549
 59        0.0020577901
 60        0.0007486659
 61       -0.0009141551
 62        0.0001654892
 63       -0.0014315830
 64       -0.0004876403
 65       -0.0009296106
 66        0.6449576124
 67       -0.0747910421
 68       -0.1549678845
 69       -0.0127732650
 70        0.0056085687
 71       -0.0083051538
 72       -0.0232932201
 73        0.0122321373
 74       -0.0130053054
 75        0.0023553350
 76       -0.0013109652
 77       -0.0010443698
 78       -0.0030572213
 79        0.0046544918
 80       -0.0015453445
 Sym= A
 Ene= -0.621418773261396     
 Spin= Alpha
 Occup= 1.0
  1        0.0000052533
  2        0.0001189702
  3       -0.0000030039
  4        0.0000400650
  5        0.0744964293
  6       -0.6833637312
  7       -0.0000906368
  8       -0.0043665079
  9        0.0400765170
 10        0.0000101454
 11       -0.0087167765
 12        0.0799674462
 13        0.0000099956
 14        0.0036295234
 15       -0.0036290120
 16       -0.0000005115
 17        0.0056427203
 18        0.0012949545
 19       -0.0118774245
 20        0.0032065220
 21       -0.0032058412
 22       -0.0000006808
 23        0.0049840649
 24        0.0020356435
 25       -0.0186684880
 26        0.0000290330
 27       -0.0002644551
 28        0.0000000232
 29        0.0000283721
 30       -0.0002655289
 31       -0.0000939005
 32       -0.0001154711
 33        0.0010588943
 34        0.0000938310
 35       -0.0001460111
 36        0.4313690023
 37       -0.0500250747
 38       -0.1036468238
 39        0.0096248114
 40        0.0033968430
 41       -0.0055570598
 42        0.0206998959
 43        0.0035124401
 44       -0.0087014180
 45        0.0011828819
 46       -0.0004848124
 47       -0.0006980695
 48        0.0031333549
 49       -0.0027231630
 50       -0.0019056570
 51       -0.6858635134
 52        0.0795624108
 53        0.1648238541
 54       -0.0045176452
 55        0.0139920957
 56        0.0088362060
 57       -0.0091256292
 58        0.0258461506
 59        0.0138296107
 60        0.0015520286
 61       -0.0026620977
 62        0.0011100691
 63        0.0027270798
 64        0.0014235849
 65       -0.0050114476
 66        0.2544282729
 67       -0.0294998714
 68       -0.0611264435
 69       -0.0066155640
 70       -0.0035498542
 71       -0.0032768817
 72       -0.0135606754
 73       -0.0111422428
 74       -0.0051324856
 75        0.0014996341
 76       -0.0010878159
 77       -0.0004118182
 78        0.0007229733
 79        0.0020392455
 80        0.0001315482
 Sym= A
 Ene= -0.429354293932533     
 Spin= Alpha
 Occup= 1.0
  1        0.0013527161
  2        0.2889009923
  3        0.0036820521
  4        0.0728762847
  5       -0.0000615671
  6        0.0000608706
  7       -0.8153726269
  8        0.0000002993
  9       -0.0000002479
 10        0.0212749272
 11       -0.0000016096
 12        0.0000012760
 13       -0.1103279224
 14        0.0012096495
 15        0.0012117704
 16       -0.0024214199
 17       -0.0000000054
 18        0.0000001984
 19       -0.0000002208
 20        0.0049382433
 21        0.0049414113
 22       -0.0098796546
 23       -0.0000000155
 24        0.0000000477
 25       -0.0000001677
 26       -0.0000250084
 27       -0.0000255533
 28        0.0010245454
 29        0.0000744921
 30        0.0000771933
 31       -0.0015375244
 32        0.0000005332
 33       -0.0000005334
 34       -0.0015361117
 35       -0.0000000045
 36       -0.1891554377
 37        0.0498457871
 38        0.0521744540
 39       -0.0039026032
 40       -0.0038584815
 41       -0.0065056648
 42       -0.0010684326
 43       -0.0010589911
 44       -0.0196451434
 45       -0.0006953209
 46       -0.0006833699
 47        0.0013786908
 48       -0.0011222518
 49       -0.0013862304
 50       -0.0013718974
 51       -0.1890946959
 52        0.0498507341
 53        0.0521816920
 54       -0.0013930098
 55        0.0053087078
 56       -0.0065080573
 57       -0.0003808476
 58        0.0014548185
 59       -0.0196481414
 60       -0.0002005422
 61       -0.0011785141
 62        0.0013790562
 63        0.0005507360
 64       -0.0004946450
 65        0.0018869503
 66       -0.1892140158
 67        0.0498405778
 68        0.0521668732
 69        0.0052930955
 70       -0.0014477079
 71       -0.0065033111
 72        0.0014512268
 73       -0.0003979674
 74       -0.0196422230
 75       -0.0011720658
 76       -0.0002062523
 77        0.0013783181
 78        0.0005715116
 79        0.0018807479
 80       -0.0005148945
 Sym= A
 Ene=  0.136676841099279     
 Spin= Alpha
 Occup= 0.0
  1        0.0093769499
  2        0.3502390636
  3       -0.0151913538
  4        2.7284428668
  5        0.0000570047
  6       -0.0000568099
  7        0.1223526300
  8       -0.0000600424
  9        0.0000613616
 10        0.1726614088
 11       -0.0000348140
 12        0.0000394346
 13        0.6202142319
 14       -0.0004368368
 15       -0.0004319554
 16        0.0008687922
 17        0.0000000446
 18       -0.0000021693
 19        0.0000021774
 20        0.0175594072
 21        0.0175254168
 22       -0.0350848241
 23        0.0000004318
 24       -0.0000141799
 25        0.0000143842
 26        0.0020932040
 27        0.0021610136
 28       -0.0033567993
 29       -0.0062786483
 30       -0.0064839580
 31        0.0050369436
 32       -0.0000009638
 33        0.0000009173
 34        0.0050334544
 35        0.0000000655
 36        0.0018727032
 37       -0.4781855021
 38       -0.9232136812
 39        0.0067270305
 40        0.0066445820
 41        0.0012254970
 42       -0.1650454859
 43       -0.1632135112
 44        0.0633165367
 45       -0.0015213094
 46       -0.0013720798
 47        0.0028933893
 48       -0.0131458869
 49        0.0079708911
 50        0.0078900766
 51        0.0019155076
 52       -0.4783237142
 53       -0.9232094353
 54        0.0024002662
 55       -0.0091386452
 56        0.0012270598
 57       -0.0589031964
 58        0.2245273607
 59        0.0633388276
 60        0.0042801643
 61       -0.0071729966
 62        0.0028928324
 63        0.0064548661
 64        0.0028439264
 65       -0.0108510241
 66        0.0018304922
 67       -0.4780457688
 68       -0.9232182446
 69       -0.0091274831
 70        0.0024940157
 71        0.0012238187
 72        0.2238829340
 73       -0.0612459687
 74        0.0632929112
 75       -0.0071052431
 76        0.0042112781
 77        0.0028939649
 78        0.0066909038
 79       -0.0108152145
 80        0.0029615121
 Sym= A
 Ene=  0.216926565711905     
 Spin= Alpha
 Occup= 0.0
  1        0.0000074265
  2        0.0000195712
  3        0.0000073081
  4        0.0004669682
  5       -0.3633980531
  6        0.0002505118
  7       -0.0000104820
  8       -0.0766961515
  9        0.0000525675
 10        0.0000281298
 11       -1.0328325033
 12        0.0007099480
 13        0.0000845725
 14        0.0008281657
 15       -0.0008284834
 16        0.0000003177
 17       -0.0017083052
 18        0.0029864775
 19       -0.0000020562
 20       -0.0200867196
 21        0.0200919659
 22       -0.0000052462
 23        0.0414319514
 24       -0.0881391639
 25        0.0000605019
 26       -0.0001676498
 27       -0.0000000530
 28        0.0000002129
 29       -0.0001651208
 30        0.0000006254
 31       -0.0006447627
 32        0.0006680702
 33       -0.0000004664
 34        0.0006441240
 35        0.0013290734
 36       -0.0369097518
 37       -0.1171830782
 38       -1.5902797813
 39        0.0059820465
 40        0.0118652695
 41       -0.0077594585
 42       -0.0844404430
 43       -0.1217697786
 44        0.0615949202
 45       -0.0013452479
 46       -0.0014592739
 47        0.0028045218
 48       -0.0078773293
 49        0.0034386950
 50        0.0027349237
 51       -0.0131886995
 52       -0.0420160930
 53       -0.5693710269
 54       -0.0044748452
 55       -0.0058365297
 56       -0.0027793675
 57        0.0229076722
 58        0.0599362516
 59        0.0220610156
 60        0.0007935088
 61       -0.0017970996
 62        0.0010035908
 63        0.0011445078
 64        0.0010254885
 65       -0.0013476203
 66        0.0502172921
 67        0.1588870288
 68        2.1593270140
 69        0.0160799701
 70       -0.0060407814
 71        0.0105311704
 72       -0.1880550930
 73        0.0620048744
 74       -0.0836034063
 75        0.0064893148
 76       -0.0026792918
 77       -0.0038100230
 78       -0.0055108035
 79        0.0057682965
 80       -0.0013943399
 Sym= A
 Ene=  0.216948244021156     
 Spin= Alpha
 Occup= 0.0
  1        0.0000074605
  2        0.0000189854
  3        0.0000073661
  4        0.0004704614
  5        0.0002497449
  6        0.3633683832
  7       -0.0000117958
  8        0.0000530459
  9        0.0767143763
 10        0.0000281355
 11        0.0007118973
 12        1.0327654347
 13        0.0000822414
 14        0.0008535112
 15       -0.0008538528
 16        0.0000003416
 17        0.0016556681
 18       -0.0000020530
 19       -0.0029842406
 20       -0.0207231092
 21        0.0207287991
 22       -0.0000056899
 23       -0.0401972794
 24        0.0000608290
 25        0.0881265594
 26       -0.0000000544
 27        0.0001658726
 28        0.0000002152
 29        0.0000006159
 30        0.0001683978
 31       -0.0006649961
 32       -0.0000004527
 33       -0.0006660156
 34        0.0006643504
 35       -0.0012890953
 36        0.0366224330
 37        0.1159495255
 38        1.5757215691
 39       -0.0118726414
 40       -0.0057435468
 41        0.0076801735
 42        0.1218966868
 43        0.0819717794
 44       -0.0610003715
 45        0.0015335615
 46        0.0012469411
 47       -0.0027805026
 48        0.0078010181
 49       -0.0027430784
 50       -0.0033829474
 51       -0.0502293520
 52       -0.1595793939
 53       -2.1655124367
 54        0.0058280652
 55       -0.0162033595
 56       -0.0105596967
 57       -0.0598271513
 58        0.1893799950
 59        0.0838642056
 60        0.0027432908
 61       -0.0065625487
 62        0.0038192579
 63        0.0053246499
 64        0.0013446199
 65       -0.0057974038
 66        0.0137278702
 67        0.0433140392
 68        0.5894658761
 69        0.0060324059
 70        0.0043570877
 71        0.0028717340
 72       -0.0618972208
 73       -0.0217021813
 74       -0.0228108474
 75        0.0018468145
 76       -0.0008061085
 77       -0.0010407060
 78       -0.0012508905
 79        0.0013914044
 80       -0.0010519689
 Sym= A
 Ene=  0.476878593023211     
 Spin= Alpha
 Occup= 0.0
  1        0.0000408838
  2        0.0000159225
  3       -0.0000015902
  4        0.0014473843
  5       -0.0004326532
  6        0.0330101727
  7       -0.0001349132
  8       -0.0048068739
  9        0.3690152001
 10        0.0001323503
 11       -0.0256116482
 12        1.9646104868
 13        0.0005144607
 14        0.0080865921
 15       -0.0080828703
 16       -0.0000037218
 17        0.0152548037
 18        0.0002868801
 19       -0.0219796888
 20       -0.0889696125
 21        0.0889755117
 22       -0.0000058993
 23       -0.1678860820
 24       -0.0033940840
 25        0.2603999240
 26       -0.0000110613
 27        0.0009066651
 28       -0.0000010194
 29       -0.0000142813
 30        0.0009139255
 31       -0.0140245006
 32        0.0000474651
 33       -0.0036339209
 34        0.0140275589
 35       -0.0264663411
 36        0.2623762630
 37        1.3220421503
 38       -0.0958886445
 39        0.0246118436
 40        0.0372396710
 41       -0.0108765888
 42        0.1498451704
 43        0.1575430328
 44       -0.0924145556
 45        0.0045075602
 46        0.0022898531
 47       -0.0067974133
 48        0.0297978214
 49       -0.0042773689
 50       -0.0212194420
 51       -0.3666681357
 52       -1.8494938443
 53        0.1332242741
 54       -0.0125303829
 55        0.0598775093
 56        0.0152171869
 57       -0.0750874996
 58        0.2949053023
 59        0.1292358789
 60        0.0132597920
 61       -0.0227665440
 62        0.0095067520
 63        0.0210236570
 64        0.0024599083
 65       -0.0253131087
 66        0.1046115771
 67        0.5266290367
 68       -0.0384424893
 69       -0.0135609017
 70        0.0163911973
 71       -0.0043318943
 72       -0.0810628877
 73        0.0314787081
 74       -0.0368205438
 75        0.0071080341
 76       -0.0043995498
 77       -0.0027084843
 78       -0.0038830618
 79        0.0026511971
 80       -0.0174410324
 Sym= A
 Ene=  0.476901667619746     
 Spin= Alpha
 Occup= 0.0
  1        0.0000394961
  2        0.0000170283
  3       -0.0000016336
  4        0.0013908008
  5       -0.0331085978
  6       -0.0004295994
  7       -0.0001289005
  8       -0.3687863385
  9       -0.0048146829
 10        0.0001278259
 11       -1.9645368611
 12       -0.0256278383
 13        0.0004990622
 14        0.0076316141
 15       -0.0076280181
 16       -0.0000035960
 17       -0.0161739432
 18        0.0220014044
 19        0.0002866728
 20       -0.0838690870
 21        0.0838742415
 22       -0.0000051546
 23        0.1778011718
 24       -0.2603921621
 25       -0.0033974999
 26       -0.0009098580
 27       -0.0000109424
 28       -0.0000009911
 29       -0.0009021163
 30       -0.0000144563
 31       -0.0132222433
 32        0.0036316902
 33        0.0000472835
 34        0.0132252166
 35        0.0280332798
 36       -0.2718291938
 37       -1.3719529022
 38        0.0989018196
 39       -0.0384199992
 40       -0.0255763777
 41        0.0112760499
 42       -0.1650128658
 43       -0.1541098897
 44        0.0957285663
 45       -0.0027869815
 46       -0.0042697205
 47        0.0070567020
 48       -0.0309541859
 49        0.0214223681
 50        0.0048054572
 51       -0.0909233383
 52       -0.4594208573
 53        0.0328832801
 54       -0.0158038677
 55        0.0115326015
 56        0.0037761384
 57       -0.0278290823
 58        0.0709081307
 59        0.0320413803
 60        0.0039577004
 61       -0.0063200636
 62        0.0023623632
 63        0.0028564706
 64        0.0173345400
 65       -0.0018900930
 66        0.3630534087
 67        1.8305801292
 68       -0.1328416297
 69       -0.0592456449
 70        0.0125632292
 71       -0.0150433618
 72       -0.2908982970
 73        0.0768877777
 74       -0.1277656890
 75        0.0222930447
 76       -0.0128745634
 77       -0.0094184813
 78       -0.0216433427
 79        0.0251933233
 80       -0.0020808681
 Sym= A
 Ene=  0.595063268307704     
 Spin= Alpha
 Occup= 0.0
  1        0.0768272879
  2        0.1022516918
  3       -0.0787032177
  4        5.1522596006
  5       -0.0000496179
  6        0.0000472424
  7       -0.6953043944
  8       -0.0000416335
  9        0.0000431067
 10        0.1348716626
 11        0.0002943763
 12       -0.0002819011
 13        2.6254238984
 14        0.0024798280
 15        0.0024999376
 16       -0.0049797657
 17        0.0000001044
 18       -0.0000001898
 19       -0.0000001266
 20        0.0320453134
 21        0.0317811841
 22       -0.0638264975
 23       -0.0000000088
 24       -0.0000087438
 25        0.0000102377
 26        0.0034766323
 27        0.0035859324
 28       -0.0075640346
 29       -0.0104218238
 30       -0.0107659400
 31        0.0113608430
 32       -0.0000080731
 33        0.0000081427
 34        0.0113312607
 35       -0.0000000175
 36        0.2771667730
 37       -1.6609395299
 38       -0.7805797626
 39        0.0031178753
 40        0.0030626695
 41        0.0118508885
 42       -0.5234331600
 43       -0.5177676938
 44        0.0815962211
 45       -0.0060927130
 46       -0.0057100138
 47        0.0118027268
 48       -0.0348275946
 49        0.0076342971
 50        0.0075791121
 51        0.2771617614
 52       -1.6607060823
 53       -0.7805589109
 54        0.0011154549
 55       -0.0042234448
 56        0.0118520884
 57       -0.1867484706
 58        0.7120439593
 59        0.0814590645
 60        0.0092645965
 61       -0.0210670046
 62        0.0118024081
 63        0.0170875114
 64        0.0027166843
 65       -0.0103961608
 66        0.2771722415
 67       -1.6611688895
 68       -0.7806041150
 69       -0.0042195305
 70        0.0011466054
 71        0.0118493598
 72        0.7102614291
 73       -0.1943559550
 74        0.0817263982
 75       -0.0208973810
 76        0.0090941973
 77        0.0118031837
 78        0.0177401469
 79       -0.0103844392
 80        0.0028518733
 Sym= A
 Ene=  0.642229620567573     
 Spin= Alpha
 Occup= 0.0
  1        0.0285740457
  2        0.5166115018
  3       -0.0274792387
  4       -0.0479866838
  5        0.0005111042
  6       -0.0005210933
  7        0.0124644569
  8       -0.0006010965
  9        0.0006160260
 10       -0.1919267699
 11       -0.0031462244
 12        0.0032293364
 13        0.5155297220
 14       -0.0043523412
 15       -0.0043266281
 16        0.0086789692
 17       -0.0000000909
 18        0.0000322442
 19       -0.0000331604
 20       -0.0142479993
 21       -0.0138695348
 22        0.0281175342
 23        0.0000026446
 24       -0.0004771027
 25        0.0004899399
 26        0.0016912045
 27        0.0017435230
 28       -0.0009026423
 29       -0.0050681147
 30       -0.0052363097
 31        0.0013338582
 32       -0.0000054990
 33        0.0000057408
 34        0.0013740686
 35        0.0000003022
 36       -0.2689615505
 37       -0.7151472250
 38        0.5120244350
 39       -0.0132038905
 40       -0.0130012409
 41       -0.0024550061
 42        0.1909179871
 43        0.1877566348
 44        0.0688123272
 45       -0.0004975606
 46       -0.0006708858
 47        0.0011684464
 48        0.0096508475
 49        0.0012157336
 50        0.0011908313
 51       -0.2686983427
 52       -0.7175414118
 53        0.5099599110
 54       -0.0047341825
 55        0.0179686416
 56       -0.0024248358
 57        0.0680130524
 58       -0.2578189279
 59        0.0689456639
 60       -0.0047648961
 61        0.0035641706
 62        0.0012007255
 63       -0.0047300356
 64        0.0004462327