
 Primary working directories    : /tmp/943217.49.gen6.q
 Secondary working directories  : /tmp/943217.49.gen6.q
 Wavefunction directory         : /home/vulcan/mel64643/wfu/
 Main file repository           : /tmp/943217.49.gen6.q/

 ARCHNAME  : Linux/x86_64
 FC        : /opt/intel/compilers_and_libraries_2016.1.150/linux/bin/intel64/ifort
 FCVERSION : 16.0.1
 BLASLIB   : -mkl
 id        : ccgc

 Nodes     nprocs
 n079         1
 ga_uses_ma=false, calling ma_init with nominal heap.
 GA-space will be limited to   8.0 MW (determined by -G option)

 Using customized tuning parameters: mindgm=10; mindgv=16; mindgc=4; mindgr=1; noblas=0; mincuda=1000; minvec=7
 default implementation of scratch files=df  

 ***,Optimization of formic acid
 memory,1000,m
 gthresh,energy=1.0d-12,orbital=1.0d-10,oneint=1.0d-16,twoint=1.0d-16,optgrad=1.0d-6,compress=1.0d-13
 geomtyp=xyz
 
 bohr
 geometry = {
  C   -3.4972152225   -0.8293149736   -0.0046833900
  O   -3.0914523496    1.6242217182   -0.0028694046
  O   -1.8816647449   -2.4794398183   -0.0008129986
  H   -5.5163485835   -1.2723209884    0.0043610130
  H   -1.2463210069    1.9547021392    0.0022012369
  C    3.4972152225    0.8293149736    0.0046833900
  O    3.0914523496   -1.6242217182    0.0028694046
  O    1.8816647449    2.4794398183    0.0008129986
  H    5.5163485835    1.2723209884   -0.0043610130
  H    1.2463210069   -1.9547021392   -0.0022012369
 }
 
 basis=VDZ
 {rhf;maxit,200}
 {ccsd(t);maxit,200}

 Variables initialized (661), CPU time= 0.00 sec
 Commands  initialized (458), CPU time= 0.01 sec, 486 directives.
 Default parameters read. Elapsed time= 0.04 sec

 Checking input...
 Passed
1


                                         ***  PROGRAM SYSTEM MOLPRO  ***
                         Copyright, University College Cardiff Consultants Limited, 2008

                                    Version 2010.1 linked May 16 2016 07:17:05


 **********************************************************************************************************************************
 LABEL *   Optimization of formic acid                                                   
 Linux-4.4.3/n079(x86_64) 64 bit mpp version                                             DATE: 24-Oct-23          TIME: 10:33:18  
 **********************************************************************************************************************************

 SHA1:             9e8077add272b0f3cad6f7df79ec5211205f459d
 **********************************************************************************************************************************

 THRESHOLDS:

 ZERO    =  1.00D-12  ONEINT  =  1.00D-16  TWOINT  =  1.00D-16  PREFAC  =  1.00D-14  LOCALI  =  1.00D-09  EORDER  =  1.00D-04
 ENERGY  =  1.00D-12  ETEST   =  0.00D+00  EDENS   =  0.00D+00  THRDEDEF=  1.00D-06  GRADIENT=  1.00D-02  STEP    =  1.00D-03
 ORBITAL =  1.00D-10  CIVEC   =  1.00D-05  COEFF   =  1.00D-04  PRINTCI =  5.00D-02  PUNCHCI =  9.90D+01  OPTGRAD =  1.00D-06
 OPTENERG=  1.00D-06  OPTSTEP =  3.00D-04  THRGRAD =  1.00D-10  COMPRESS=  1.00D-13  VARMIN  =  1.00D-07  VARMAX  =  1.00D-03
 THRDOUB =  0.00D+00  THRDIV  =  1.00D-05  THRRED  =  1.00D-07  THRPSP  =  1.00D+00  THRDC   =  1.00D-10  THRCS   =  1.00D-10
 THRNRM  =  1.00D-08  THREQ   =  0.00D+00  THRDE   =  1.00D+00  THRREF  =  1.00D-05  SPARFAC =  1.00D+00  THRDLP  =  1.00D-07
 THRDIA  =  1.00D-10  THRDLS  =  1.00D-07  THRGPS  =  0.00D+00  THRKEX  =  0.00D+00  THRDIS  =  2.00D-01  THRVAR  =  1.00D-10
 THRLOC  =  1.00D-06  THRGAP  =  1.00D-06  THRLOCT = -1.00D+00  THRGAPT = -1.00D+00  THRORB  =  1.00D-06  THRMLTP =  0.00D+00
 THRCPQCI=  1.00D-10  KEXTA   =  0.00D+00  THRCOARS=  0.00D+00  SYMTOL  =  1.00D-06  GRADTOL =  1.00D-06  THROVL  =  1.00D-08
 THRORTH =  1.00D-08  GRID    =  1.00D-06  GRIDMAX =  1.00D-03  DTMAX   =  0.00D+00

 SETTING GEOMTYP        =    XYZ
 ZUNIT=BOHR
 

 Variable memory set to 1000000000 words,  buffer space   230000 words

 SETTING BASIS          =    VDZ


 Recomputing integrals since basis changed


 Using spherical harmonics

 Library entry C      S cc-pVDZ              selected for orbital group  1
 Library entry C      P cc-pVDZ              selected for orbital group  1
 Library entry C      D cc-pVDZ              selected for orbital group  1
 Library entry O      S cc-pVDZ              selected for orbital group  2
 Library entry O      P cc-pVDZ              selected for orbital group  2
 Library entry O      D cc-pVDZ              selected for orbital group  2
 Library entry H      S cc-pVDZ              selected for orbital group  3
 Library entry H      P cc-pVDZ              selected for orbital group  3

1PROGRAM * SEWARD (Integral evaluation for generally contracted gaussian basis sets)     Author: Roland Lindh, 1990

 Geometry written to block  1 of record 700


 Point group  Ci  



 ATOMIC COORDINATES

 NR  ATOM    CHARGE       X              Y              Z

   1  C       6.00   -3.497215222   -0.829314974   -0.004683390
   2  C       6.00    3.497215222    0.829314974    0.004683390
   3  O       8.00   -3.091452350    1.624221718   -0.002869405
   4  O       8.00    3.091452350   -1.624221718    0.002869405
   5  O       8.00   -1.881664745   -2.479439818   -0.000812999
   6  O       8.00    1.881664745    2.479439818    0.000812999
   7  H       1.00   -5.516348584   -1.272320988    0.004361013
   8  H       1.00    5.516348584    1.272320988   -0.004361013
   9  H       1.00   -1.246321007    1.954702139    0.002201237
  10  H       1.00    1.246321007   -1.954702139   -0.002201237

 Bond lengths in Bohr (Angstrom)

 1-3  2.486863305  1-5  2.309313822  1-7  2.067180606  2-4  2.486863305  2-6  2.309313822
     ( 1.315991383)     ( 1.222036243)     ( 1.093904864)     ( 1.315991383)     ( 1.222036243)

  2- 8  2.067180606   3- 9  1.874500651   4-10  1.874500651
       ( 1.093904864)       ( 0.991943023)       ( 0.991943023)

 Bond angles

  1- 3- 9  109.54509198   2- 4-10  109.54509198   3- 1- 5  126.21591208   3- 1- 7  111.76493324

  4-2-6  126.21591208   4-2-8  111.76493324   5-1-7  122.01768708   6-2-8  122.01768708

 NUCLEAR CHARGE:                   48
 NUMBER OF PRIMITIVE AOS:         190
 NUMBER OF SYMMETRY AOS:          184
 NUMBER OF CONTRACTIONS:          104   (  52Ag  +  52Au  )
 NUMBER OF CORE ORBITALS:           6   (   3Ag  +   3Au  )
 NUMBER OF VALENCE ORBITALS:       28   (  14Ag  +  14Au  )


 NUCLEAR REPULSION ENERGY  235.66108008


 Eigenvalues of metric

         1 0.817E-02 0.138E-01 0.166E-01 0.298E-01 0.374E-01 0.441E-01 0.554E-01 0.933E-01
         2 0.870E-02 0.140E-01 0.165E-01 0.306E-01 0.353E-01 0.439E-01 0.528E-01 0.962E-01


 Contracted 2-electron integrals neglected if value below      1.0D-16
 AO integral compression algorithm  1   Integral accuracy      1.0D-16

     73.138 MB (compressed) written to integral file ( 96.3%)

     Node minimum: 73.138 MB, node maximum: 73.138 MB


 NUMBER OF SORTED TWO-ELECTRON INTEGRALS:    7596914.     BUFFER LENGTH:  32768
 NUMBER OF SEGMENTS:   1  SEGMENT LENGTH:    7596914      RECORD LENGTH: 524288

 Memory used in sort:       8.15 MW

 SORT1 READ     9494560. AND WROTE     7596914. INTEGRALS IN     22 RECORDS. CPU TIME:     0.08 SEC, REAL TIME:     0.13 SEC
 SORT2 READ     7596914. AND WROTE     7596914. INTEGRALS IN    279 RECORDS. CPU TIME:     0.10 SEC, REAL TIME:     0.13 SEC

 FILE SIZES:   FILE 1:    62.2 MBYTE,  FILE 4:    92.3 MBYTE,   TOTAL:    154.5 MBYTE

 OPERATOR DM      FOR CENTER  0  COORDINATES:    0.000000    0.000000    0.000000


 **********************************************************************************************************************************
 DATASETS  * FILE   NREC   LENGTH (MB)   RECORD NAMES
              1      19       62.24       500      610      700      900      950      970     1000      129      960     1100   
                                          VAR    BASINP    GEOM    SYMINP    ZMAT    AOBASIS   BASIS     P2S    ABASIS      S 
                                         1400     1410     1200     1210     1080     1600     1650     1300     1700   
                                           T        V       H0       H01     AOSYM     SMH    MOLCAS    ERIS     OPER   

 PROGRAMS   *        TOTAL       INT
 CPU TIMES  *         1.07      1.03
 REAL TIME  *         1.36 SEC
 DISK USED  *       228.41 MB      
 GA USED    *         0.00 MB       (max)       0.00 MB       (current)
 **********************************************************************************************************************************

1PROGRAM * RHF-SCF (CLOSED SHELL)       Authors: W. Meyer, H.-J. Werner


 NUMBER OF ELECTRONS:      24+   24-
 CONVERGENCE THRESHOLDS:    1.00E-10 (Density)    1.00E-13 (Energy)
 MAX. NUMBER OF ITERATIONS:      200
 INTERPOLATION TYPE:            DIIS
 INTERPOLATION STEPS:              2 (START)      1 (STEP)
 LEVEL SHIFTS:                  0.00 (CLOSED)  0.00 (OPEN) 



 Orbital guess generated from atomic densities. Full valence occupancy:   17  17

 Molecular orbital dump at record        2100.2

 Initial alpha occupancy:  12  12
 Initial beta  occupancy:  12  12
 Wave function symmetry:    1

 ITERATION    DDIFF          GRAD             ENERGY        2-EL.EN.            DIPOLE MOMENTS         DIIS
    1      0.000D+00      0.000D+00      -377.44992555    747.306283    0.00000    0.00000    0.00000    0
    2      0.000D+00      0.156D-01      -377.53774557    744.454836    0.00000    0.00000    0.00000    1
    3      0.307D-01      0.964D-02      -377.58449606    746.704760    0.00000    0.00000    0.00000    2
    4      0.112D-01      0.136D-02      -377.58598640    746.424404    0.00000    0.00000    0.00000    3
    5      0.218D-02      0.566D-03      -377.58624669    746.450347    0.00000    0.00000    0.00000    4
    6      0.897D-03      0.162D-03      -377.58629260    746.494541    0.00000    0.00000    0.00000    5
    7      0.310D-03      0.739D-04      -377.58630386    746.479421    0.00000    0.00000    0.00000    6
    8      0.185D-03      0.220D-04      -377.58630486    746.484606    0.00000    0.00000    0.00000    7
    9      0.578D-04      0.742D-05      -377.58630496    746.483161    0.00000    0.00000    0.00000    8
   10      0.201D-04      0.203D-05      -377.58630497    746.483329    0.00000    0.00000    0.00000    7
   11      0.566D-05      0.497D-06      -377.58630497    746.483274    0.00000    0.00000    0.00000    8
   12      0.132D-05      0.140D-06      -377.58630497    746.483296    0.00000    0.00000    0.00000    7
   13      0.364D-06      0.560D-07      -377.58630497    746.483284    0.00000    0.00000    0.00000    8
   14      0.106D-06      0.170D-07      -377.58630497    746.483286    0.00000    0.00000    0.00000    7
   15      0.435D-07      0.508D-08      -377.58630497    746.483286    0.00000    0.00000    0.00000    7
   16      0.902D-08      0.141D-08      -377.58630497    746.483286    0.00000    0.00000    0.00000    7
   17      0.287D-08      0.551D-09      -377.58630497    746.483286    0.00000    0.00000    0.00000    7
   18      0.109D-08      0.166D-09      -377.58630497    746.483286    0.00000    0.00000    0.00000    8
   19      0.404D-09      0.551D-10      -377.58630497    746.483286    0.00000    0.00000    0.00000    8
   20      0.136D-09      0.141D-10      -377.58630497    746.483286    0.00000    0.00000    0.00000    7
   21      0.364D-10      0.482D-11      -377.58630497    746.483286    0.00000    0.00000    0.00000    7
   22      0.122D-10      0.214D-11      -377.58630497    746.483286    0.00000    0.00000    0.00000    8
   23      0.549D-11      0.914D-12      -377.58630497    746.483286    0.00000    0.00000    0.00000    0

 Final occupancy:  12  12

 !RHF STATE 1.1 Energy               -377.586304966893
 Nuclear energy                       235.66108008
 One-electron energy                 -986.48902797
 Two-electron energy                  373.24164293
 Virial quotient                       -1.00119424
 !RHF STATE 1.1 Dipole moment           0.00000000     0.00000000     0.00000000
 Dipole moment /Debye                   0.00000000     0.00000000     0.00000000

 Orbital energies:

         1.1          2.1          3.1          4.1          5.1          6.1          7.1          8.1          9.1         10.1
    -20.613673   -20.575395   -11.412048    -1.482510    -1.369838    -0.915065    -0.728161    -0.689100    -0.628895    -0.615356

        11.1         12.1         13.1         14.1
     -0.498479    -0.489563     0.165980     0.204256

         1.2          2.2          3.2          4.2          5.2          6.2          7.2          8.2          9.2         10.2
    -20.613671   -20.575395   -11.412048    -1.469713    -1.383919    -0.879163    -0.763566    -0.719322    -0.638529    -0.573971

        11.2         12.2         13.2         14.2
     -0.487738    -0.467755     0.160881     0.209781


 **********************************************************************************************************************************
 DATASETS  * FILE   NREC   LENGTH (MB)   RECORD NAMES
              1      19       62.24       500      610      700      900      950      970     1000      129      960     1100   
                                          VAR    BASINP    GEOM    SYMINP    ZMAT    AOBASIS   BASIS     P2S    ABASIS      S 
                                         1400     1410     1200     1210     1080     1600     1650     1300     1700   
                                           T        V       H0       H01     AOSYM     SMH    MOLCAS    ERIS     OPER   

              2       3        0.53       700     1000     2100   
                                         GEOM     BASIS     RHF  

 PROGRAMS   *        TOTAL       RHF       INT
 CPU TIMES  *         1.84      0.77      1.03
 REAL TIME  *         2.27 SEC
 DISK USED  *       228.41 MB      
 GA USED    *         0.00 MB       (max)       0.00 MB       (current)
 **********************************************************************************************************************************


1PROGRAM * CCSD (Closed-shell coupled cluster)     Authors: C. Hampel, H.-J. Werner, 1991, M. Deegan, P.J. Knowles, 1992


 Convergence thresholds:  THRVAR = 1.00D-08  THRDEN = 1.00D-12

 CCSD(T)     terms to be evaluated (factor= 1.000)


 Number of core orbitals:           6 (   3   3 )
 Number of closed-shell orbitals:  18 (   9   9 )
 Number of external orbitals:      80 (  40  40 )

 Molecular orbitals read from record     2100.2  Type=RHF/CANONICAL (state 1.1)

 Number of N-1 electron functions:              18
 Number of N-2 electron functions:             171
 Number of singly external CSFs:               720
 Number of doubly external CSFs:            519120
 Total number of CSFs:                      519841

 Length of J-op  integral file:               0.00 MB
 Length of K-op  integral file:               0.41 MB
 Length of 3-ext integral record:             0.00 MB

 Memory could be reduced to 6.90 Mwords without degradation in triples

 Integral transformation finished. Total CPU:   0.28 sec, npass=  1  Memory used:   5.16 MW

 Reference energy:                   -377.58630497

 MP2 singlet pair energy:              -0.59888749
 MP2 triplet pair energy:              -0.40677993
 MP2 correlation energy:               -1.00566742
 MP2 total energy:                   -378.59197238

 SCS-MP2 correlation energy:           -0.97177250   (PS=  1.200000  PT=  0.333333)
 SCS-MP2 total energy:               -378.55807746

 ITER.      SQ.NORM     CORR.ENERGY   TOTAL ENERGY   ENERGY CHANGE        DEN1      VAR(S)    VAR(P)  DIIS     TIME
   1      1.28140522    -1.02596221  -378.61226718    -0.02029480     0.01042121  0.10D-01  0.55D-02  1  1     0.93
   2      1.30504181    -1.02783988  -378.61414485    -0.00187767    -0.02502696  0.25D-03  0.10D-02  2  2     1.59
   3      1.31803517    -1.02878692  -378.61509189    -0.00094704    -0.00594081  0.20D-03  0.42D-04  3  3     2.25
   4      1.32336669    -1.02855340  -378.61485837     0.00023352    -0.00174790  0.18D-04  0.71D-05  4  4     2.91
   5      1.32542701    -1.02846384  -378.61476880     0.00008956    -0.00045738  0.11D-05  0.68D-06  5  5     3.58
   6      1.32576977    -1.02844347  -378.61474844     0.00002037    -0.00001555  0.10D-06  0.60D-07  6  6     4.24
   7      1.32583822    -1.02843588  -378.61474084     0.00000759    -0.00000446  0.78D-08  0.88D-08  6  2     4.91
   8      1.32584141    -1.02843673  -378.61474170    -0.00000085     0.00000208  0.15D-08  0.88D-09  6  1     5.57
   9      1.32584218    -1.02843641  -378.61474137     0.00000032     0.00000091  0.32D-09  0.15D-09  6  4     6.24
  10      1.32584397    -1.02843625  -378.61474122     0.00000015    -0.00000061  0.90D-10  0.25D-10  6  3     6.91
  11      1.32584346    -1.02843638  -378.61474134    -0.00000012     0.00000025  0.20D-10  0.52D-11  6  5     7.58
  12      1.32584311    -1.02843639  -378.61474136    -0.00000001     0.00000005  0.27D-11  0.11D-11  6  6     8.25
  13      1.32584279    -1.02843643  -378.61474140    -0.00000004     0.00000013  0.31D-12  0.20D-12  6  1     8.92
  14      1.32584268    -1.02843644  -378.61474140    -0.00000000     0.00000002  0.32D-13  0.23D-13  6  2     9.59
  15      1.32584264    -1.02843644  -378.61474140    -0.00000000     0.00000001  0.76D-14  0.30D-14  6  4    10.26
  16      1.32584263    -1.02843644  -378.61474141    -0.00000000     0.00000000  0.15D-14  0.70D-15  6  5    10.93
  17      1.32584263    -1.02843644  -378.61474141    -0.00000000    -0.00000000  0.34D-15  0.94D-16  6  3    11.61
  18      1.32584263    -1.02843644  -378.61474141    -0.00000000     0.00000000  0.12D-15  0.26D-16  6  6    12.28
  19      1.32584263    -1.02843644  -378.61474141    -0.00000000     0.00000000  0.32D-16  0.79D-17  6  1    12.95
  20      1.32584263    -1.02843644  -378.61474141     0.00000000    -0.00000000  0.63D-17  0.18D-17  6  2    13.62
  21      1.32584263    -1.02843644  -378.61474141     0.00000000     0.00000000  0.12D-17  0.44D-18  6  4    14.30
  22      1.32584263    -1.02843644  -378.61474141     0.00000000    -0.00000000  0.24D-18  0.77D-19  6  5    14.96
  23      1.32584263    -1.02843644  -378.61474141     0.00000000    -0.00000000  0.37D-19  0.17D-19  6  3    15.63
  24      1.32584263    -1.02843644  -378.61474141    -0.00000000    -0.00000000  0.55D-20  0.35D-20  6  6    16.30
  25      1.32584263    -1.02843644  -378.61474141     0.00000000    -0.00000000  0.14D-20  0.73D-21  6  1    16.96

 Norm of t1 vector:      0.15232845      S-energy:     0.00000000      T1 diagnostic:  0.01795208
                                                                       D1 diagnostic:  0.06491705

 Singles amplitudes (print threshold =  0.500E-01):

         I         SYM. A    A   T(IA)

         6         1         1      0.06117838
        15         2         1      0.05936384


 Total CPU time for triples:      9.03 sec


 RESULTS
 =======

  Reference energy                   -377.586304966893
  CCSD singlet pair energy             -0.670686604557
  CCSD triplet pair energy             -0.357749834499
  CCSD correlation energy              -1.028436439055

  Triples (T) contribution             -0.031875200756
  Total correlation energy             -1.060311639812

  CCSD total energy                  -378.614741405949
  CCSD[T] energy                     -378.649897599793
  CCSD-T energy                      -378.645537619052
 !CCSD(T) total energy               -378.646616606705

 Timing summary (sec):

 STEP                 CPU(USER)    SYS     CPU(TOT)    WALL
 Transformation          0.30      0.05      0.35      0.36
 CCSD iterations        16.66      0.75     17.41     17.52
 Triples                 9.03      0.30      9.33      9.34

 Program statistics:

 Available memory in ccsd:               999998604
 Min. memory needed in ccsd:               1434204
 Max. memory used in ccsd:                 1896588
 Max. memory used in cckext:               2097662 (25 integral passes)



 **********************************************************************************************************************************
 DATASETS  * FILE   NREC   LENGTH (MB)   RECORD NAMES
              1      20       92.54       500      610      700      900      950      970     1000      129      960     1100   
                                          VAR    BASINP    GEOM    SYMINP    ZMAT    AOBASIS   BASIS     P2S    ABASIS      S 
                                         1400     1410     1200     1210     1080     1600     1650     1300     1700     1380   
                                           T        V       H0       H01     AOSYM     SMH    MOLCAS    ERIS     OPER     JKOP   

              2       3        0.53       700     1000     2100   
                                         GEOM     BASIS     RHF  

 PROGRAMS   *        TOTAL   CCSD(T)       RHF       INT
 CPU TIMES  *        27.84     26.00      0.77      1.03
 REAL TIME  *        29.52 SEC
 DISK USED  *       258.44 MB      
 GA USED    *         0.00 MB       (max)       0.00 MB       (current)
 **********************************************************************************************************************************

        CCSD(T)         RHF-SCF 
   -378.64661661   -377.58630497
 **********************************************************************************************************************************
 Variable memory released
