
 Primary working directories    : /tmp/999602.371.gen6.q
 Secondary working directories  : /tmp/999602.371.gen6.q
 Wavefunction directory         : /home/vulcan/jj04645/wfu/
 Main file repository           : /tmp/999602.371.gen6.q/

 ARCHNAME  : Linux/x86_64
 FC        : /opt/intel/compilers_and_libraries_2016.1.150/linux/bin/intel64/ifort
 FCVERSION : 16.0.1
 BLASLIB   : -mkl
 id        : ccgc

 Nodes     nprocs
 n075         1
 ga_uses_ma=false, calling ma_init with nominal heap.
 GA-space will be limited to   8.0 MW (determined by -G option)

 Using customized tuning parameters: mindgm=10; mindgv=16; mindgc=4; mindgr=1; noblas=0; mincuda=1000; minvec=7
 default implementation of scratch files=df  

 ***,Optimization of 1,3-difluorobenzene
 memory,1000,m
 gthresh,energy=1.0d-12,orbital=1.0d-10,oneint=1.0d-16,twoint=1.0d-16,optgrad=1.0d-6,compress=1.0d-13
 geomtyp=xyz
 
 bohr
 geometry = {
  F    0.0123340715    4.4273409610   -1.7578398721
  C   -0.0042590474    2.2417854504   -0.4821998969
  C   -0.0015803471   -2.2981116329    2.1440205952
  C   -0.0056563945   -0.0000000000   -1.8521707082
  C   -0.0015803471    2.2981116329    2.1440205952
  C   -0.0002562820    0.0000000000    3.4421450840
  C   -0.0042590474   -2.2417854504   -0.4821998969
  H   -0.0077385827    0.0000000000   -3.8935656392
  H   -0.0005838477    4.0917016729    3.1209970686
  H    0.0018296004    0.0000000000    5.4871619093
  F    0.0123340715   -4.4273409610   -1.7578398721
  H   -0.0005838477   -4.0917016729    3.1209970686
 }
 
 basis=VDZ
 {rhf;maxit,200}
 {ccsd(t);maxit,200}

 Variables initialized (661), CPU time= 0.01 sec
 Commands  initialized (458), CPU time= 0.00 sec, 486 directives.
 Default parameters read. Elapsed time= 0.04 sec

 Checking input...
 Passed
1


                                         ***  PROGRAM SYSTEM MOLPRO  ***
                         Copyright, University College Cardiff Consultants Limited, 2008

                                    Version 2010.1 linked May 16 2016 07:17:05


 **********************************************************************************************************************************
 LABEL *   Optimization of 1,3-difluorobenzene                                           
 Linux-4.4.3/n075(x86_64) 64 bit mpp version                                             DATE: 07-Feb-24          TIME: 14:52:22  
 **********************************************************************************************************************************

 SHA1:             9e8077add272b0f3cad6f7df79ec5211205f459d
 **********************************************************************************************************************************

 THRESHOLDS:

 ZERO    =  1.00D-12  ONEINT  =  1.00D-16  TWOINT  =  1.00D-16  PREFAC  =  1.00D-14  LOCALI  =  1.00D-09  EORDER  =  1.00D-04
 ENERGY  =  1.00D-12  ETEST   =  0.00D+00  EDENS   =  0.00D+00  THRDEDEF=  1.00D-06  GRADIENT=  1.00D-02  STEP    =  1.00D-03
 ORBITAL =  1.00D-10  CIVEC   =  1.00D-05  COEFF   =  1.00D-04  PRINTCI =  5.00D-02  PUNCHCI =  9.90D+01  OPTGRAD =  1.00D-06
 OPTENERG=  1.00D-06  OPTSTEP =  3.00D-04  THRGRAD =  1.00D-10  COMPRESS=  1.00D-13  VARMIN  =  1.00D-07  VARMAX  =  1.00D-03
 THRDOUB =  0.00D+00  THRDIV  =  1.00D-05  THRRED  =  1.00D-07  THRPSP  =  1.00D+00  THRDC   =  1.00D-10  THRCS   =  1.00D-10
 THRNRM  =  1.00D-08  THREQ   =  0.00D+00  THRDE   =  1.00D+00  THRREF  =  1.00D-05  SPARFAC =  1.00D+00  THRDLP  =  1.00D-07
 THRDIA  =  1.00D-10  THRDLS  =  1.00D-07  THRGPS  =  0.00D+00  THRKEX  =  0.00D+00  THRDIS  =  2.00D-01  THRVAR  =  1.00D-10
 THRLOC  =  1.00D-06  THRGAP  =  1.00D-06  THRLOCT = -1.00D+00  THRGAPT = -1.00D+00  THRORB  =  1.00D-06  THRMLTP =  0.00D+00
 THRCPQCI=  1.00D-10  KEXTA   =  0.00D+00  THRCOARS=  0.00D+00  SYMTOL  =  1.00D-06  GRADTOL =  1.00D-06  THROVL  =  1.00D-08
 THRORTH =  1.00D-08  GRID    =  1.00D-06  GRIDMAX =  1.00D-03  DTMAX   =  0.00D+00

 SETTING GEOMTYP        =    XYZ
 ZUNIT=BOHR
 

 Variable memory set to 1000000000 words,  buffer space   230000 words

 SETTING BASIS          =    VDZ


 Recomputing integrals since basis changed


 Using spherical harmonics

 Library entry F      S cc-pVDZ              selected for orbital group  1
 Library entry F      P cc-pVDZ              selected for orbital group  1
 Library entry F      D cc-pVDZ              selected for orbital group  1
 Library entry C      S cc-pVDZ              selected for orbital group  2
 Library entry C      P cc-pVDZ              selected for orbital group  2
 Library entry C      D cc-pVDZ              selected for orbital group  2
 Library entry H      S cc-pVDZ              selected for orbital group  3
 Library entry H      P cc-pVDZ              selected for orbital group  3

1PROGRAM * SEWARD (Integral evaluation for generally contracted gaussian basis sets)     Author: Roland Lindh, 1990

 Geometry written to block  1 of record 700


 Point group  Cs  



 ATOMIC COORDINATES

 NR  ATOM    CHARGE       X              Y              Z

   1  F       9.00    0.012334072    4.427340961   -1.757839872
   2  F       9.00    0.012334072   -4.427340961   -1.757839872
   3  C       6.00   -0.004259047    2.241785450   -0.482199897
   4  C       6.00   -0.004259047   -2.241785450   -0.482199897
   5  C       6.00   -0.001580347   -2.298111633    2.144020595
   6  C       6.00   -0.001580347    2.298111633    2.144020595
   7  C       6.00   -0.005656395    0.000000000   -1.852170708
   8  C       6.00   -0.000256282    0.000000000    3.442145084
   9  H       1.00   -0.007738583    0.000000000   -3.893565639
  10  H       1.00   -0.000583848    4.091701673    3.120997069
  11  H       1.00   -0.000583848   -4.091701673    3.120997069
  12  H       1.00    0.001829600    0.000000000    5.487161909

 Bond lengths in Bohr (Angstrom)

 1-3  2.530649238  2-4  2.530649238  3-6  2.626825820  3-7  2.627246464  4-5  2.626825820
     ( 1.339161901)     ( 1.339161901)     ( 1.390056356)     ( 1.390278951)     ( 1.390056356)

  4- 7  2.627246464   5- 8  2.639402587   5-11  2.042412606   6- 8  2.639402587   6-10  2.042412606
       ( 1.390278951)       ( 1.396711695)       ( 1.080798203)       ( 1.396711695)       ( 1.080798203)

  7- 9  2.041395993   8-12  2.045017889
       ( 1.080260234)       ( 1.082176859)

 Bond angles

  1-3-6  119.04095608   1-3-7  118.29940021   2-4-5  119.04095608   2-4-7  118.29940021

  3- 6- 8  118.23195969   3- 6-10  119.80600820   3- 7- 4  117.14118413   3- 7- 9  121.42940793

  4- 5- 8  118.23195969   4- 5-11  119.80600820   4- 7- 9  121.42940793   5- 4- 7  122.65807710

  5- 8- 6  121.07874228   5- 8-12  119.46062886   6- 3- 7  122.65807710   6- 8-12  119.46062886

  8- 5-11  121.96203210   8- 6-10  121.96203210

 NUCLEAR CHARGE:                   58
 NUMBER OF PRIMITIVE AOS:         244
 NUMBER OF SYMMETRY AOS:          236
 NUMBER OF CONTRACTIONS:          132   (  75A'  +  57A"  )
 NUMBER OF CORE ORBITALS:           8   (   5A'  +   3A"  )
 NUMBER OF VALENCE ORBITALS:       36   (  21A'  +  15A"  )


 NUCLEAR REPULSION ENERGY  342.61990260


 Eigenvalues of metric

         1 0.394E-03 0.169E-02 0.305E-02 0.129E-01 0.148E-01 0.201E-01 0.238E-01 0.265E-01
         2 0.120E-02 0.263E-02 0.315E-02 0.125E-01 0.219E-01 0.267E-01 0.396E-01 0.618E-01


 Contracted 2-electron integrals neglected if value below      1.0D-16
 AO integral compression algorithm  1   Integral accuracy      1.0D-16

     162.529 MB (compressed) written to integral file ( 89.7%)

     Node minimum: 162.529 MB, node maximum: 162.529 MB


 NUMBER OF SORTED TWO-ELECTRON INTEGRALS:   19562856.     BUFFER LENGTH:  32768
 NUMBER OF SEGMENTS:   2  SEGMENT LENGTH:   15997506      RECORD LENGTH: 524288

 Memory used in sort:      16.55 MW

 SORT1 READ    22601070. AND WROTE    19311055. INTEGRALS IN     57 RECORDS. CPU TIME:     0.24 SEC, REAL TIME:     0.35 SEC
 SORT2 READ    19311055. AND WROTE    19562856. INTEGRALS IN    620 RECORDS. CPU TIME:     0.23 SEC, REAL TIME:     0.32 SEC

 FILE SIZES:   FILE 1:   146.7 MBYTE,  FILE 4:   239.1 MBYTE,   TOTAL:    385.8 MBYTE

 OPERATOR DM      FOR CENTER  0  COORDINATES:    0.000000    0.000000    0.000000


 **********************************************************************************************************************************
 DATASETS  * FILE   NREC   LENGTH (MB)   RECORD NAMES
              1      19      146.81       500      610      700      900      950      970     1000      129      960     1100   
                                          VAR    BASINP    GEOM    SYMINP    ZMAT    AOBASIS   BASIS     P2S    ABASIS      S 
                                         1400     1410     1200     1210     1080     1600     1650     1300     1700   
                                           T        V       H0       H01     AOSYM     SMH    MOLCAS    ERIS     OPER   

 PROGRAMS   *        TOTAL       INT
 CPU TIMES  *         2.37      2.33
 REAL TIME  *         2.85 SEC
 DISK USED  *       549.20 MB      
 GA USED    *         0.00 MB       (max)       0.00 MB       (current)
 **********************************************************************************************************************************

1PROGRAM * RHF-SCF (CLOSED SHELL)       Authors: W. Meyer, H.-J. Werner


 NUMBER OF ELECTRONS:      29+   29-
 CONVERGENCE THRESHOLDS:    1.00E-10 (Density)    1.00E-13 (Energy)
 MAX. NUMBER OF ITERATIONS:      200
 INTERPOLATION TYPE:            DIIS
 INTERPOLATION STEPS:              2 (START)      1 (STEP)
 LEVEL SHIFTS:                  0.00 (CLOSED)  0.00 (OPEN) 



 Orbital guess generated from atomic densities. Full valence occupancy:   26  18

 Molecular orbital dump at record        2100.2

 Initial alpha occupancy:  17  12
 Initial beta  occupancy:  17  12
 Wave function symmetry:    1

 ITERATION    DDIFF          GRAD             ENERGY        2-EL.EN.            DIPOLE MOMENTS         DIIS
    1      0.000D+00      0.000D+00      -428.34436861    993.565632   -0.01201    0.00000    0.46140    0
    2      0.000D+00      0.845D-02      -428.41839016    993.097823   -0.00382    0.00000    0.91406    1
    3      0.174D-01      0.381D-02      -428.43211191    993.426404   -0.00677    0.00000    0.60991    2
    4      0.552D-02      0.101D-02      -428.43365750    993.485203   -0.00602    0.00000    0.72463    3
    5      0.208D-02      0.308D-03      -428.43379182    993.448943   -0.00605    0.00000    0.69112    4
    6      0.520D-03      0.637D-04      -428.43379938    993.458066   -0.00604    0.00000    0.69550    5
    7      0.137D-03      0.192D-04      -428.43380039    993.461382   -0.00603    0.00000    0.69390    6
    8      0.457D-04      0.676D-05      -428.43380052    993.460672   -0.00603    0.00000    0.69431    7
    9      0.152D-04      0.304D-05      -428.43380055    993.461048   -0.00603    0.00000    0.69405    8
   10      0.799D-05      0.115D-05      -428.43380055    993.461586   -0.00603    0.00000    0.69411    8
   11      0.355D-05      0.654D-06      -428.43380055    993.461501   -0.00603    0.00000    0.69409    8
   12      0.220D-05      0.264D-06      -428.43380055    993.461594   -0.00603    0.00000    0.69409    8
   13      0.131D-05      0.454D-07      -428.43380055    993.461621   -0.00603    0.00000    0.69409    8
   14      0.153D-06      0.171D-07      -428.43380055    993.461615   -0.00603    0.00000    0.69409    9
   15      0.588D-07      0.399D-08      -428.43380055    993.461615   -0.00603    0.00000    0.69409    9
   16      0.121D-07      0.153D-08      -428.43380055    993.461616   -0.00603    0.00000    0.69409    9
   17      0.485D-08      0.578D-09      -428.43380055    993.461616   -0.00603    0.00000    0.69409    8
   18      0.172D-08      0.119D-09      -428.43380055    993.461616   -0.00603    0.00000    0.69409    7
   19      0.309D-09      0.408D-10      -428.43380055    993.461616   -0.00603    0.00000    0.69409    7
   20      0.111D-09      0.144D-10      -428.43380055    993.461616   -0.00603    0.00000    0.69409    8
   21      0.273D-10      0.330D-11      -428.43380055    993.461616   -0.00603    0.00000    0.69409    8
   22      0.733D-11      0.121D-11      -428.43380055    993.461616   -0.00603    0.00000    0.69409    8
   23      0.350D-11      0.511D-12      -428.43380055    993.461616   -0.00603    0.00000    0.69409    8
   24      0.198D-11      0.143D-12      -428.43380055    993.461616   -0.00603    0.00000    0.69409    7
   25      0.113D-11      0.959D-13      -428.43380055    993.461616   -0.00603    0.00000    0.69409    8
   26      0.820D-12      0.537D-13      -428.43380055    993.461616   -0.00603    0.00000    0.69409    9
   27      0.422D-12      0.538D-13      -428.43380055    993.461616   -0.00603    0.00000    0.69409    9
   28      0.286D-12      0.349D-13      -428.43380055    993.461616   -0.00603    0.00000    0.69409    0

 Final occupancy:  17  12

 !RHF STATE 1.1 Energy               -428.433800553915
 Nuclear energy                       342.61990260
 One-electron energy                -1267.78451105
 Two-electron energy                  496.73080789
 Virial quotient                       -1.00055620
 !RHF STATE 1.1 Dipole moment          -0.00602991     0.00000000     0.69409086
 Dipole moment /Debye                  -0.01532551     0.00000000     1.76408746

 Orbital energies:

         1.1          2.1          3.1          4.1          5.1          6.1          7.1          8.1          9.1         10.1
    -26.321392   -11.349191   -11.272561   -11.258150   -11.255243    -1.641493    -1.178527    -1.046518    -0.875274    -0.775868

        11.1         12.1         13.1         14.1         15.1         16.1         17.1         18.1         19.1
     -0.705098    -0.702774    -0.668958    -0.622750    -0.532455    -0.513261    -0.359917     0.114177     0.180226

         1.2          2.2          3.2          4.2          5.2          6.2          7.2          8.2          9.2         10.2
    -26.321394   -11.349186   -11.255295    -1.640893    -1.036655    -0.865563    -0.742000    -0.697085    -0.685646    -0.585808

        11.2         12.2         13.2         14.2
     -0.554686    -0.347807     0.132486     0.226945


 **********************************************************************************************************************************
 DATASETS  * FILE   NREC   LENGTH (MB)   RECORD NAMES
              1      19      146.81       500      610      700      900      950      970     1000      129      960     1100   
                                          VAR    BASINP    GEOM    SYMINP    ZMAT    AOBASIS   BASIS     P2S    ABASIS      S 
                                         1400     1410     1200     1210     1080     1600     1650     1300     1700   
                                           T        V       H0       H01     AOSYM     SMH    MOLCAS    ERIS     OPER   

              2       3        0.65       700     1000     2100   
                                         GEOM     BASIS     RHF  

 PROGRAMS   *        TOTAL       RHF       INT
 CPU TIMES  *         5.00      2.63      2.33
 REAL TIME  *         5.89 SEC
 DISK USED  *       549.20 MB      
 GA USED    *         0.00 MB       (max)       0.00 MB       (current)
 **********************************************************************************************************************************


1PROGRAM * CCSD (Closed-shell coupled cluster)     Authors: C. Hampel, H.-J. Werner, 1991, M. Deegan, P.J. Knowles, 1992


 Convergence thresholds:  THRVAR = 1.00D-08  THRDEN = 1.00D-12

 CCSD(T)     terms to be evaluated (factor= 1.000)


 Number of core orbitals:           8 (   5   3 )
 Number of closed-shell orbitals:  21 (  12   9 )
 Number of external orbitals:     103 (  58  45 )

 Molecular orbitals read from record     2100.2  Type=RHF/CANONICAL (state 1.1)

 Number of N-1 electron functions:              21
 Number of N-2 electron functions:             231
 Number of singly external CSFs:              1101
 Number of doubly external CSFs:           1171104
 Total number of CSFs:                     1172206

 Length of J-op  integral file:               0.00 MB
 Length of K-op  integral file:               0.64 MB
 Length of 3-ext integral record:             0.00 MB

 Memory could be reduced to 15.99 Mwords without degradation in triples

 Integral transformation finished. Total CPU:   0.83 sec, npass=  1  Memory used:  11.37 MW

 Reference energy:                   -428.43380055

 MP2 singlet pair energy:              -0.67239306
 MP2 triplet pair energy:              -0.46566092
 MP2 correlation energy:               -1.13805398
 MP2 total energy:                   -429.57185453

 SCS-MP2 correlation energy:           -1.09661624   (PS=  1.200000  PT=  0.333333)
 SCS-MP2 total energy:               -429.53041679

 ITER.      SQ.NORM     CORR.ENERGY   TOTAL ENERGY   ENERGY CHANGE        DEN1      VAR(S)    VAR(P)  DIIS     TIME
   1      1.36183777    -1.16782573  -429.60162628    -0.02977175     0.00040060  0.67D-02  0.73D-02  1  1     2.89
   2      1.38825603    -1.17136085  -429.60516141    -0.00353513    -0.02695712  0.13D-03  0.11D-02  2  2     5.01
   3      1.39901472    -1.17195848  -429.60575903    -0.00059762    -0.00536549  0.86D-04  0.99D-04  3  3     7.12
   4      1.40303727    -1.17188546  -429.60568601     0.00007302    -0.00141988  0.49D-05  0.20D-04  4  4     9.24
   5      1.40487233    -1.17191615  -429.60571670    -0.00003069    -0.00044918  0.90D-06  0.22D-05  5  5    11.36
   6      1.40534745    -1.17192183  -429.60572239    -0.00000568    -0.00006780  0.13D-06  0.24D-06  6  6    13.48
   7      1.40543440    -1.17191687  -429.60571742     0.00000496     0.00000022  0.29D-07  0.22D-07  6  1    15.59
   8      1.40545935    -1.17191801  -429.60571856    -0.00000114    -0.00000750  0.64D-08  0.30D-08  6  2    17.71
   9      1.40546077    -1.17191867  -429.60571923    -0.00000067     0.00000228  0.19D-08  0.35D-09  6  3    19.84
  10      1.40546321    -1.17191845  -429.60571901     0.00000022    -0.00000122  0.39D-09  0.79D-10  6  4    21.97
  11      1.40546328    -1.17191870  -429.60571925    -0.00000024     0.00000033  0.45D-10  0.20D-10  6  5    24.09
  12      1.40546347    -1.17191868  -429.60571923     0.00000002    -0.00000006  0.11D-10  0.24D-11  6  6    26.22
  13      1.40546346    -1.17191870  -429.60571925    -0.00000002     0.00000005  0.57D-12  0.55D-12  6  1    28.35
  14      1.40546344    -1.17191871  -429.60571926    -0.00000001     0.00000002  0.15D-12  0.85D-13  6  2    30.47
  15      1.40546343    -1.17191871  -429.60571926     0.00000000     0.00000000  0.40D-13  0.14D-13  6  3    32.60
  16      1.40546343    -1.17191871  -429.60571926    -0.00000000     0.00000000  0.64D-14  0.40D-14  6  4    34.73
  17      1.40546343    -1.17191871  -429.60571926    -0.00000000    -0.00000000  0.16D-14  0.68D-15  6  5    36.85
  18      1.40546343    -1.17191871  -429.60571926    -0.00000000    -0.00000000  0.20D-15  0.10D-15  6  6    38.98
  19      1.40546343    -1.17191871  -429.60571926    -0.00000000    -0.00000000  0.29D-16  0.22D-16  6  1    41.10
  20      1.40546343    -1.17191871  -429.60571926     0.00000000    -0.00000000  0.12D-16  0.28D-17  6  2    43.23
  21      1.40546343    -1.17191871  -429.60571926    -0.00000000    -0.00000000  0.13D-17  0.64D-18  6  3    45.36
  22      1.40546343    -1.17191871  -429.60571926     0.00000000    -0.00000000  0.39D-18  0.13D-18  6  4    47.49
  23      1.40546343    -1.17191871  -429.60571926     0.00000000    -0.00000000  0.78D-19  0.21D-19  6  5    49.62
  24      1.40546343    -1.17191871  -429.60571926    -0.00000000    -0.00000000  0.70D-20  0.46D-20  6  6    51.74
  25      1.40546343    -1.17191871  -429.60571926    -0.00000000     0.00000000  0.17D-20  0.10D-20  6  1    53.87

 Norm of t1 vector:      0.10818957      S-energy:     0.00000000      T1 diagnostic:  0.01180445
                                                                       D1 diagnostic:  0.03172068

 Doubles amplitudes (print threshold =  0.500E-01):

         I         J         SYM. A    SYM. B    A         B      T(IJ, AB)

        12        12         1         1         1         1     -0.08673644
        21        21         2         2         1         1     -0.08389600
        21        12         1         2         1         1     -0.05126508


 Total CPU time for triples:     38.26 sec


 RESULTS
 =======

  Reference energy                   -428.433800553914
  CCSD singlet pair energy             -0.756404959739
  CCSD triplet pair energy             -0.415513748737
  CCSD correlation energy              -1.171918708476

  Triples (T) contribution             -0.043020599832
  Total correlation energy             -1.214939308308

  CCSD total energy                  -429.605719262390
  CCSD[T] energy                     -429.650731326598
  CCSD-T energy                      -429.648019599943
 !CCSD(T) total energy               -429.648739862222

 Timing summary (sec):

 STEP                 CPU(USER)    SYS     CPU(TOT)    WALL
 Transformation          0.86      0.10      0.96      0.97
 CCSD iterations        53.01      1.65     54.66     54.71
 Triples                38.26      1.27     39.53     39.55

 Program statistics:

 Available memory in ccsd:               999998136
 Min. memory needed in ccsd:               3061744
 Max. memory used in ccsd:                 4118008
 Max. memory used in cckext:               4447226 (25 integral passes)



 **********************************************************************************************************************************
 DATASETS  * FILE   NREC   LENGTH (MB)   RECORD NAMES
              1      20      217.56       500      610      700      900      950      970     1000      129      960     1100   
                                          VAR    BASINP    GEOM    SYMINP    ZMAT    AOBASIS   BASIS     P2S    ABASIS      S 
                                         1400     1410     1200     1210     1080     1600     1650     1300     1700     1380   
                                           T        V       H0       H01     AOSYM     SMH    MOLCAS    ERIS     OPER     JKOP   

              2       3        0.65       700     1000     2100   
                                         GEOM     BASIS     RHF  

 PROGRAMS   *        TOTAL   CCSD(T)       RHF       INT
 CPU TIMES  *        97.15     92.15      2.63      2.33
 REAL TIME  *       101.16 SEC
 DISK USED  *       582.80 MB      
 GA USED    *         0.00 MB       (max)       0.00 MB       (current)
 **********************************************************************************************************************************

        CCSD(T)         RHF-SCF 
   -429.64873986   -428.43380055
 **********************************************************************************************************************************
 Variable memory released
