
 Primary working directories    : /tmp/943217.137.gen5.q
 Secondary working directories  : /tmp/943217.137.gen5.q
 Wavefunction directory         : /home/vulcan/mel64643/wfu/
 Main file repository           : /tmp/943217.137.gen5.q/

 ARCHNAME  : Linux/x86_64
 FC        : /opt/intel/compilers_and_libraries_2016.1.150/linux/bin/intel64/ifort
 FCVERSION : 16.0.1
 BLASLIB   : -mkl
 id        : ccgc

 Nodes     nprocs
 n070         1
 ga_uses_ma=false, calling ma_init with nominal heap.
 GA-space will be limited to   8.0 MW (determined by -G option)

 Using customized tuning parameters: mindgm=10; mindgv=16; mindgc=4; mindgr=1; noblas=0; mincuda=1000; minvec=7
 default implementation of scratch files=df  

 ***,Optimization of formic acid
 memory,1000,m
 gthresh,energy=1.0d-12,orbital=1.0d-10,oneint=1.0d-16,twoint=1.0d-16,optgrad=1.0d-6,compress=1.0d-13
 geomtyp=xyz
 
 bohr
 geometry = {
  C   -3.4998200231   -0.8281336290   -0.0075689950
  O   -3.0953333981    1.6184008488    0.0075689950
  O   -1.8841848247   -2.4781690435   -0.0135993657
  H   -5.5189264687   -1.2712899574    0.0000000000
  H   -1.2432562615    1.9501930260    0.0135993657
  C    3.4998200231    0.8281336290   -0.0075689950
  O    3.0953333981   -1.6184008488    0.0075689950
  O    1.8841848247    2.4781690435   -0.0135993657
  H    5.5189264687    1.2712899574   -0.0000000000
  H    1.2432562615   -1.9501930260    0.0135993657
 }
 
 basis=VDZ
 {rhf;maxit,200}
 {ccsd(t);maxit,200}

 Variables initialized (661), CPU time= 0.00 sec
 Commands  initialized (458), CPU time= 0.01 sec, 486 directives.
 Default parameters read. Elapsed time= 0.11 sec

 Checking input...
 Passed
1


                                         ***  PROGRAM SYSTEM MOLPRO  ***
                         Copyright, University College Cardiff Consultants Limited, 2008

                                    Version 2010.1 linked May 16 2016 07:17:05


 **********************************************************************************************************************************
 LABEL *   Optimization of formic acid                                                   
 Linux-4.4.3/n070(x86_64) 64 bit mpp version                                             DATE: 24-Oct-23          TIME: 10:49:37  
 **********************************************************************************************************************************

 SHA1:             9e8077add272b0f3cad6f7df79ec5211205f459d
 **********************************************************************************************************************************

 THRESHOLDS:

 ZERO    =  1.00D-12  ONEINT  =  1.00D-16  TWOINT  =  1.00D-16  PREFAC  =  1.00D-14  LOCALI  =  1.00D-09  EORDER  =  1.00D-04
 ENERGY  =  1.00D-12  ETEST   =  0.00D+00  EDENS   =  0.00D+00  THRDEDEF=  1.00D-06  GRADIENT=  1.00D-02  STEP    =  1.00D-03
 ORBITAL =  1.00D-10  CIVEC   =  1.00D-05  COEFF   =  1.00D-04  PRINTCI =  5.00D-02  PUNCHCI =  9.90D+01  OPTGRAD =  1.00D-06
 OPTENERG=  1.00D-06  OPTSTEP =  3.00D-04  THRGRAD =  1.00D-10  COMPRESS=  1.00D-13  VARMIN  =  1.00D-07  VARMAX  =  1.00D-03
 THRDOUB =  0.00D+00  THRDIV  =  1.00D-05  THRRED  =  1.00D-07  THRPSP  =  1.00D+00  THRDC   =  1.00D-10  THRCS   =  1.00D-10
 THRNRM  =  1.00D-08  THREQ   =  0.00D+00  THRDE   =  1.00D+00  THRREF  =  1.00D-05  SPARFAC =  1.00D+00  THRDLP  =  1.00D-07
 THRDIA  =  1.00D-10  THRDLS  =  1.00D-07  THRGPS  =  0.00D+00  THRKEX  =  0.00D+00  THRDIS  =  2.00D-01  THRVAR  =  1.00D-10
 THRLOC  =  1.00D-06  THRGAP  =  1.00D-06  THRLOCT = -1.00D+00  THRGAPT = -1.00D+00  THRORB  =  1.00D-06  THRMLTP =  0.00D+00
 THRCPQCI=  1.00D-10  KEXTA   =  0.00D+00  THRCOARS=  0.00D+00  SYMTOL  =  1.00D-06  GRADTOL =  1.00D-06  THROVL  =  1.00D-08
 THRORTH =  1.00D-08  GRID    =  1.00D-06  GRIDMAX =  1.00D-03  DTMAX   =  0.00D+00

 SETTING GEOMTYP        =    XYZ
 ZUNIT=BOHR
 

 Variable memory set to 1000000000 words,  buffer space   230000 words

 SETTING BASIS          =    VDZ


 Recomputing integrals since basis changed


 Using spherical harmonics

 Library entry C      S cc-pVDZ              selected for orbital group  1
 Library entry C      P cc-pVDZ              selected for orbital group  1
 Library entry C      D cc-pVDZ              selected for orbital group  1
 Library entry O      S cc-pVDZ              selected for orbital group  2
 Library entry O      P cc-pVDZ              selected for orbital group  2
 Library entry O      D cc-pVDZ              selected for orbital group  2
 Library entry H      S cc-pVDZ              selected for orbital group  3
 Library entry H      P cc-pVDZ              selected for orbital group  3

1PROGRAM * SEWARD (Integral evaluation for generally contracted gaussian basis sets)     Author: Roland Lindh, 1990

 Geometry written to block  1 of record 700


 Point group  C2  



 ATOMIC COORDINATES

 NR  ATOM    CHARGE       X              Y              Z

   1  C       6.00   -3.499820023   -0.828133629   -0.007568995
   2  C       6.00    3.499820023    0.828133629   -0.007568995
   3  O       8.00   -3.095333398    1.618400849    0.007568995
   4  O       8.00    3.095333398   -1.618400849    0.007568995
   5  O       8.00   -1.884184825   -2.478169043   -0.013599366
   6  O       8.00    1.884184825    2.478169043   -0.013599366
   7  H       1.00   -5.518926469   -1.271289957    0.000000000
   8  H       1.00    5.518926469    1.271289957    0.000000000
   9  H       1.00   -1.243256262    1.950193026    0.013599366
  10  H       1.00    1.243256262   -1.950193026    0.013599366

 Bond lengths in Bohr (Angstrom)

 1-3  2.479792237  1-5  2.309313822  1-7  2.067180606  2-4  2.479792237  2-6  2.309313822
     ( 1.312249535)     ( 1.222036243)     ( 1.093904864)     ( 1.312249535)     ( 1.222036243)

  2- 8  2.067180606   3- 9  1.881571719   4-10  1.881571719
       ( 1.093904864)       ( 0.995684871)       ( 0.995684871)

 Bond angles

  1- 3- 9  109.54509198   2- 4-10  109.54509198   3- 1- 5  126.21591712   3- 1- 7  111.76493072

  4-2-6  126.21591712   4-2-8  111.76493072   5-1-7  122.01768455   6-2-8  122.01768455

 NUCLEAR CHARGE:                   48
 NUMBER OF PRIMITIVE AOS:         190
 NUMBER OF SYMMETRY AOS:          184
 NUMBER OF CONTRACTIONS:          104   (  52A   +  52B   )
 NUMBER OF CORE ORBITALS:           6   (   3A   +   3B   )
 NUMBER OF VALENCE ORBITALS:       28   (  14A   +  14B   )


 NUCLEAR REPULSION ENERGY  235.73334438


 Eigenvalues of metric

         1 0.815E-02 0.138E-01 0.166E-01 0.299E-01 0.375E-01 0.443E-01 0.553E-01 0.932E-01
         2 0.869E-02 0.140E-01 0.165E-01 0.306E-01 0.353E-01 0.441E-01 0.527E-01 0.961E-01


 Contracted 2-electron integrals neglected if value below      1.0D-16
 AO integral compression algorithm  1   Integral accuracy      1.0D-16

     74.449 MB (compressed) written to integral file ( 97.8%)

     Node minimum: 74.449 MB, node maximum: 74.449 MB


 NUMBER OF SORTED TWO-ELECTRON INTEGRALS:    7596914.     BUFFER LENGTH:  32768
 NUMBER OF SEGMENTS:   1  SEGMENT LENGTH:    7596914      RECORD LENGTH: 524288

 Memory used in sort:       8.15 MW

 SORT1 READ     9494560. AND WROTE     7533810. INTEGRALS IN     22 RECORDS. CPU TIME:     0.10 SEC, REAL TIME:     0.15 SEC
 SORT2 READ     7533810. AND WROTE     7596914. INTEGRALS IN    284 RECORDS. CPU TIME:     0.11 SEC, REAL TIME:     0.16 SEC

 FILE SIZES:   FILE 1:    63.3 MBYTE,  FILE 4:    92.3 MBYTE,   TOTAL:    155.6 MBYTE

 OPERATOR DM      FOR CENTER  0  COORDINATES:    0.000000    0.000000    0.000000


 **********************************************************************************************************************************
 DATASETS  * FILE   NREC   LENGTH (MB)   RECORD NAMES
              1      19       63.39       500      610      700      900      950      970     1000      129      960     1100   
                                          VAR    BASINP    GEOM    SYMINP    ZMAT    AOBASIS   BASIS     P2S    ABASIS      S 
                                         1400     1410     1200     1210     1080     1600     1650     1300     1700   
                                           T        V       H0       H01     AOSYM     SMH    MOLCAS    ERIS     OPER   

 PROGRAMS   *        TOTAL       INT
 CPU TIMES  *         1.79      1.67
 REAL TIME  *         2.49 SEC
 DISK USED  *       230.86 MB      
 GA USED    *         0.00 MB       (max)       0.00 MB       (current)
 **********************************************************************************************************************************

1PROGRAM * RHF-SCF (CLOSED SHELL)       Authors: W. Meyer, H.-J. Werner


 NUMBER OF ELECTRONS:      24+   24-
 CONVERGENCE THRESHOLDS:    1.00E-10 (Density)    1.00E-13 (Energy)
 MAX. NUMBER OF ITERATIONS:      200
 INTERPOLATION TYPE:            DIIS
 INTERPOLATION STEPS:              2 (START)      1 (STEP)
 LEVEL SHIFTS:                  0.00 (CLOSED)  0.00 (OPEN) 



 Orbital guess generated from atomic densities. Full valence occupancy:   17  17

 Molecular orbital dump at record        2100.2

 Initial alpha occupancy:  12  12
 Initial beta  occupancy:  12  12
 Wave function symmetry:    1

 ITERATION    DDIFF          GRAD             ENERGY        2-EL.EN.            DIPOLE MOMENTS         DIIS
    1      0.000D+00      0.000D+00      -377.45066150    747.446792    0.00000    0.00000    0.00851    0
    2      0.000D+00      0.155D-01      -377.53824062    744.598983    0.00000    0.00000    0.00900    1
    3      0.306D-01      0.961D-02      -377.58464881    746.840664    0.00000    0.00000    0.00875    2
    4      0.111D-01      0.136D-02      -377.58613418    746.563686    0.00000    0.00000    0.00846    3
    5      0.217D-02      0.566D-03      -377.58639328    746.588280    0.00000    0.00000    0.00863    4
    6      0.897D-03      0.161D-03      -377.58643858    746.632513    0.00000    0.00000    0.00855    5
    7      0.308D-03      0.733D-04      -377.58644967    746.617484    0.00000    0.00000    0.00854    6
    8      0.184D-03      0.218D-04      -377.58645066    746.622647    0.00000    0.00000    0.00853    7
    9      0.573D-04      0.739D-05      -377.58645076    746.621195    0.00000    0.00000    0.00853    8
   10      0.200D-04      0.203D-05      -377.58645076    746.621365    0.00000    0.00000    0.00853    7
   11      0.565D-05      0.494D-06      -377.58645077    746.621311    0.00000    0.00000    0.00853    8
   12      0.131D-05      0.138D-06      -377.58645077    746.621332    0.00000    0.00000    0.00853    7
   13      0.360D-06      0.554D-07      -377.58645077    746.621320    0.00000    0.00000    0.00853    8
   14      0.104D-06      0.167D-07      -377.58645077    746.621323    0.00000    0.00000    0.00853    7
   15      0.427D-07      0.502D-08      -377.58645077    746.621323    0.00000    0.00000    0.00853    7
   16      0.891D-08      0.138D-08      -377.58645077    746.621322    0.00000    0.00000    0.00853    7
   17      0.281D-08      0.538D-09      -377.58645077    746.621322    0.00000    0.00000    0.00853    7
   18      0.106D-08      0.160D-09      -377.58645077    746.621322    0.00000    0.00000    0.00853    8
   19      0.391D-09      0.524D-10      -377.58645077    746.621322    0.00000    0.00000    0.00853    8
   20      0.129D-09      0.118D-10      -377.58645077    746.621322    0.00000    0.00000    0.00853    7
   21      0.313D-10      0.273D-11      -377.58645077    746.621322    0.00000    0.00000    0.00853    7
   22      0.720D-11      0.120D-11      -377.58645077    746.621322    0.00000    0.00000    0.00853    7
   23      0.277D-11      0.336D-12      -377.58645077    746.621322    0.00000    0.00000    0.00853    0

 Final occupancy:  12  12

 !RHF STATE 1.1 Energy               -377.586450765365
 Nuclear energy                       235.73334438
 One-electron energy                 -986.63045637
 Two-electron energy                  373.31066122
 Virial quotient                       -1.00117282
 !RHF STATE 1.1 Dipole moment           0.00000000     0.00000000     0.00853046
 Dipole moment /Debye                   0.00000000     0.00000000     0.02168084

 Orbital energies:

         1.1          2.1          3.1          4.1          5.1          6.1          7.1          8.1          9.1         10.1
    -20.614169   -20.574853   -11.411597    -1.483447    -1.369882    -0.914943    -0.728750    -0.689097    -0.639333    -0.614720

        11.1         12.1         13.1         14.1
     -0.489545    -0.487602     0.161635     0.204369

         1.2          2.2          3.2          4.2          5.2          6.2          7.2          8.2          9.2         10.2
    -20.614167   -20.574853   -11.411597    -1.470850    -1.383735    -0.879120    -0.763301    -0.719980    -0.629801    -0.573522

        11.2         12.2         13.2         14.2
     -0.498226    -0.467476     0.166714     0.209987


 **********************************************************************************************************************************
 DATASETS  * FILE   NREC   LENGTH (MB)   RECORD NAMES
              1      19       63.39       500      610      700      900      950      970     1000      129      960     1100   
                                          VAR    BASINP    GEOM    SYMINP    ZMAT    AOBASIS   BASIS     P2S    ABASIS      S 
                                         1400     1410     1200     1210     1080     1600     1650     1300     1700   
                                           T        V       H0       H01     AOSYM     SMH    MOLCAS    ERIS     OPER   

              2       3        0.53       700     1000     2100   
                                         GEOM     BASIS     RHF  

 PROGRAMS   *        TOTAL       RHF       INT
 CPU TIMES  *         2.64      0.85      1.67
 REAL TIME  *         3.57 SEC
 DISK USED  *       230.86 MB      
 GA USED    *         0.00 MB       (max)       0.00 MB       (current)
 **********************************************************************************************************************************


1PROGRAM * CCSD (Closed-shell coupled cluster)     Authors: C. Hampel, H.-J. Werner, 1991, M. Deegan, P.J. Knowles, 1992


 Convergence thresholds:  THRVAR = 1.00D-08  THRDEN = 1.00D-12

 CCSD(T)     terms to be evaluated (factor= 1.000)


 Number of core orbitals:           6 (   3   3 )
 Number of closed-shell orbitals:  18 (   9   9 )
 Number of external orbitals:      80 (  40  40 )

 Molecular orbitals read from record     2100.2  Type=RHF/CANONICAL (state 1.1)

 Number of N-1 electron functions:              18
 Number of N-2 electron functions:             171
 Number of singly external CSFs:               720
 Number of doubly external CSFs:            519120
 Total number of CSFs:                      519841

 Length of J-op  integral file:               0.00 MB
 Length of K-op  integral file:               0.41 MB
 Length of 3-ext integral record:             0.00 MB

 Memory could be reduced to 6.90 Mwords without degradation in triples

 Integral transformation finished. Total CPU:   0.40 sec, npass=  1  Memory used:   5.16 MW

 Reference energy:                   -377.58645077

 MP2 singlet pair energy:              -0.59874437
 MP2 triplet pair energy:              -0.40677812
 MP2 correlation energy:               -1.00552249
 MP2 total energy:                   -378.59197325

 SCS-MP2 correlation energy:           -0.97159963   (PS=  1.200000  PT=  0.333333)
 SCS-MP2 total energy:               -378.55805039

 ITER.      SQ.NORM     CORR.ENERGY   TOTAL ENERGY   ENERGY CHANGE        DEN1      VAR(S)    VAR(P)  DIIS     TIME
   1      1.28123501    -1.02579241  -378.61224317    -0.02026992     0.01038761  0.10D-01  0.55D-02  1  1     1.18
   2      1.30483705    -1.02768310  -378.61413386    -0.00189069    -0.02499684  0.25D-03  0.10D-02  2  2     1.98
   3      1.31779286    -1.02862589  -378.61507665    -0.00094279    -0.00593165  0.20D-03  0.42D-04  3  3     2.85
   4      1.32310154    -1.02839337  -378.61484413     0.00023252    -0.00174289  0.17D-04  0.70D-05  4  4     3.63
   5      1.32514445    -1.02830458  -378.61475535     0.00008878    -0.00045417  0.10D-05  0.67D-06  5  5     4.41
   6      1.32548323    -1.02828421  -378.61473497     0.00002038    -0.00001533  0.98D-07  0.58D-07  6  6     5.19
   7      1.32555055    -1.02827677  -378.61472754     0.00000743    -0.00000436  0.71D-08  0.86D-08  6  2     5.97
   8      1.32555364    -1.02827758  -378.61472835    -0.00000081     0.00000205  0.14D-08  0.84D-09  6  1     6.76
   9      1.32555434    -1.02827728  -378.61472804     0.00000031     0.00000090  0.28D-09  0.14D-09  6  4     7.53
  10      1.32555604    -1.02827712  -378.61472789     0.00000015    -0.00000058  0.77D-10  0.22D-10  6  3     8.32
  11      1.32555553    -1.02827724  -378.61472801    -0.00000012     0.00000024  0.19D-10  0.46D-11  6  5     9.10
  12      1.32555519    -1.02827726  -378.61472802    -0.00000002     0.00000005  0.27D-11  0.10D-11  6  6     9.87
  13      1.32555488    -1.02827730  -378.61472806    -0.00000004     0.00000012  0.37D-12  0.19D-12  6  1    10.65
  14      1.32555478    -1.02827730  -378.61472806    -0.00000000     0.00000002  0.53D-13  0.25D-13  6  2    11.44
  15      1.32555475    -1.02827730  -378.61472807    -0.00000000     0.00000000  0.16D-13  0.41D-14  6  4    12.24
  16      1.32555474    -1.02827730  -378.61472807    -0.00000000     0.00000000  0.42D-14  0.12D-14  6  5    13.01
  17      1.32555474    -1.02827730  -378.61472807     0.00000000    -0.00000000  0.10D-14  0.26D-15  6  3    13.79
  18      1.32555474    -1.02827730  -378.61472807    -0.00000000     0.00000000  0.24D-15  0.74D-16  6  6    14.56
  19      1.32555474    -1.02827730  -378.61472807     0.00000000    -0.00000000  0.39D-16  0.15D-16  6  1    15.33
  20      1.32555474    -1.02827730  -378.61472807     0.00000000    -0.00000000  0.87D-17  0.27D-17  6  2    16.11
  21      1.32555474    -1.02827730  -378.61472807     0.00000000     0.00000000  0.22D-17  0.71D-18  6  4    16.89
  22      1.32555474    -1.02827730  -378.61472807     0.00000000    -0.00000000  0.64D-18  0.15D-18  6  5    17.67
  23      1.32555474    -1.02827730  -378.61472807    -0.00000000    -0.00000000  0.88D-19  0.40D-19  6  3    18.45
  24      1.32555474    -1.02827730  -378.61472807    -0.00000000    -0.00000000  0.15D-19  0.75D-20  6  6    19.23

 Norm of t1 vector:      0.15206444      S-energy:     0.00000000      T1 diagnostic:  0.01792097
                                                                       D1 diagnostic:  0.06477557

 Singles amplitudes (print threshold =  0.500E-01):

         I         SYM. A    A   T(IA)

         6         1         1      0.05917571
        15         2         1      0.06098468


 Total CPU time for triples:     11.72 sec


 RESULTS
 =======

  Reference energy                   -377.586450765366
  CCSD singlet pair energy             -0.670491710485
  CCSD triplet pair energy             -0.357785590343
  CCSD correlation energy              -1.028277300827

  Triples (T) contribution             -0.031840130891
  Total correlation energy             -1.060117431719

  CCSD total energy                  -378.614728066193
  CCSD[T] energy                     -378.649834560248
  CCSD-T energy                      -378.645494925913
 !CCSD(T) total energy               -378.646568197084

 Timing summary (sec):

 STEP                 CPU(USER)    SYS     CPU(TOT)    WALL
 Transformation          0.42      0.06      0.48      0.49
 CCSD iterations        18.82      0.87     19.69     19.81
 Triples                11.72      0.28     12.00     12.01

 Program statistics:

 Available memory in ccsd:               999998604
 Min. memory needed in ccsd:               1434204
 Max. memory used in ccsd:                 1896588
 Max. memory used in cckext:               2097662 (24 integral passes)



 **********************************************************************************************************************************
 DATASETS  * FILE   NREC   LENGTH (MB)   RECORD NAMES
              1      20       93.68       500      610      700      900      950      970     1000      129      960     1100   
                                          VAR    BASINP    GEOM    SYMINP    ZMAT    AOBASIS   BASIS     P2S    ABASIS      S 
                                         1400     1410     1200     1210     1080     1600     1650     1300     1700     1380   
                                           T        V       H0       H01     AOSYM     SMH    MOLCAS    ERIS     OPER     JKOP   

              2       3        0.53       700     1000     2100   
                                         GEOM     BASIS     RHF  

 PROGRAMS   *        TOTAL   CCSD(T)       RHF       INT
 CPU TIMES  *        33.61     30.97      0.85      1.67
 REAL TIME  *        35.92 SEC
 DISK USED  *       260.89 MB      
 GA USED    *         0.00 MB       (max)       0.00 MB       (current)
 **********************************************************************************************************************************

        CCSD(T)         RHF-SCF 
   -378.64656820   -377.58645077
 **********************************************************************************************************************************
 Variable memory released
