
 Primary working directories    : /tmp/1049502.818.gen4.q
 Secondary working directories  : /tmp/1049502.818.gen4.q
 Wavefunction directory         : /home/vulcan/jj04645/wfu/
 Main file repository           : /tmp/1049502.818.gen4.q/

 ARCHNAME  : Linux/x86_64
 FC        : /opt/intel/compilers_and_libraries_2016.1.150/linux/bin/intel64/ifort
 FCVERSION : 16.0.1
 BLASLIB   : -mkl
 id        : ccgc

 Nodes     nprocs
 n066         1
 ga_uses_ma=false, calling ma_init with nominal heap.
 GA-space will be limited to   8.0 MW (determined by -G option)

 Using customized tuning parameters: mindgm=10; mindgv=16; mindgc=4; mindgr=1; noblas=0; mincuda=1000; minvec=7
 default implementation of scratch files=df  

 ***,Optimization of neopentane
 memory,1000,m
 gthresh,energy=1.0d-12,orbital=1.0d-10,oneint=1.0d-16,twoint=1.0d-16,optgrad=1.0d-6,compress=1.0d-13
 geomtyp=xyz
 
 bohr
 geometry = {
  C   -0.0003886793   -0.0003886794    0.0000001758
  C    2.3649988295   -0.0011458883   -1.6726965089
  C   -0.0003344026   -2.3650732100    1.6736906808
  C   -0.0003342423    2.3658100393    1.6715492956
  C   -2.3658849020   -0.0011456584   -1.6725427645
  H    2.4084575281    1.6744711606   -2.8894437720
  H   -1.6698550966   -2.4078515254    2.8849582416
  H    1.6758728791    2.4098584644    2.8874623179
  H   -2.4092510068   -1.6712537970   -2.8829793064
  H    4.0825531449   -0.0006240755   -0.5197233505
  H   -0.0003720000   -4.0865023505    0.5191651971
  H   -0.0003715334    4.0769358068    0.5216868750
  H   -4.0808830352   -0.0006244116   -0.5211238339
  H    2.4082547407   -1.6700443774   -2.8822591318
  H    1.6713595747   -2.4079053520    2.8863691524
  H   -1.6743678716    2.4098035825    2.8860517361
  H   -2.4094539273    1.6756802718   -2.8901650043
 }
 
 basis=VDZ
 {rhf;maxit,200}
 {ccsd(t);maxit,200}

 Variables initialized (661), CPU time= 0.00 sec
 Commands  initialized (458), CPU time= 0.01 sec, 486 directives.
 Default parameters read. Elapsed time= 0.05 sec

 Checking input...
 Passed
1


                                         ***  PROGRAM SYSTEM MOLPRO  ***
                         Copyright, University College Cardiff Consultants Limited, 2008

                                    Version 2010.1 linked May 16 2016 07:17:05


 **********************************************************************************************************************************
 LABEL *   Optimization of neopentane                                                    
 Linux-4.4.3/n066(x86_64) 64 bit mpp version                                             DATE: 30-Mar-24          TIME: 22:13:52  
 **********************************************************************************************************************************

 SHA1:             9e8077add272b0f3cad6f7df79ec5211205f459d
 **********************************************************************************************************************************

 THRESHOLDS:

 ZERO    =  1.00D-12  ONEINT  =  1.00D-16  TWOINT  =  1.00D-16  PREFAC  =  1.00D-14  LOCALI  =  1.00D-09  EORDER  =  1.00D-04
 ENERGY  =  1.00D-12  ETEST   =  0.00D+00  EDENS   =  0.00D+00  THRDEDEF=  1.00D-06  GRADIENT=  1.00D-02  STEP    =  1.00D-03
 ORBITAL =  1.00D-10  CIVEC   =  1.00D-05  COEFF   =  1.00D-04  PRINTCI =  5.00D-02  PUNCHCI =  9.90D+01  OPTGRAD =  1.00D-06
 OPTENERG=  1.00D-06  OPTSTEP =  3.00D-04  THRGRAD =  1.00D-10  COMPRESS=  1.00D-13  VARMIN  =  1.00D-07  VARMAX  =  1.00D-03
 THRDOUB =  0.00D+00  THRDIV  =  1.00D-05  THRRED  =  1.00D-07  THRPSP  =  1.00D+00  THRDC   =  1.00D-10  THRCS   =  1.00D-10
 THRNRM  =  1.00D-08  THREQ   =  0.00D+00  THRDE   =  1.00D+00  THRREF  =  1.00D-05  SPARFAC =  1.00D+00  THRDLP  =  1.00D-07
 THRDIA  =  1.00D-10  THRDLS  =  1.00D-07  THRGPS  =  0.00D+00  THRKEX  =  0.00D+00  THRDIS  =  2.00D-01  THRVAR  =  1.00D-10
 THRLOC  =  1.00D-06  THRGAP  =  1.00D-06  THRLOCT = -1.00D+00  THRGAPT = -1.00D+00  THRORB  =  1.00D-06  THRMLTP =  0.00D+00
 THRCPQCI=  1.00D-10  KEXTA   =  0.00D+00  THRCOARS=  0.00D+00  SYMTOL  =  1.00D-06  GRADTOL =  1.00D-06  THROVL  =  1.00D-08
 THRORTH =  1.00D-08  GRID    =  1.00D-06  GRIDMAX =  1.00D-03  DTMAX   =  0.00D+00

 SETTING GEOMTYP        =    XYZ
 ZUNIT=BOHR
 

 Variable memory set to 1000000000 words,  buffer space   230000 words

 SETTING BASIS          =    VDZ


 Recomputing integrals since basis changed


 Using spherical harmonics

 Library entry C      S cc-pVDZ              selected for orbital group  1
 Library entry C      P cc-pVDZ              selected for orbital group  1
 Library entry C      D cc-pVDZ              selected for orbital group  1
 Library entry H      S cc-pVDZ              selected for orbital group  2
 Library entry H      P cc-pVDZ              selected for orbital group  2

1PROGRAM * SEWARD (Integral evaluation for generally contracted gaussian basis sets)     Author: Roland Lindh, 1990

 Geometry written to block  1 of record 700


 Point group  C1  



 ATOMIC COORDINATES

 NR  ATOM    CHARGE       X              Y              Z

   1  C       6.00   -0.000388679   -0.000388679    0.000000176
   2  C       6.00    2.364998830   -0.001145888   -1.672696509
   3  C       6.00   -0.000334403   -2.365073210    1.673690681
   4  C       6.00   -0.000334242    2.365810039    1.671549296
   5  C       6.00   -2.365884902   -0.001145658   -1.672542764
   6  H       1.00    2.408457528    1.674471161   -2.889443772
   7  H       1.00   -1.669855097   -2.407851525    2.884958242
   8  H       1.00    1.675872879    2.409858464    2.887462318
   9  H       1.00   -2.409251007   -1.671253797   -2.882979306
  10  H       1.00    4.082553145   -0.000624076   -0.519723350
  11  H       1.00   -0.000372000   -4.086502350    0.519165197
  12  H       1.00   -0.000371533    4.076935807    0.521686875
  13  H       1.00   -4.080883035   -0.000624412   -0.521123834
  14  H       1.00    2.408254741   -1.670044377   -2.882259132
  15  H       1.00    1.671359575   -2.407905352    2.886369152
  16  H       1.00   -1.674367872    2.409803582    2.886051736
  17  H       1.00   -2.409453927    1.675680272   -2.890165004

 Bond lengths in Bohr (Angstrom)

 1-2  2.897062795  1-3  2.897062795  1-4  2.897062795  1-5  2.897062795  2-6  2.071244808
     ( 1.533059604)     ( 1.533059604)     ( 1.533059604)     ( 1.533059604)     ( 1.096055547)

  2-10  2.068656618   2-14  2.061585550   3- 7  2.063079842   3-11  2.072739101   3-15  2.065668033
       ( 1.094685935)       ( 1.090944087)       ( 1.091734833)       ( 1.096846292)       ( 1.093104444)

  4- 8  2.071244808   4-12  2.061585550   4-16  2.068656618   5- 9  2.063079842   5-13  2.065668033
       ( 1.096055547)       ( 1.090944087)       ( 1.094685935)       ( 1.091734833)       ( 1.093104444)

  5-17  2.072739101
       ( 1.096846292)

 Bond angles

  1- 2- 6  110.86076941   1- 2-10  110.86076780   1- 2-14  110.86076910   1- 3- 7  110.86076873

  1- 3-11  110.86076903   1- 3-15  110.86076855   1- 4- 8  110.86076872   1- 4-12  110.86076903

  1- 4-16  110.86076855   1- 5- 9  110.86076941   1- 5-13  110.86076780   1- 5-17  110.86076910

  2-1-3  109.47122064   2-1-4  109.47122063   2-1-5  109.47122063   3-1-4  109.47122063

  3- 1- 5  109.47122064   4- 1- 5  109.47122063   6- 2-10  108.04663811   6- 2-14  108.04664059

  7- 3-11  108.04663916   7- 3-15  108.04663826   8- 4-12  108.04663916   8- 4-16  108.04663825

  9- 5-13  108.04663813   9- 5-17  108.04664060  10- 2-14  108.04663754  11- 3-15  108.04663882

 12- 4-16  108.04663883  13- 5-17  108.04663751

 NUCLEAR CHARGE:                   42
 NUMBER OF PRIMITIVE AOS:         219
 NUMBER OF SYMMETRY AOS:          214
 NUMBER OF CONTRACTIONS:          130   ( 130A   )
 NUMBER OF CORE ORBITALS:           5   (   5A   )
 NUMBER OF VALENCE ORBITALS:       32   (  32A   )


 NUCLEAR REPULSION ENERGY  198.59918953


 Eigenvalues of metric

         1 0.280E-02 0.504E-02 0.504E-02 0.504E-02 0.171E-01 0.189E-01 0.189E-01 0.189E-01


 Contracted 2-electron integrals neglected if value below      1.0D-16
 AO integral compression algorithm  1   Integral accuracy      1.0D-16

     301.466 MB (compressed) written to integral file ( 96.6%)

     Node minimum: 301.466 MB, node maximum: 301.466 MB


 NUMBER OF SORTED TWO-ELECTRON INTEGRALS:   36256870.     BUFFER LENGTH:  32768
 NUMBER OF SEGMENTS:   3  SEGMENT LENGTH:   15998004      RECORD LENGTH: 524288

 Memory used in sort:      16.56 MW

 SORT1 READ    38982645. AND WROTE    36200205. INTEGRALS IN    105 RECORDS. CPU TIME:     0.38 SEC, REAL TIME:     0.60 SEC
 SORT2 READ    36200205. AND WROTE    36256870. INTEGRALS IN   1150 RECORDS. CPU TIME:     0.28 SEC, REAL TIME:     0.45 SEC

 FILE SIZES:   FILE 1:   282.2 MBYTE,  FILE 4:   440.4 MBYTE,   TOTAL:    722.6 MBYTE

 OPERATOR DM      FOR CENTER  0  COORDINATES:    0.000000    0.000000    0.000000


 **********************************************************************************************************************************
 DATASETS  * FILE   NREC   LENGTH (MB)   RECORD NAMES
              1      19      282.39       500      610      700      900      950      970     1000      129      960     1100   
                                          VAR    BASINP    GEOM    SYMINP    ZMAT    AOBASIS   BASIS     P2S    ABASIS      S 
                                         1400     1410     1200     1210     1080     1600     1650     1300     1700   
                                           T        V       H0       H01     AOSYM     SMH    MOLCAS    ERIS     OPER   

 PROGRAMS   *        TOTAL       INT
 CPU TIMES  *         4.21      4.17
 REAL TIME  *         4.90 SEC
 DISK USED  *         1.03 GB      
 GA USED    *         0.01 MB       (max)       0.00 MB       (current)
 **********************************************************************************************************************************

1PROGRAM * RHF-SCF (CLOSED SHELL)       Authors: W. Meyer, H.-J. Werner


 NUMBER OF ELECTRONS:      21+   21-    SPACE SYMMETRY=1    SPIN SYMMETRY: Singlet 
 CONVERGENCE THRESHOLDS:    1.00E-10 (Density)    1.00E-13 (Energy)
 MAX. NUMBER OF ITERATIONS:      200
 INTERPOLATION TYPE:            DIIS
 INTERPOLATION STEPS:              2 (START)      1 (STEP)
 LEVEL SHIFTS:                  0.00 (CLOSED)  0.00 (OPEN) 



 Orbital guess generated from atomic densities. Full valence occupancy:   37

 Molecular orbital dump at record        2100.2

 ITERATION    DDIFF          GRAD             ENERGY        2-EL.EN.            DIPOLE MOMENTS         DIIS
    1      0.000D+00      0.000D+00      -196.27086874    527.677305    0.00129    0.00129    0.00000    0
    2      0.000D+00      0.467D-02      -196.33872919    521.943713   -0.00130   -0.00130    0.00001    1
    3      0.930D-02      0.177D-02      -196.34651987    524.513829   -0.00095   -0.00095    0.00001    2
    4      0.346D-02      0.571D-03      -196.34766666    523.812492   -0.00120   -0.00120    0.00001    3
    5      0.114D-02      0.118D-03      -196.34770125    523.879006   -0.00121   -0.00121    0.00001    4
    6      0.198D-03      0.238D-04      -196.34770292    523.875247   -0.00122   -0.00122    0.00001    5
    7      0.659D-04      0.226D-05      -196.34770295    523.875013   -0.00122   -0.00122    0.00001    6
    8      0.684D-05      0.489D-06      -196.34770295    523.874971   -0.00122   -0.00122    0.00001    6
    9      0.138D-05      0.703D-07      -196.34770295    523.874963   -0.00122   -0.00122    0.00001    5
   10      0.244D-06      0.942D-08      -196.34770295    523.874972   -0.00122   -0.00122    0.00001    5
   11      0.317D-07      0.284D-08      -196.34770295    523.874968   -0.00122   -0.00122    0.00001    5
   12      0.596D-08      0.107D-08      -196.34770295    523.874969   -0.00122   -0.00122    0.00001    6
   13      0.221D-08      0.988D-10      -196.34770295    523.874969   -0.00122   -0.00122    0.00001    6
   14      0.240D-09      0.326D-10      -196.34770295    523.874969   -0.00122   -0.00122    0.00001    6
   15      0.986D-10      0.913D-11      -196.34770295    523.874969   -0.00122   -0.00122    0.00001    6
   16      0.305D-10      0.184D-11      -196.34770295    523.874969   -0.00122   -0.00122    0.00001    7
   17      0.462D-11      0.670D-12      -196.34770295    523.874969   -0.00122   -0.00122    0.00001    7
   18      0.147D-11      0.136D-12      -196.34770295    523.874969   -0.00122   -0.00122    0.00001    6
   19      0.466D-12      0.489D-13      -196.34770295    523.874969   -0.00122   -0.00122    0.00001    7
   20      0.219D-12      0.306D-13      -196.34770295    523.874969   -0.00122   -0.00122    0.00001    0

 Final occupancy:  21

 !RHF STATE 1.1 Energy               -196.347702950679
 Nuclear energy                       198.59918953
 One-electron energy                 -656.88437697
 Two-electron energy                  261.93748449
 Virial quotient                       -1.00118077
 !RHF STATE 1.1 Dipole moment          -0.00121939    -0.00121938     0.00001310
 Dipole moment /Debye                  -0.00309918    -0.00309915     0.00003329

 Orbital energies:

         1.1          2.1          3.1          4.1          5.1          6.1          7.1          8.1          9.1         10.1
    -11.230715   -11.214127   -11.214113   -11.214081   -11.214047    -1.103748    -0.927578    -0.927564    -0.927551    -0.728615

        11.1         12.1         13.1         14.1         15.1         16.1         17.1         18.1         19.1         20.1
     -0.609117    -0.609078    -0.609037    -0.550493    -0.550487    -0.507972    -0.507784    -0.507599    -0.450398    -0.450333

        21.1         22.1         23.1
     -0.450267     0.170676     0.231152


 **********************************************************************************************************************************
 DATASETS  * FILE   NREC   LENGTH (MB)   RECORD NAMES
              1      19      282.39       500      610      700      900      950      970     1000      129      960     1100   
                                          VAR    BASINP    GEOM    SYMINP    ZMAT    AOBASIS   BASIS     P2S    ABASIS      S 
                                         1400     1410     1200     1210     1080     1600     1650     1300     1700   
                                           T        V       H0       H01     AOSYM     SMH    MOLCAS    ERIS     OPER   

              2       3        0.89       700     1000     2100   
                                         GEOM     BASIS     RHF  

 PROGRAMS   *        TOTAL       RHF       INT
 CPU TIMES  *         9.70      5.48      4.17
 REAL TIME  *        11.06 SEC
 DISK USED  *         1.03 GB      
 GA USED    *         0.01 MB       (max)       0.00 MB       (current)
 **********************************************************************************************************************************


1PROGRAM * CCSD (Closed-shell coupled cluster)     Authors: C. Hampel, H.-J. Werner, 1991, M. Deegan, P.J. Knowles, 1992


 Convergence thresholds:  THRVAR = 1.00D-08  THRDEN = 1.00D-12

 CCSD(T)     terms to be evaluated (factor= 1.000)


 Number of core orbitals:           5 (   5 )
 Number of closed-shell orbitals:  16 (  16 )
 Number of external orbitals:     109 ( 109 )

 Molecular orbitals read from record     2100.2  Type=RHF/CANONICAL (state 1.1)

 Number of N-1 electron functions:              16
 Number of N-2 electron functions:             136
 Number of singly external CSFs:              1744
 Number of doubly external CSFs:           1521640
 Total number of CSFs:                     1523385

 Length of J-op  integral file:               0.00 MB
 Length of K-op  integral file:               1.20 MB
 Length of 3-ext integral record:             0.00 MB

 Memory could be reduced to 28.13 Mwords without degradation in triples

 Integral transformation finished. Total CPU:   1.89 sec, npass=  1  Memory used:  22.98 MW

 Reference energy:                   -196.34770295

 MP2 singlet pair energy:              -0.48845227
 MP2 triplet pair energy:              -0.25007680
 MP2 correlation energy:               -0.73852907
 MP2 total energy:                   -197.08623202

 SCS-MP2 correlation energy:           -0.74174607   (PS=  1.200000  PT=  0.333333)
 SCS-MP2 total energy:               -197.08944902

 ITER.      SQ.NORM     CORR.ENERGY   TOTAL ENERGY   ENERGY CHANGE        DEN1      VAR(S)    VAR(P)  DIIS     TIME
   1      1.28821639    -0.80655464  -197.15425759    -0.06802557    -0.04667788  0.17D-02  0.47D-02  1  1     6.93
   2      1.31153074    -0.81148820  -197.15919115    -0.00493356    -0.02353927  0.47D-04  0.32D-03  2  2    12.06
   3      1.31554018    -0.81163806  -197.15934101    -0.00014986    -0.00243443  0.53D-05  0.22D-04  3  3    17.18
   4      1.31658437    -0.81170034  -197.15940329    -0.00006228    -0.00046369  0.25D-06  0.12D-05  4  4    22.31
   5      1.31671033    -0.81170472  -197.15940767    -0.00000438    -0.00005129  0.15D-07  0.93D-07  5  5    27.46
   6      1.31672280    -0.81170230  -197.15940525     0.00000242    -0.00000846  0.69D-09  0.61D-08  6  6    32.58
   7      1.31672136    -0.81170258  -197.15940553    -0.00000028     0.00000063  0.16D-09  0.52D-09  6  1    37.73
   8      1.31672107    -0.81170273  -197.15940568    -0.00000015     0.00000027  0.78D-11  0.30D-10  6  2    42.86
   9      1.31672078    -0.81170277  -197.15940572    -0.00000005     0.00000025  0.11D-11  0.25D-11  6  3    47.99
  10      1.31672068    -0.81170278  -197.15940573    -0.00000001     0.00000009  0.90D-13  0.22D-12  6  4    53.14
  11      1.31672061    -0.81170278  -197.15940573    -0.00000000     0.00000004  0.95D-14  0.24D-13  6  5    58.28
  12      1.31672058    -0.81170279  -197.15940574    -0.00000000     0.00000002  0.90D-15  0.12D-14  6  1    63.41
  13      1.31672057    -0.81170279  -197.15940574    -0.00000000     0.00000000  0.80D-16  0.70D-16  6  6    68.54
  14      1.31672057    -0.81170279  -197.15940574    -0.00000000     0.00000000  0.15D-16  0.97D-17  6  2    73.68
  15      1.31672057    -0.81170279  -197.15940574    -0.00000000     0.00000000  0.13D-17  0.11D-17  6  3    78.81
  16      1.31672057    -0.81170279  -197.15940574     0.00000000    -0.00000000  0.70D-19  0.92D-19  6  4    83.94
  17      1.31672057    -0.81170279  -197.15940574     0.00000000    -0.00000000  0.34D-20  0.86D-20  6  5    89.07
  18      1.31672057    -0.81170279  -197.15940574     0.00000000    -0.00000000  0.39D-21  0.12D-20  6  1    94.20
  19      1.31672057    -0.81170279  -197.15940574     0.00000000    -0.00000000  0.31D-22  0.17D-21  6  6    99.34

 Norm of t1 vector:      0.05469907      S-energy:    -0.00000000      T1 diagnostic:  0.00683738
                                                                       D1 diagnostic:  0.01260244


 Total CPU time for triples:     81.04 sec


 RESULTS
 =======

  Reference energy                   -196.347702950679
  CCSD singlet pair energy             -0.577587321989
  CCSD triplet pair energy             -0.234115463436
  CCSD correlation energy              -0.811702785425

  Triples (T) contribution             -0.023942348953
  Total correlation energy             -0.835645134378

  CCSD total energy                  -197.159405736105
  CCSD[T] energy                     -197.183807434883
  CCSD-T energy                      -197.183099421949
 !CCSD(T) total energy               -197.183348085058

 Timing summary (sec):

 STEP                 CPU(USER)    SYS     CPU(TOT)    WALL
 Transformation          1.96      0.17      2.13      2.14
 CCSD iterations        97.38      2.11     99.49     99.98
 Triples                81.04      1.57     82.61     82.62

 Program statistics:

 Available memory in ccsd:               999998876
 Min. memory needed in ccsd:               3966807
 Max. memory used in ccsd:                 5311887
 Max. memory used in cckext:               4858018 (19 integral passes)



 **********************************************************************************************************************************
 DATASETS  * FILE   NREC   LENGTH (MB)   RECORD NAMES
              1      20      394.10       500      610      700      900      950      970     1000      129      960     1100   
                                          VAR    BASINP    GEOM    SYMINP    ZMAT    AOBASIS   BASIS     P2S    ABASIS      S 
                                         1400     1410     1200     1210     1080     1600     1650     1300     1700     1380   
                                           T        V       H0       H01     AOSYM     SMH    MOLCAS    ERIS     OPER     JKOP   

              2       3        0.89       700     1000     2100   
                                         GEOM     BASIS     RHF  

 PROGRAMS   *        TOTAL   CCSD(T)       RHF       INT
 CPU TIMES  *       190.09    180.40      5.48      4.17
 REAL TIME  *       195.85 SEC
 DISK USED  *         1.03 GB      
 GA USED    *         0.01 MB       (max)       0.00 MB       (current)
 **********************************************************************************************************************************

        CCSD(T)         RHF-SCF 
   -197.18334809   -196.34770295
 **********************************************************************************************************************************
 Variable memory released
