
 Primary working directories    : /tmp/856074.64.gen6.q
 Secondary working directories  : /tmp/856074.64.gen6.q
 Wavefunction directory         : /home/vulcan/lo21740/wfu/
 Main file repository           : /tmp/856074.64.gen6.q/

 ARCHNAME  : Linux/x86_64
 FC        : /opt/intel/compilers_and_libraries_2016.1.150/linux/bin/intel64/ifort
 FCVERSION : 16.0.1
 BLASLIB   : -mkl
 id        : ccgc

 Nodes     nprocs
 n082         1
 ga_uses_ma=false, calling ma_init with nominal heap.
 GA-space will be limited to   8.0 MW (determined by -G option)

 Using customized tuning parameters: mindgm=10; mindgv=16; mindgc=4; mindgr=1; noblas=0; mincuda=1000; minvec=7
 default implementation of scratch files=df  

 ***,Optimization of h2o_2
 memory,1000,m
 gthresh,energy=1.0d-12,orbital=1.0d-10,oneint=1.0d-16,twoint=1.0d-16,optgrad=1.0d-6,compress=1.0d-13
 geomtyp=xyz
 
 bohr
 geometry = {
  C    0.0004535273   -3.4253149356   -0.0000000000
  H   -0.9703559928   -2.7338732674   -1.6809477507
  H   -0.9703559928   -2.7338732674    1.6809477507
  H    1.9411285456   -2.7325499725   -0.0000000000
  H    0.0013883500   -5.4804752656    0.0000000000
  C   -0.0004519614    3.4224866681   -0.0000000000
  H   -0.0013884766    5.4806357984    0.0000000000
  H    0.9705340242    2.7347625295   -1.6812570360
  H    0.9705340242    2.7347625295    1.6812570360
  H   -1.9414860476    2.7334391831   -0.0000000000
 }
 
 basis=VDZ
 {rhf;maxit,200}
 {ccsd(t);maxit,200}

 Variables initialized (661), CPU time= 0.01 sec
 Commands  initialized (458), CPU time= 0.00 sec, 486 directives.
 Default parameters read. Elapsed time= 0.04 sec

 Checking input...
 Passed
1


                                         ***  PROGRAM SYSTEM MOLPRO  ***
                         Copyright, University College Cardiff Consultants Limited, 2008

                                    Version 2010.1 linked May 16 2016 07:17:05


 **********************************************************************************************************************************
 LABEL *   Optimization of h2o_2                                                         
 Linux-4.4.3/n082(x86_64) 64 bit mpp version                                             DATE: 12-Apr-23          TIME: 13:42:21  
 **********************************************************************************************************************************

 SHA1:             9e8077add272b0f3cad6f7df79ec5211205f459d
 **********************************************************************************************************************************

 THRESHOLDS:

 ZERO    =  1.00D-12  ONEINT  =  1.00D-16  TWOINT  =  1.00D-16  PREFAC  =  1.00D-14  LOCALI  =  1.00D-09  EORDER  =  1.00D-04
 ENERGY  =  1.00D-12  ETEST   =  0.00D+00  EDENS   =  0.00D+00  THRDEDEF=  1.00D-06  GRADIENT=  1.00D-02  STEP    =  1.00D-03
 ORBITAL =  1.00D-10  CIVEC   =  1.00D-05  COEFF   =  1.00D-04  PRINTCI =  5.00D-02  PUNCHCI =  9.90D+01  OPTGRAD =  1.00D-06
 OPTENERG=  1.00D-06  OPTSTEP =  3.00D-04  THRGRAD =  1.00D-10  COMPRESS=  1.00D-13  VARMIN  =  1.00D-07  VARMAX  =  1.00D-03
 THRDOUB =  0.00D+00  THRDIV  =  1.00D-05  THRRED  =  1.00D-07  THRPSP  =  1.00D+00  THRDC   =  1.00D-10  THRCS   =  1.00D-10
 THRNRM  =  1.00D-08  THREQ   =  0.00D+00  THRDE   =  1.00D+00  THRREF  =  1.00D-05  SPARFAC =  1.00D+00  THRDLP  =  1.00D-07
 THRDIA  =  1.00D-10  THRDLS  =  1.00D-07  THRGPS  =  0.00D+00  THRKEX  =  0.00D+00  THRDIS  =  2.00D-01  THRVAR  =  1.00D-10
 THRLOC  =  1.00D-06  THRGAP  =  1.00D-06  THRLOCT = -1.00D+00  THRGAPT = -1.00D+00  THRORB  =  1.00D-06  THRMLTP =  0.00D+00
 THRCPQCI=  1.00D-10  KEXTA   =  0.00D+00  THRCOARS=  0.00D+00  SYMTOL  =  1.00D-06  GRADTOL =  1.00D-06  THROVL  =  1.00D-08
 THRORTH =  1.00D-08  GRID    =  1.00D-06  GRIDMAX =  1.00D-03  DTMAX   =  0.00D+00

 SETTING GEOMTYP        =    XYZ
 ZUNIT=BOHR
 

 Variable memory set to 1000000000 words,  buffer space   230000 words

 SETTING BASIS          =    VDZ


 Recomputing integrals since basis changed


 Using spherical harmonics

 Library entry C      S cc-pVDZ              selected for orbital group  1
 Library entry C      P cc-pVDZ              selected for orbital group  1
 Library entry C      D cc-pVDZ              selected for orbital group  1
 Library entry H      S cc-pVDZ              selected for orbital group  2
 Library entry H      P cc-pVDZ              selected for orbital group  2

1PROGRAM * SEWARD (Integral evaluation for generally contracted gaussian basis sets)     Author: Roland Lindh, 1990

 Geometry written to block  1 of record 700


 Point group  Cs  



 ATOMIC COORDINATES

 NR  ATOM    CHARGE       X              Y              Z

   1  C       6.00    0.000453527   -3.425314936    0.000000000
   2  H       1.00   -0.970355993   -2.733873267   -1.680947751
   3  H       1.00   -0.970355993   -2.733873267    1.680947751
   4  H       1.00    1.941128546   -2.732549973    0.000000000
   5  H       1.00    0.001388350   -5.480475266    0.000000000
   6  C       6.00   -0.000451961    3.422486668    0.000000000
   7  H       1.00   -0.001388477    5.480635798    0.000000000
   8  H       1.00    0.970534024    2.734762530   -1.681257036
   9  H       1.00    0.970534024    2.734762530    1.681257036
  10  H       1.00   -1.941486048    2.733439183    0.000000000

 Bond lengths in Bohr (Angstrom)

 1-2  2.060618365  1-3  2.060618365  1-4  2.060617097  1-5  2.055160543  6-7  2.058149343
     ( 1.090432275)     ( 1.090432275)     ( 1.090431604)     ( 1.087544120)     ( 1.089125725)

  6- 8  2.059709566   6- 9  2.059709566   6-10  2.059708659
       ( 1.089951359)       ( 1.089951359)       ( 1.089950880)

 Bond angles

  2-1-3  109.32301409   2-1-4  109.32297763   2-1-5  109.61905386   3-1-4  109.32297763

  3-1-5  109.61905386   4-1-5  109.61903571   7-6-8  109.51831828   7-6-9  109.51831828

  7- 6-10  109.51827694   8- 6- 9  109.42413411   8- 6-10  109.42407658   9- 6-10  109.42407658

 NUCLEAR CHARGE:                   20
 NUMBER OF PRIMITIVE AOS:         110
 NUMBER OF SYMMETRY AOS:          108
 NUMBER OF CONTRACTIONS:           68   (  46A'  +  22A"  )
 NUMBER OF CORE ORBITALS:           2   (   2A'  +   0A"  )
 NUMBER OF VALENCE ORBITALS:       16   (  12A'  +   4A"  )


 NUCLEAR REPULSION ENERGY   41.34165101


 Eigenvalues of metric

         1 0.113E-01 0.127E-01 0.348E-01 0.354E-01 0.373E-01 0.383E-01 0.414E-01 0.509E-01
         2 0.348E-01 0.383E-01 0.559E-01 0.580E-01 0.127E+00 0.144E+00 0.290E+00 0.290E+00


 Contracted 2-electron integrals neglected if value below      1.0D-16
 AO integral compression algorithm  1   Integral accuracy      1.0D-16

     11.796 MB (compressed) written to integral file ( 90.7%)

     Node minimum: 11.796 MB, node maximum: 11.796 MB


 NUMBER OF SORTED TWO-ELECTRON INTEGRALS:    1437431.     BUFFER LENGTH:  32768
 NUMBER OF SEGMENTS:   1  SEGMENT LENGTH:    1437431      RECORD LENGTH: 524288

 Memory used in sort:       1.99 MW

 SORT1 READ     1639638. AND WROTE     1407796. INTEGRALS IN      5 RECORDS. CPU TIME:     0.02 SEC, REAL TIME:     0.03 SEC
 SORT2 READ     1407796. AND WROTE     1437431. INTEGRALS IN     45 RECORDS. CPU TIME:     0.03 SEC, REAL TIME:     0.03 SEC

 FILE SIZES:   FILE 1:    13.0 MBYTE,  FILE 4:    21.0 MBYTE,   TOTAL:     34.0 MBYTE

 OPERATOR DM      FOR CENTER  0  COORDINATES:    0.000000    0.000000    0.000000


 **********************************************************************************************************************************
 DATASETS  * FILE   NREC   LENGTH (MB)   RECORD NAMES
              1      19       13.05       500      610      700      900      950      970     1000      129      960     1100   
                                          VAR    BASINP    GEOM    SYMINP    ZMAT    AOBASIS   BASIS     P2S    ABASIS      S 
                                         1400     1410     1200     1210     1080     1600     1650     1300     1700   
                                           T        V       H0       H01     AOSYM     SMH    MOLCAS    ERIS     OPER   

 PROGRAMS   *        TOTAL       INT
 CPU TIMES  *         0.36      0.32
 REAL TIME  *         0.56 SEC
 DISK USED  *        46.59 MB      
 GA USED    *         0.00 MB       (max)       0.00 MB       (current)
 **********************************************************************************************************************************

1PROGRAM * RHF-SCF (CLOSED SHELL)       Authors: W. Meyer, H.-J. Werner


 NUMBER OF ELECTRONS:      10+   10-
 CONVERGENCE THRESHOLDS:    1.00E-10 (Density)    1.00E-13 (Energy)
 MAX. NUMBER OF ITERATIONS:      200
 INTERPOLATION TYPE:            DIIS
 INTERPOLATION STEPS:              2 (START)      1 (STEP)
 LEVEL SHIFTS:                  0.00 (CLOSED)  0.00 (OPEN) 



 Orbital guess generated from atomic densities. Full valence occupancy:   14   4

 Molecular orbital dump at record        2100.2

 Initial alpha occupancy:   8   2
 Initial beta  occupancy:   8   2
 Wave function symmetry:    1

 ITERATION    DDIFF          GRAD             ENERGY        2-EL.EN.            DIPOLE MOMENTS         DIIS
    1      0.000D+00      0.000D+00       -80.35960305    134.827750   -0.00000    0.00276    0.00000    0
    2      0.000D+00      0.846D-02       -80.39229514    132.547344   -0.00000    0.00036    0.00000    1
    3      0.175D-01      0.311D-02       -80.39615915    133.348919   -0.00000    0.00038    0.00000    2
    4      0.611D-02      0.835D-03       -80.39668793    133.212293    0.00000    0.00007    0.00000    3
    5      0.220D-02      0.880D-04       -80.39669246    133.218325    0.00000    0.00002    0.00000    4
    6      0.310D-03      0.520D-05       -80.39669248    133.218186    0.00000    0.00002    0.00000    5
    7      0.273D-04      0.307D-06       -80.39669248    133.218184    0.00000    0.00001    0.00000    5
    8      0.989D-06      0.561D-07       -80.39669248    133.218186    0.00000    0.00001    0.00000    4
    9      0.158D-06      0.155D-07       -80.39669248    133.218187    0.00000    0.00001    0.00000    4
   10      0.537D-07      0.317D-08       -80.39669248    133.218187    0.00000    0.00001    0.00000    5
   11      0.969D-08      0.630D-09       -80.39669248    133.218187    0.00000    0.00001    0.00000    5
   12      0.139D-08      0.149D-09       -80.39669248    133.218187    0.00000    0.00001    0.00000    6
   13      0.392D-09      0.221D-10       -80.39669248    133.218187    0.00000    0.00001    0.00000    6
   14      0.665D-10      0.538D-11       -80.39669248    133.218187    0.00000    0.00001    0.00000    0

 Final occupancy:   8   2

 !RHF STATE 1.1 Energy                -80.396692477181
 Nuclear energy                        41.34165101
 One-electron energy                 -188.34743693
 Two-electron energy                   66.60909345
 Virial quotient                       -1.00225732
 !RHF STATE 1.1 Dipole moment           0.00000004     0.00001432     0.00000000
 Dipole moment /Debye                   0.00000010     0.00003639     0.00000000

 Orbital energies:

         1.1          2.1          3.1          4.1          5.1          6.1          7.1          8.1          9.1         10.1
    -11.215175   -11.215143    -0.944360    -0.938529    -0.550079    -0.545256    -0.537949    -0.534928     0.172490     0.229246

         1.2          2.2          3.2          4.2
     -0.545253    -0.537953     0.257126     0.296946


 **********************************************************************************************************************************
 DATASETS  * FILE   NREC   LENGTH (MB)   RECORD NAMES
              1      19       13.05       500      610      700      900      950      970     1000      129      960     1100   
                                          VAR    BASINP    GEOM    SYMINP    ZMAT    AOBASIS   BASIS     P2S    ABASIS      S 
                                         1400     1410     1200     1210     1080     1600     1650     1300     1700   
                                           T        V       H0       H01     AOSYM     SMH    MOLCAS    ERIS     OPER   

              2       3        0.47       700     1000     2100   
                                         GEOM     BASIS     RHF  

 PROGRAMS   *        TOTAL       RHF       INT
 CPU TIMES  *         0.46      0.10      0.32
 REAL TIME  *         0.70 SEC
 DISK USED  *        46.59 MB      
 GA USED    *         0.00 MB       (max)       0.00 MB       (current)
 **********************************************************************************************************************************


1PROGRAM * CCSD (Closed-shell coupled cluster)     Authors: C. Hampel, H.-J. Werner, 1991, M. Deegan, P.J. Knowles, 1992


 Convergence thresholds:  THRVAR = 1.00D-08  THRDEN = 1.00D-12

 CCSD(T)     terms to be evaluated (factor= 1.000)


 Number of core orbitals:           2 (   2   0 )
 Number of closed-shell orbitals:   8 (   6   2 )
 Number of external orbitals:      58 (  38  20 )

 Molecular orbitals read from record     2100.2  Type=RHF/CANONICAL (state 1.1)

 Number of N-1 electron functions:               8
 Number of N-2 electron functions:              36
 Number of singly external CSFs:               268
 Number of doubly external CSFs:             55352
 Total number of CSFs:                       55621

 Length of J-op  integral file:               0.00 MB
 Length of K-op  integral file:               0.21 MB
 Length of 3-ext integral record:             0.00 MB

 Memory could be reduced to 1.50 Mwords without degradation in triples

 Integral transformation finished. Total CPU:   0.02 sec, npass=  1  Memory used:   0.55 MW

 Reference energy:                    -80.39669248

 MP2 singlet pair energy:              -0.23204753
 MP2 triplet pair energy:              -0.09154709
 MP2 correlation energy:               -0.32359462
 MP2 total energy:                    -80.72028710

 SCS-MP2 correlation energy:           -0.33541967   (PS=  1.200000  PT=  0.333333)
 SCS-MP2 total energy:                -80.73211214

 ITER.      SQ.NORM     CORR.ENERGY   TOTAL ENERGY   ENERGY CHANGE        DEN1      VAR(S)    VAR(P)  DIIS     TIME
   1      1.13416438    -0.36748991   -80.76418239    -0.04389530    -0.03297619  0.50D-03  0.24D-02  1  1     0.07
   2      1.14676232    -0.37028504   -80.76697752    -0.00279512    -0.01275933  0.15D-04  0.96D-04  2  2     0.11
   3      1.14855140    -0.37045566   -80.76714814    -0.00017062    -0.00095398  0.17D-05  0.56D-05  3  3     0.15
   4      1.14891840    -0.37047595   -80.76716843    -0.00002029    -0.00016553  0.25D-07  0.35D-06  4  4     0.20
   5      1.14896424    -0.37047347   -80.76716595     0.00000248    -0.00002389  0.18D-08  0.18D-07  5  5     0.24
   6      1.14896554    -0.37047341   -80.76716589     0.00000006    -0.00000011  0.19D-09  0.12D-08  6  6     0.29
   7      1.14896563    -0.37047367   -80.76716615    -0.00000026     0.00000013  0.13D-10  0.71D-10  6  1     0.33
   8      1.14896581    -0.37047367   -80.76716614     0.00000001    -0.00000013  0.15D-11  0.41D-11  6  2     0.38
   9      1.14896584    -0.37047365   -80.76716613     0.00000001    -0.00000003  0.15D-12  0.26D-12  6  3     0.43
  10      1.14896583    -0.37047365   -80.76716613     0.00000000     0.00000001  0.11D-13  0.23D-13  6  4     0.47
  11      1.14896582    -0.37047365   -80.76716613    -0.00000000     0.00000001  0.80D-15  0.19D-14  6  5     0.52
  12      1.14896581    -0.37047365   -80.76716613    -0.00000000     0.00000000  0.43D-16  0.23D-15  6  6     0.56
  13      1.14896581    -0.37047365   -80.76716613    -0.00000000     0.00000000  0.34D-17  0.28D-16  6  1     0.61
  14      1.14896581    -0.37047365   -80.76716613     0.00000000     0.00000000  0.60D-18  0.36D-17  6  2     0.65
  15      1.14896581    -0.37047365   -80.76716613     0.00000000     0.00000000  0.71D-19  0.36D-18  6  3     0.70
  16      1.14896581    -0.37047365   -80.76716613    -0.00000000     0.00000000  0.15D-20  0.20D-19  6  5     0.74
  17      1.14896581    -0.37047365   -80.76716613    -0.00000000     0.00000000  0.18D-21  0.56D-21  6  4     0.78
  18      1.14896581    -0.37047365   -80.76716613     0.00000000    -0.00000000  0.45D-22  0.51D-22  6  6     0.83

 Norm of t1 vector:      0.03061333      S-energy:    -0.00000000      T1 diagnostic:  0.00541172
                                                                       D1 diagnostic:  0.00876926


 Total CPU time for triples:      0.32 sec


 RESULTS
 =======

  Reference energy                    -80.396692477181
  CCSD singlet pair energy             -0.281795304987
  CCSD triplet pair energy             -0.088678347381
  CCSD correlation energy              -0.370473652369

  Triples (T) contribution             -0.007531976102
  Total correlation energy             -0.378005628471

  CCSD total energy                   -80.767166129550
  CCSD[T] energy                      -80.774874036511
  CCSD-T energy                       -80.774603791514
 !CCSD(T) total energy                -80.774698105652

 Timing summary (sec):

 STEP                 CPU(USER)    SYS     CPU(TOT)    WALL
 Transformation          0.02      0.01      0.03      0.04
 CCSD iterations         0.81      0.05      0.86      0.89
 Triples                 0.32      0.01      0.33      0.32

 Program statistics:

 Available memory in ccsd:               999999644
 Min. memory needed in ccsd:                189847
 Max. memory used in ccsd:                  234507
 Max. memory used in cckext:                275248 (18 integral passes)



 **********************************************************************************************************************************
 DATASETS  * FILE   NREC   LENGTH (MB)   RECORD NAMES
              1      20       17.46       500      610      700      900      950      970     1000      129      960     1100   
                                          VAR    BASINP    GEOM    SYMINP    ZMAT    AOBASIS   BASIS     P2S    ABASIS      S 
                                         1400     1410     1200     1210     1080     1600     1650     1300     1700     1380   
                                           T        V       H0       H01     AOSYM     SMH    MOLCAS    ERIS     OPER     JKOP   

              2       3        0.47       700     1000     2100   
                                         GEOM     BASIS     RHF  

 PROGRAMS   *        TOTAL   CCSD(T)       RHF       INT
 CPU TIMES  *         1.62      1.16      0.10      0.32
 REAL TIME  *         1.97 SEC
 DISK USED  *        46.59 MB      
 GA USED    *         0.00 MB       (max)       0.00 MB       (current)
 **********************************************************************************************************************************

        CCSD(T)         RHF-SCF 
    -80.77469811    -80.39669248
 **********************************************************************************************************************************
 Variable memory released
