
 Primary working directories    : /tmp/917005.64.gen4.q
 Secondary working directories  : /tmp/917005.64.gen4.q
 Wavefunction directory         : /home/vulcan/lo21740/wfu/
 Main file repository           : /tmp/917005.64.gen4.q/

 ARCHNAME  : Linux/x86_64
 FC        : /opt/intel/compilers_and_libraries_2016.1.150/linux/bin/intel64/ifort
 FCVERSION : 16.0.1
 BLASLIB   : -mkl
 id        : ccgc

 Nodes     nprocs
 n029         1
 ga_uses_ma=false, calling ma_init with nominal heap.
 GA-space will be limited to   8.0 MW (determined by -G option)

 Using customized tuning parameters: mindgm=10; mindgv=16; mindgc=4; mindgr=1; noblas=0; mincuda=1000; minvec=7
 default implementation of scratch files=df  

 ***,Optimization of h2o_2
 memory,1000,m
 gthresh,energy=1.0d-12,orbital=1.0d-10,oneint=1.0d-16,twoint=1.0d-16,optgrad=1.0d-6,compress=1.0d-13
 geomtyp=xyz
 
 bohr
 geometry = {
  C    0.0012546851   -3.4231046417    0.0013900303
  H   -0.9721426831   -2.7335425320   -1.6840419722
  H   -0.9674294995   -2.7348190625    1.6778135789
  H    1.9369504759   -2.7334957668    0.0009663498
  H    0.0029267384   -5.4879154341    0.0026601692
  C   -0.0003129493    3.4244412444    0.0002421501
  H   -0.0013872857    5.4842528079   -0.0000001291
  H    0.9705291218    2.7350372028   -1.6806038949
  H    0.9705293257    2.7354326352    1.6812502108
  H   -1.9409179294    2.7337135468    0.0003235071
 }
 
 basis=VDZ
 {rhf;maxit,200}
 {ccsd(t);maxit,200}

 Variables initialized (661), CPU time= 0.00 sec
 Commands  initialized (458), CPU time= 0.00 sec, 486 directives.
 Default parameters read. Elapsed time= 0.05 sec

 Checking input...
 Passed
1


                                         ***  PROGRAM SYSTEM MOLPRO  ***
                         Copyright, University College Cardiff Consultants Limited, 2008

                                    Version 2010.1 linked May 16 2016 07:17:05


 **********************************************************************************************************************************
 LABEL *   Optimization of h2o_2                                                         
 Linux-4.4.3/n029(x86_64) 64 bit mpp version                                             DATE: 19-Jul-23          TIME: 16:08:42  
 **********************************************************************************************************************************

 SHA1:             9e8077add272b0f3cad6f7df79ec5211205f459d
 **********************************************************************************************************************************

 THRESHOLDS:

 ZERO    =  1.00D-12  ONEINT  =  1.00D-16  TWOINT  =  1.00D-16  PREFAC  =  1.00D-14  LOCALI  =  1.00D-09  EORDER  =  1.00D-04
 ENERGY  =  1.00D-12  ETEST   =  0.00D+00  EDENS   =  0.00D+00  THRDEDEF=  1.00D-06  GRADIENT=  1.00D-02  STEP    =  1.00D-03
 ORBITAL =  1.00D-10  CIVEC   =  1.00D-05  COEFF   =  1.00D-04  PRINTCI =  5.00D-02  PUNCHCI =  9.90D+01  OPTGRAD =  1.00D-06
 OPTENERG=  1.00D-06  OPTSTEP =  3.00D-04  THRGRAD =  1.00D-10  COMPRESS=  1.00D-13  VARMIN  =  1.00D-07  VARMAX  =  1.00D-03
 THRDOUB =  0.00D+00  THRDIV  =  1.00D-05  THRRED  =  1.00D-07  THRPSP  =  1.00D+00  THRDC   =  1.00D-10  THRCS   =  1.00D-10
 THRNRM  =  1.00D-08  THREQ   =  0.00D+00  THRDE   =  1.00D+00  THRREF  =  1.00D-05  SPARFAC =  1.00D+00  THRDLP  =  1.00D-07
 THRDIA  =  1.00D-10  THRDLS  =  1.00D-07  THRGPS  =  0.00D+00  THRKEX  =  0.00D+00  THRDIS  =  2.00D-01  THRVAR  =  1.00D-10
 THRLOC  =  1.00D-06  THRGAP  =  1.00D-06  THRLOCT = -1.00D+00  THRGAPT = -1.00D+00  THRORB  =  1.00D-06  THRMLTP =  0.00D+00
 THRCPQCI=  1.00D-10  KEXTA   =  0.00D+00  THRCOARS=  0.00D+00  SYMTOL  =  1.00D-06  GRADTOL =  1.00D-06  THROVL  =  1.00D-08
 THRORTH =  1.00D-08  GRID    =  1.00D-06  GRIDMAX =  1.00D-03  DTMAX   =  0.00D+00

 SETTING GEOMTYP        =    XYZ
 ZUNIT=BOHR
 

 Variable memory set to 1000000000 words,  buffer space   230000 words

 SETTING BASIS          =    VDZ


 Recomputing integrals since basis changed


 Using spherical harmonics

 Library entry C      S cc-pVDZ              selected for orbital group  1
 Library entry C      P cc-pVDZ              selected for orbital group  1
 Library entry C      D cc-pVDZ              selected for orbital group  1
 Library entry H      S cc-pVDZ              selected for orbital group  2
 Library entry H      P cc-pVDZ              selected for orbital group  2

1PROGRAM * SEWARD (Integral evaluation for generally contracted gaussian basis sets)     Author: Roland Lindh, 1990

 Geometry written to block  1 of record 700


 Point group  C1  



 ATOMIC COORDINATES

 NR  ATOM    CHARGE       X              Y              Z

   1  C       6.00    0.001254685   -3.423104642    0.001390030
   2  H       1.00   -0.972142683   -2.733542532   -1.684041972
   3  H       1.00   -0.967429500   -2.734819063    1.677813579
   4  H       1.00    1.936950476   -2.733495767    0.000966350
   5  H       1.00    0.002926738   -5.487915434    0.002660169
   6  C       6.00   -0.000312949    3.424441244    0.000242150
   7  H       1.00   -0.001387286    5.484252808   -0.000000129
   8  H       1.00    0.970529122    2.735037203   -1.680603895
   9  H       1.00    0.970529326    2.735432635    1.681250211
  10  H       1.00   -1.940917929    2.733713547    0.000323507

 Bond lengths in Bohr (Angstrom)

 1-2  2.064867883  1-3  2.054867880  1-4  2.054867094  1-5  2.064811860  6-7  2.059811858
     ( 1.092681023)     ( 1.087389249)     ( 1.087388834)     ( 1.092651377)     ( 1.090005490)

  6- 8  2.059867881   6- 9  2.059867881   6-10  2.059867095
       ( 1.090035136)       ( 1.090035136)       ( 1.090034720)

 Bond angles

  2-1-3  109.37992586   2-1-4  109.37980969   2-1-5  109.56240831   3-1-4  109.37980986

  3-1-5  109.56240808   4-1-5  109.56250051   7-6-8  109.56240843   7-6-9  109.56240831

  7- 6-10  109.56250021   8- 6- 9  109.37992592   8- 6-10  109.37980957   9- 6-10  109.37980988

 NUCLEAR CHARGE:                   20
 NUMBER OF PRIMITIVE AOS:         110
 NUMBER OF SYMMETRY AOS:          108
 NUMBER OF CONTRACTIONS:           68   (  68A   )
 NUMBER OF CORE ORBITALS:           2   (   2A   )
 NUMBER OF VALENCE ORBITALS:       16   (  16A   )


 NUCLEAR REPULSION ENERGY   41.33302634


 Eigenvalues of metric

         1 0.113E-01 0.127E-01 0.347E-01 0.349E-01 0.357E-01 0.376E-01 0.382E-01 0.384E-01


 Contracted 2-electron integrals neglected if value below      1.0D-16
 AO integral compression algorithm  1   Integral accuracy      1.0D-16

     21.496 MB (compressed) written to integral file ( 86.7%)

     Node minimum: 21.496 MB, node maximum: 21.496 MB


 NUMBER OF SORTED TWO-ELECTRON INTEGRALS:    2753031.     BUFFER LENGTH:  32768
 NUMBER OF SEGMENTS:   1  SEGMENT LENGTH:    2753031      RECORD LENGTH: 524288

 Memory used in sort:       3.31 MW

 SORT1 READ     3104305. AND WROTE     2685241. INTEGRALS IN      8 RECORDS. CPU TIME:     0.03 SEC, REAL TIME:     0.05 SEC
 SORT2 READ     2685241. AND WROTE     2753031. INTEGRALS IN     82 RECORDS. CPU TIME:     0.06 SEC, REAL TIME:     0.06 SEC

 FILE SIZES:   FILE 1:    21.4 MBYTE,  FILE 4:    33.6 MBYTE,   TOTAL:     55.0 MBYTE

 OPERATOR DM      FOR CENTER  0  COORDINATES:    0.000000    0.000000    0.000000


 **********************************************************************************************************************************
 DATASETS  * FILE   NREC   LENGTH (MB)   RECORD NAMES
              1      19       21.46       500      610      700      900      950      970     1000      129      960     1100   
                                          VAR    BASINP    GEOM    SYMINP    ZMAT    AOBASIS   BASIS     P2S    ABASIS      S 
                                         1400     1410     1200     1210     1080     1600     1650     1300     1700   
                                           T        V       H0       H01     AOSYM     SMH    MOLCAS    ERIS     OPER   

 PROGRAMS   *        TOTAL       INT
 CPU TIMES  *         0.62      0.57
 REAL TIME  *         1.83 SEC
 DISK USED  *        77.26 MB      
 GA USED    *         0.00 MB       (max)       0.00 MB       (current)
 **********************************************************************************************************************************

1PROGRAM * RHF-SCF (CLOSED SHELL)       Authors: W. Meyer, H.-J. Werner


 NUMBER OF ELECTRONS:      10+   10-    SPACE SYMMETRY=1    SPIN SYMMETRY: Singlet 
 CONVERGENCE THRESHOLDS:    1.00E-10 (Density)    1.00E-13 (Energy)
 MAX. NUMBER OF ITERATIONS:      200
 INTERPOLATION TYPE:            DIIS
 INTERPOLATION STEPS:              2 (START)      1 (STEP)
 LEVEL SHIFTS:                  0.00 (CLOSED)  0.00 (OPEN) 



 Orbital guess generated from atomic densities. Full valence occupancy:   18

 Molecular orbital dump at record        2100.2

 ITERATION    DDIFF          GRAD             ENERGY        2-EL.EN.            DIPOLE MOMENTS         DIIS
    1      0.000D+00      0.000D+00       -80.35961995    134.811580   -0.00126   -0.00173   -0.00218    0
    2      0.000D+00      0.637D-02       -80.39228851    132.531299    0.00051    0.00070    0.00089    1
    3      0.132D-01      0.234D-02       -80.39615031    133.332749    0.00050    0.00081    0.00086    2
    4      0.460D-02      0.630D-03       -80.39667895    133.195881    0.00069    0.00114    0.00120    3
    5      0.165D-02      0.664D-04       -80.39668347    133.201894    0.00072    0.00120    0.00125    4
    6      0.233D-03      0.393D-05       -80.39668349    133.201756    0.00072    0.00120    0.00125    5
    7      0.205D-04      0.236D-06       -80.39668349    133.201753    0.00072    0.00121    0.00125    5
    8      0.754D-06      0.403D-07       -80.39668349    133.201755    0.00072    0.00121    0.00125    4
    9      0.105D-06      0.110D-07       -80.39668349    133.201755    0.00072    0.00121    0.00125    4
   10      0.365D-07      0.245D-08       -80.39668349    133.201755    0.00072    0.00121    0.00125    5
   11      0.842D-08      0.326D-09       -80.39668349    133.201755    0.00072    0.00121    0.00125    5
   12      0.799D-09      0.100D-09       -80.39668349    133.201755    0.00072    0.00121    0.00125    6
   13      0.264D-09      0.286D-10       -80.39668349    133.201755    0.00072    0.00121    0.00125    6
   14      0.865D-10      0.433D-11       -80.39668349    133.201755    0.00072    0.00121    0.00125    6
   15      0.185D-10      0.645D-12       -80.39668349    133.201755    0.00072    0.00121    0.00125    0

 Final occupancy:  10

 !RHF STATE 1.1 Energy                -80.396683491439
 Nuclear energy                        41.33302634
 One-electron energy                 -188.33058749
 Two-electron energy                   66.60087766
 Virial quotient                       -1.00229894
 !RHF STATE 1.1 Dipole moment           0.00072320     0.00120750     0.00125354
 Dipole moment /Debye                   0.00183807     0.00306896     0.00318598

 Orbital energies:

         1.1          2.1          3.1          4.1          5.1          6.1          7.1          8.1          9.1         10.1
    -11.215332   -11.215306    -0.944269    -0.938420    -0.549398    -0.545805    -0.545214    -0.538487    -0.537927    -0.534259

        11.1         12.1
      0.172384     0.229281


 **********************************************************************************************************************************
 DATASETS  * FILE   NREC   LENGTH (MB)   RECORD NAMES
              1      19       21.46       500      610      700      900      950      970     1000      129      960     1100   
                                          VAR    BASINP    GEOM    SYMINP    ZMAT    AOBASIS   BASIS     P2S    ABASIS      S 
                                         1400     1410     1200     1210     1080     1600     1650     1300     1700   
                                           T        V       H0       H01     AOSYM     SMH    MOLCAS    ERIS     OPER   

              2       3        0.51       700     1000     2100   
                                         GEOM     BASIS     RHF  

 PROGRAMS   *        TOTAL       RHF       INT
 CPU TIMES  *         0.98      0.36      0.57
 REAL TIME  *         2.23 SEC
 DISK USED  *        77.26 MB      
 GA USED    *         0.00 MB       (max)       0.00 MB       (current)
 **********************************************************************************************************************************


1PROGRAM * CCSD (Closed-shell coupled cluster)     Authors: C. Hampel, H.-J. Werner, 1991, M. Deegan, P.J. Knowles, 1992


 Convergence thresholds:  THRVAR = 1.00D-08  THRDEN = 1.00D-12

 CCSD(T)     terms to be evaluated (factor= 1.000)


 Number of core orbitals:           2 (   2 )
 Number of closed-shell orbitals:   8 (   8 )
 Number of external orbitals:      58 (  58 )

 Molecular orbitals read from record     2100.2  Type=RHF/CANONICAL (state 1.1)

 Number of N-1 electron functions:               8
 Number of N-2 electron functions:              36
 Number of singly external CSFs:               464
 Number of doubly external CSFs:            107880
 Total number of CSFs:                      108345

 Length of J-op  integral file:               0.00 MB
 Length of K-op  integral file:               0.35 MB
 Length of 3-ext integral record:             0.00 MB

 Memory could be reduced to 2.66 Mwords without degradation in triples

 Integral transformation finished. Total CPU:   0.10 sec, npass=  1  Memory used:   1.86 MW

 Reference energy:                    -80.39668349

 MP2 singlet pair energy:              -0.23207550
 MP2 triplet pair energy:              -0.09154600
 MP2 correlation energy:               -0.32362150
 MP2 total energy:                    -80.72030499

 SCS-MP2 correlation energy:           -0.33545255   (PS=  1.200000  PT=  0.333333)
 SCS-MP2 total energy:                -80.73213605

 ITER.      SQ.NORM     CORR.ENERGY   TOTAL ENERGY   ENERGY CHANGE        DEN1      VAR(S)    VAR(P)  DIIS     TIME
   1      1.13420931    -0.36752335   -80.76420684    -0.04390184    -0.03297792  0.50D-03  0.24D-02  1  1     0.28
   2      1.14681840    -0.37032081   -80.76700431    -0.00279747    -0.01276561  0.15D-04  0.96D-04  2  2     0.48
   3      1.14861022    -0.37049185   -80.76717534    -0.00017103    -0.00095506  0.17D-05  0.56D-05  3  3     0.67
   4      1.14897788    -0.37051216   -80.76719565    -0.00002031    -0.00016574  0.25D-07  0.35D-06  4  4     0.86
   5      1.14902378    -0.37050968   -80.76719317     0.00000248    -0.00002390  0.18D-08  0.18D-07  5  5     1.05
   6      1.14902509    -0.37050962   -80.76719311     0.00000006    -0.00000011  0.19D-09  0.12D-08  6  6     1.24
   7      1.14902519    -0.37050988   -80.76719337    -0.00000026     0.00000013  0.13D-10  0.71D-10  6  1     1.44
   8      1.14902536    -0.37050987   -80.76719336     0.00000001    -0.00000013  0.15D-11  0.41D-11  6  2     1.63
   9      1.14902539    -0.37050986   -80.76719335     0.00000001    -0.00000003  0.15D-12  0.26D-12  6  3     1.82
  10      1.14902538    -0.37050986   -80.76719335     0.00000000     0.00000001  0.11D-13  0.23D-13  6  4     2.01
  11      1.14902537    -0.37050986   -80.76719335    -0.00000000     0.00000001  0.80D-15  0.19D-14  6  5     2.21
  12      1.14902537    -0.37050986   -80.76719335    -0.00000000     0.00000000  0.43D-16  0.23D-15  6  6     2.40
  13      1.14902537    -0.37050986   -80.76719335    -0.00000000     0.00000000  0.33D-17  0.28D-16  6  1     2.59
  14      1.14902537    -0.37050986   -80.76719335     0.00000000     0.00000000  0.58D-18  0.37D-17  6  2     2.78
  15      1.14902537    -0.37050986   -80.76719335     0.00000000     0.00000000  0.71D-19  0.37D-18  6  3     2.98
  16      1.14902537    -0.37050986   -80.76719335    -0.00000000     0.00000000  0.15D-20  0.20D-19  6  5     3.16
  17      1.14902537    -0.37050986   -80.76719335    -0.00000000     0.00000000  0.18D-21  0.56D-21  6  4     3.35
  18      1.14902537    -0.37050986   -80.76719335     0.00000000    -0.00000000  0.45D-22  0.51D-22  6  6     3.54

 Norm of t1 vector:      0.03062615      S-energy:     0.00000000      T1 diagnostic:  0.00541399
                                                                       D1 diagnostic:  0.00880673


 Total CPU time for triples:      1.32 sec


 RESULTS
 =======

  Reference energy                    -80.396683491439
  CCSD singlet pair energy             -0.281839339878
  CCSD triplet pair energy             -0.088670518336
  CCSD correlation energy              -0.370509858214

  Triples (T) contribution             -0.007535182000
  Total correlation energy             -0.378045040215

  CCSD total energy                   -80.767193349653
  CCSD[T] energy                      -80.774904721467
  CCSD-T energy                       -80.774634095456
 !CCSD(T) total energy                -80.774728531653

 Timing summary (sec):

 STEP                 CPU(USER)    SYS     CPU(TOT)    WALL
 Transformation          0.11      0.01      0.12      0.12
 CCSD iterations         3.43      0.14      3.57      3.60
 Triples                 1.32      0.03      1.35      1.35

 Program statistics:

 Available memory in ccsd:               999999644
 Min. memory needed in ccsd:                356281
 Max. memory used in ccsd:                  442401
 Max. memory used in cckext:                403930 (18 integral passes)



 **********************************************************************************************************************************
 DATASETS  * FILE   NREC   LENGTH (MB)   RECORD NAMES
              1      20       29.92       500      610      700      900      950      970     1000      129      960     1100   
                                          VAR    BASINP    GEOM    SYMINP    ZMAT    AOBASIS   BASIS     P2S    ABASIS      S 
                                         1400     1410     1200     1210     1080     1600     1650     1300     1700     1380   
                                           T        V       H0       H01     AOSYM     SMH    MOLCAS    ERIS     OPER     JKOP   

              2       3        0.51       700     1000     2100   
                                         GEOM     BASIS     RHF  

 PROGRAMS   *        TOTAL   CCSD(T)       RHF       INT
 CPU TIMES  *         5.85      4.87      0.36      0.57
 REAL TIME  *         7.34 SEC
 DISK USED  *        77.26 MB      
 GA USED    *         0.00 MB       (max)       0.00 MB       (current)
 **********************************************************************************************************************************

        CCSD(T)         RHF-SCF 
    -80.77472853    -80.39668349
 **********************************************************************************************************************************
 Variable memory released
