
 Primary working directories    : /tmp/917005.309.gen5.q
 Secondary working directories  : /tmp/917005.309.gen5.q
 Wavefunction directory         : /home/vulcan/lo21740/wfu/
 Main file repository           : /tmp/917005.309.gen5.q/

 ARCHNAME  : Linux/x86_64
 FC        : /opt/intel/compilers_and_libraries_2016.1.150/linux/bin/intel64/ifort
 FCVERSION : 16.0.1
 BLASLIB   : -mkl
 id        : ccgc

 Nodes     nprocs
 n071         1
 ga_uses_ma=false, calling ma_init with nominal heap.
 GA-space will be limited to   8.0 MW (determined by -G option)

 Using customized tuning parameters: mindgm=10; mindgv=16; mindgc=4; mindgr=1; noblas=0; mincuda=1000; minvec=7
 default implementation of scratch files=df  

 ***,Optimization of h2o_2
 memory,1000,m
 gthresh,energy=1.0d-12,orbital=1.0d-10,oneint=1.0d-16,twoint=1.0d-16,optgrad=1.0d-6,compress=1.0d-13
 geomtyp=xyz
 
 bohr
 geometry = {
  C    0.0017991424   -3.4212179057    0.0004551114
  H   -0.9676853226   -2.7285245778   -1.6798221082
  H   -0.9676866102   -2.7316838944    1.6820305375
  H    1.9437585569   -2.7343076650    0.0011013889
  H   -0.0011767507   -5.4810267106   -0.0014806058
  C   -0.0008540258    3.4225518323   -0.0020875297
  H    0.0026938857    5.4773603786   -0.0011878600
  H    0.9660827200    2.7335770947   -1.6792366348
  H    0.9707896863    2.7287486210    1.6826156908
  H   -1.9477212820    2.7345228268   -0.0023879901
 }
 
 basis=VDZ
 {rhf;maxit,200}
 {ccsd(t);maxit,200}

 Variables initialized (661), CPU time= 0.00 sec
 Commands  initialized (458), CPU time= 0.01 sec, 486 directives.
 Default parameters read. Elapsed time= 0.08 sec

 Checking input...
 Passed
1


                                         ***  PROGRAM SYSTEM MOLPRO  ***
                         Copyright, University College Cardiff Consultants Limited, 2008

                                    Version 2010.1 linked May 16 2016 07:17:05


 **********************************************************************************************************************************
 LABEL *   Optimization of h2o_2                                                         
 Linux-4.4.3/n071(x86_64) 64 bit mpp version                                             DATE: 19-Jul-23          TIME: 16:15:44  
 **********************************************************************************************************************************

 SHA1:             9e8077add272b0f3cad6f7df79ec5211205f459d
 **********************************************************************************************************************************

 THRESHOLDS:

 ZERO    =  1.00D-12  ONEINT  =  1.00D-16  TWOINT  =  1.00D-16  PREFAC  =  1.00D-14  LOCALI  =  1.00D-09  EORDER  =  1.00D-04
 ENERGY  =  1.00D-12  ETEST   =  0.00D+00  EDENS   =  0.00D+00  THRDEDEF=  1.00D-06  GRADIENT=  1.00D-02  STEP    =  1.00D-03
 ORBITAL =  1.00D-10  CIVEC   =  1.00D-05  COEFF   =  1.00D-04  PRINTCI =  5.00D-02  PUNCHCI =  9.90D+01  OPTGRAD =  1.00D-06
 OPTENERG=  1.00D-06  OPTSTEP =  3.00D-04  THRGRAD =  1.00D-10  COMPRESS=  1.00D-13  VARMIN  =  1.00D-07  VARMAX  =  1.00D-03
 THRDOUB =  0.00D+00  THRDIV  =  1.00D-05  THRRED  =  1.00D-07  THRPSP  =  1.00D+00  THRDC   =  1.00D-10  THRCS   =  1.00D-10
 THRNRM  =  1.00D-08  THREQ   =  0.00D+00  THRDE   =  1.00D+00  THRREF  =  1.00D-05  SPARFAC =  1.00D+00  THRDLP  =  1.00D-07
 THRDIA  =  1.00D-10  THRDLS  =  1.00D-07  THRGPS  =  0.00D+00  THRKEX  =  0.00D+00  THRDIS  =  2.00D-01  THRVAR  =  1.00D-10
 THRLOC  =  1.00D-06  THRGAP  =  1.00D-06  THRLOCT = -1.00D+00  THRGAPT = -1.00D+00  THRORB  =  1.00D-06  THRMLTP =  0.00D+00
 THRCPQCI=  1.00D-10  KEXTA   =  0.00D+00  THRCOARS=  0.00D+00  SYMTOL  =  1.00D-06  GRADTOL =  1.00D-06  THROVL  =  1.00D-08
 THRORTH =  1.00D-08  GRID    =  1.00D-06  GRIDMAX =  1.00D-03  DTMAX   =  0.00D+00

 SETTING GEOMTYP        =    XYZ
 ZUNIT=BOHR
 

 Variable memory set to 1000000000 words,  buffer space   230000 words

 SETTING BASIS          =    VDZ


 Recomputing integrals since basis changed


 Using spherical harmonics

 Library entry C      S cc-pVDZ              selected for orbital group  1
 Library entry C      P cc-pVDZ              selected for orbital group  1
 Library entry C      D cc-pVDZ              selected for orbital group  1
 Library entry H      S cc-pVDZ              selected for orbital group  2
 Library entry H      P cc-pVDZ              selected for orbital group  2

1PROGRAM * SEWARD (Integral evaluation for generally contracted gaussian basis sets)     Author: Roland Lindh, 1990

 Geometry written to block  1 of record 700


 Point group  C1  



 ATOMIC COORDINATES

 NR  ATOM    CHARGE       X              Y              Z

   1  C       6.00    0.001799142   -3.421217906    0.000455111
   2  H       1.00   -0.967685323   -2.728524578   -1.679822108
   3  H       1.00   -0.967686610   -2.731683894    1.682030537
   4  H       1.00    1.943758557   -2.734307665    0.001101389
   5  H       1.00   -0.001176751   -5.481026711   -0.001480606
   6  C       6.00   -0.000854026    3.422551832   -0.002087530
   7  H       1.00    0.002693886    5.477360379   -0.001187860
   8  H       1.00    0.966082720    2.733577095   -1.679236635
   9  H       1.00    0.970789686    2.728748621    1.682615691
  10  H       1.00   -1.947721282    2.734522827   -0.002387990

 Bond lengths in Bohr (Angstrom)

 1-2  2.059867886  1-3  2.059867882  1-4  2.059867099  1-5  2.059811864  6-7  2.054811806
     ( 1.090035139)     ( 1.090035137)     ( 1.090034722)     ( 1.090005493)     ( 1.087359577)

  6- 8  2.054867874   6- 9  2.064867875   6-10  2.064867094
       ( 1.087389247)       ( 1.092681019)       ( 1.092680606)

 Bond angles

  2-1-3  109.37992572   2-1-4  109.37980988   2-1-5  109.56240829   3-1-4  109.37980961

  3-1-5  109.56240840   4-1-5  109.56250041   7-6-8  109.56240787   7-6-9  109.56240981

  7- 6-10  109.56249888   8- 6- 9  109.37992596   8- 6-10  109.37980997   9- 6-10  109.37980982

 NUCLEAR CHARGE:                   20
 NUMBER OF PRIMITIVE AOS:         110
 NUMBER OF SYMMETRY AOS:          108
 NUMBER OF CONTRACTIONS:           68   (  68A   )
 NUMBER OF CORE ORBITALS:           2   (   2A   )
 NUMBER OF VALENCE ORBITALS:       16   (  16A   )


 NUCLEAR REPULSION ENERGY   41.34214123


 Eigenvalues of metric

         1 0.113E-01 0.127E-01 0.348E-01 0.350E-01 0.355E-01 0.374E-01 0.383E-01 0.385E-01


 Contracted 2-electron integrals neglected if value below      1.0D-16
 AO integral compression algorithm  1   Integral accuracy      1.0D-16

     21.758 MB (compressed) written to integral file ( 86.6%)

     Node minimum: 21.758 MB, node maximum: 21.758 MB


 NUMBER OF SORTED TWO-ELECTRON INTEGRALS:    2753031.     BUFFER LENGTH:  32768
 NUMBER OF SEGMENTS:   1  SEGMENT LENGTH:    2753031      RECORD LENGTH: 524288

 Memory used in sort:       3.31 MW

 SORT1 READ     3104305. AND WROTE     2685001. INTEGRALS IN      8 RECORDS. CPU TIME:     0.05 SEC, REAL TIME:     0.07 SEC
 SORT2 READ     2685001. AND WROTE     2753031. INTEGRALS IN     83 RECORDS. CPU TIME:     0.07 SEC, REAL TIME:     0.09 SEC

 FILE SIZES:   FILE 1:    21.5 MBYTE,  FILE 4:    33.6 MBYTE,   TOTAL:     55.1 MBYTE

 OPERATOR DM      FOR CENTER  0  COORDINATES:    0.000000    0.000000    0.000000


 **********************************************************************************************************************************
 DATASETS  * FILE   NREC   LENGTH (MB)   RECORD NAMES
              1      19       21.56       500      610      700      900      950      970     1000      129      960     1100   
                                          VAR    BASINP    GEOM    SYMINP    ZMAT    AOBASIS   BASIS     P2S    ABASIS      S 
                                         1400     1410     1200     1210     1080     1600     1650     1300     1700   
                                           T        V       H0       H01     AOSYM     SMH    MOLCAS    ERIS     OPER   

 PROGRAMS   *        TOTAL       INT
 CPU TIMES  *         0.99      0.87
 REAL TIME  *         1.57 SEC
 DISK USED  *        77.62 MB      
 GA USED    *         0.00 MB       (max)       0.00 MB       (current)
 **********************************************************************************************************************************

1PROGRAM * RHF-SCF (CLOSED SHELL)       Authors: W. Meyer, H.-J. Werner


 NUMBER OF ELECTRONS:      10+   10-    SPACE SYMMETRY=1    SPIN SYMMETRY: Singlet 
 CONVERGENCE THRESHOLDS:    1.00E-10 (Density)    1.00E-13 (Energy)
 MAX. NUMBER OF ITERATIONS:      200
 INTERPOLATION TYPE:            DIIS
 INTERPOLATION STEPS:              2 (START)      1 (STEP)
 LEVEL SHIFTS:                  0.00 (CLOSED)  0.00 (OPEN) 



 Orbital guess generated from atomic densities. Full valence occupancy:   18

 Molecular orbital dump at record        2100.2

 ITERATION    DDIFF          GRAD             ENERGY        2-EL.EN.            DIPOLE MOMENTS         DIIS
    1      0.000D+00      0.000D+00       -80.35961060    134.829247   -0.00126   -0.00173    0.00218    0
    2      0.000D+00      0.637D-02       -80.39228034    132.550461    0.00052    0.00070   -0.00089    1
    3      0.132D-01      0.234D-02       -80.39614215    133.351808    0.00050    0.00081   -0.00086    2
    4      0.460D-02      0.630D-03       -80.39667087    133.215060    0.00070    0.00114   -0.00120    3
    5      0.165D-02      0.664D-04       -80.39667540    133.221096    0.00072    0.00120   -0.00125    4
    6      0.233D-03      0.393D-05       -80.39667542    133.220958    0.00072    0.00120   -0.00125    5
    7      0.206D-04      0.234D-06       -80.39667542    133.220956    0.00073    0.00120   -0.00125    5
    8      0.749D-06      0.436D-07       -80.39667542    133.220958    0.00073    0.00121   -0.00125    4
    9      0.122D-06      0.121D-07       -80.39667542    133.220959    0.00073    0.00121   -0.00125    4
   10      0.421D-07      0.213D-08       -80.39667542    133.220959    0.00073    0.00121   -0.00125    5
   11      0.704D-08      0.271D-09       -80.39667542    133.220959    0.00073    0.00121   -0.00125    5
   12      0.796D-09      0.624D-10       -80.39667542    133.220959    0.00073    0.00121   -0.00125    6
   13      0.207D-09      0.169D-10       -80.39667542    133.220959    0.00073    0.00121   -0.00125    6
   14      0.376D-10      0.509D-11       -80.39667542    133.220959    0.00073    0.00121   -0.00125    6
   15      0.178D-10      0.338D-12       -80.39667542    133.220959    0.00073    0.00121   -0.00125    6
   16      0.109D-11      0.881D-13       -80.39667542    133.220959    0.00073    0.00121   -0.00125    0

 Final occupancy:  10

 !RHF STATE 1.1 Energy                -80.396675416818
 Nuclear energy                        41.34214123
 One-electron energy                 -188.34929598
 Two-electron energy                   66.61047933
 Virial quotient                       -1.00229815
 !RHF STATE 1.1 Dipole moment           0.00072605     0.00120566    -0.00125368
 Dipole moment /Debye                   0.00184531     0.00306428    -0.00318632

 Orbital energies:

         1.1          2.1          3.1          4.1          5.1          6.1          7.1          8.1          9.1         10.1
    -11.215306   -11.215280    -0.944249    -0.938389    -0.550003    -0.545485    -0.544949    -0.538183    -0.537557    -0.534768

        11.1         12.1
      0.172481     0.229226


 **********************************************************************************************************************************
 DATASETS  * FILE   NREC   LENGTH (MB)   RECORD NAMES
              1      19       21.56       500      610      700      900      950      970     1000      129      960     1100   
                                          VAR    BASINP    GEOM    SYMINP    ZMAT    AOBASIS   BASIS     P2S    ABASIS      S 
                                         1400     1410     1200     1210     1080     1600     1650     1300     1700   
                                           T        V       H0       H01     AOSYM     SMH    MOLCAS    ERIS     OPER   

              2       3        0.51       700     1000     2100   
                                         GEOM     BASIS     RHF  

 PROGRAMS   *        TOTAL       RHF       INT
 CPU TIMES  *         1.41      0.42      0.87
 REAL TIME  *         2.08 SEC
 DISK USED  *        77.62 MB      
 GA USED    *         0.00 MB       (max)       0.00 MB       (current)
 **********************************************************************************************************************************


1PROGRAM * CCSD (Closed-shell coupled cluster)     Authors: C. Hampel, H.-J. Werner, 1991, M. Deegan, P.J. Knowles, 1992


 Convergence thresholds:  THRVAR = 1.00D-08  THRDEN = 1.00D-12

 CCSD(T)     terms to be evaluated (factor= 1.000)


 Number of core orbitals:           2 (   2 )
 Number of closed-shell orbitals:   8 (   8 )
 Number of external orbitals:      58 (  58 )

 Molecular orbitals read from record     2100.2  Type=RHF/CANONICAL (state 1.1)

 Number of N-1 electron functions:               8
 Number of N-2 electron functions:              36
 Number of singly external CSFs:               464
 Number of doubly external CSFs:            107880
 Total number of CSFs:                      108345

 Length of J-op  integral file:               0.00 MB
 Length of K-op  integral file:               0.35 MB
 Length of 3-ext integral record:             0.00 MB

 Memory could be reduced to 2.66 Mwords without degradation in triples

 Integral transformation finished. Total CPU:   0.08 sec, npass=  1  Memory used:   1.86 MW

 Reference energy:                    -80.39667542

 MP2 singlet pair energy:              -0.23207788
 MP2 triplet pair energy:              -0.09154891
 MP2 correlation energy:               -0.32362679
 MP2 total energy:                    -80.72030221

 SCS-MP2 correlation energy:           -0.33545722   (PS=  1.200000  PT=  0.333333)
 SCS-MP2 total energy:                -80.73213264

 ITER.      SQ.NORM     CORR.ENERGY   TOTAL ENERGY   ENERGY CHANGE        DEN1      VAR(S)    VAR(P)  DIIS     TIME
   1      1.13421072    -0.36752862   -80.76420404    -0.04390184    -0.03297790  0.50D-03  0.24D-02  1  1     0.23
   2      1.14681963    -0.37032606   -80.76700148    -0.00279744    -0.01276533  0.15D-04  0.96D-04  2  2     0.39
   3      1.14861146    -0.37049708   -80.76717250    -0.00017102    -0.00095510  0.17D-05  0.56D-05  3  3     0.55
   4      1.14897936    -0.37051738   -80.76719280    -0.00002030    -0.00016591  0.25D-07  0.35D-06  4  4     0.71
   5      1.14902532    -0.37051490   -80.76719032     0.00000248    -0.00002394  0.18D-08  0.18D-07  5  5     0.87
   6      1.14902662    -0.37051484   -80.76719026     0.00000006    -0.00000010  0.19D-09  0.12D-08  6  6     1.03
   7      1.14902671    -0.37051510   -80.76719052    -0.00000026     0.00000013  0.13D-10  0.71D-10  6  1     1.18
   8      1.14902688    -0.37051510   -80.76719051     0.00000001    -0.00000013  0.15D-11  0.41D-11  6  2     1.34
   9      1.14902691    -0.37051508   -80.76719050     0.00000001    -0.00000003  0.15D-12  0.26D-12  6  3     1.49
  10      1.14902690    -0.37051508   -80.76719050     0.00000000     0.00000001  0.11D-13  0.23D-13  6  4     1.65
  11      1.14902689    -0.37051508   -80.76719050    -0.00000000     0.00000001  0.80D-15  0.19D-14  6  5     1.81
  12      1.14902689    -0.37051508   -80.76719050    -0.00000000     0.00000000  0.44D-16  0.23D-15  6  6     1.97
  13      1.14902689    -0.37051508   -80.76719050    -0.00000000     0.00000000  0.35D-17  0.28D-16  6  1     2.13
  14      1.14902689    -0.37051508   -80.76719050     0.00000000     0.00000000  0.60D-18  0.37D-17  6  2     2.29
  15      1.14902689    -0.37051508   -80.76719050     0.00000000     0.00000000  0.72D-19  0.37D-18  6  3     2.45
  16      1.14902689    -0.37051508   -80.76719050    -0.00000000     0.00000000  0.16D-20  0.20D-19  6  5     2.61
  17      1.14902689    -0.37051508   -80.76719050    -0.00000000     0.00000000  0.19D-21  0.56D-21  6  4     2.77
  18      1.14902689    -0.37051508   -80.76719050     0.00000000    -0.00000000  0.45D-22  0.51D-22  6  6     2.93

 Norm of t1 vector:      0.03062835      S-energy:     0.00000000      T1 diagnostic:  0.00541438
                                                                       D1 diagnostic:  0.00877408


 Total CPU time for triples:      1.36 sec


 RESULTS
 =======

  Reference energy                    -80.396675416817
  CCSD singlet pair energy             -0.281841543027
  CCSD triplet pair energy             -0.088673538634
  CCSD correlation energy              -0.370515081661

  Triples (T) contribution             -0.007535679020
  Total correlation energy             -0.378050760681

  CCSD total energy                   -80.767190498478
  CCSD[T] energy                      -80.774902370532
  CCSD-T energy                       -80.774631738677
 !CCSD(T) total energy                -80.774726177498

 Timing summary (sec):

 STEP                 CPU(USER)    SYS     CPU(TOT)    WALL
 Transformation          0.08      0.02      0.10      0.10
 CCSD iterations         2.85      0.17      3.02      3.08
 Triples                 1.36      0.03      1.39      1.38

 Program statistics:

 Available memory in ccsd:               999999644
 Min. memory needed in ccsd:                356281
 Max. memory used in ccsd:                  442401
 Max. memory used in cckext:                403930 (18 integral passes)



 **********************************************************************************************************************************
 DATASETS  * FILE   NREC   LENGTH (MB)   RECORD NAMES
              1      20       30.02       500      610      700      900      950      970     1000      129      960     1100   
                                          VAR    BASINP    GEOM    SYMINP    ZMAT    AOBASIS   BASIS     P2S    ABASIS      S 
                                         1400     1410     1200     1210     1080     1600     1650     1300     1700     1380   
                                           T        V       H0       H01     AOSYM     SMH    MOLCAS    ERIS     OPER     JKOP   

              2       3        0.51       700     1000     2100   
                                         GEOM     BASIS     RHF  

 PROGRAMS   *        TOTAL   CCSD(T)       RHF       INT
 CPU TIMES  *         5.72      4.30      0.42      0.87
 REAL TIME  *         6.67 SEC
 DISK USED  *        77.62 MB      
 GA USED    *         0.00 MB       (max)       0.00 MB       (current)
 **********************************************************************************************************************************

        CCSD(T)         RHF-SCF 
    -80.77472618    -80.39667542
 **********************************************************************************************************************************
 Variable memory released
