
    -----------------------------------------------------------------------
          Psi4: An Open-Source Ab Initio Electronic Structure Package
                               Psi4 1.4a2.dev629 

                         Git: Rev {master} 2938fc2 dirty


    D. G. A. Smith, L. A. Burns, A. C. Simmonett, R. M. Parrish,
    M. C. Schieber, R. Galvelis, P. Kraus, H. Kruse, R. Di Remigio,
    A. Alenaizan, A. M. James, S. Lehtola, J. P. Misiewicz, M. Scheurer,
    R. A. Shaw, J. B. Schriber, Y. Xie, Z. L. Glick, D. A. Sirianni,
    J. S. O'Brien, J. M. Waldrop, A. Kumar, E. G. Hohenstein,
    B. P. Pritchard, B. R. Brooks, H. F. Schaefer III, A. Yu. Sokolov,
    K. Patkowski, A. E. DePrince III, U. Bozkaya, R. A. King,
    F. A. Evangelista, J. M. Turney, T. D. Crawford, C. D. Sherrill,
    J. Chem. Phys. 152(18) 184108 (2020). https://doi.org/10.1063/5.0006002

                            Additional Code Authors
    E. T. Seidl, C. L. Janssen, E. F. Valeev, M. L. Leininger,
    J. F. Gonthier, R. M. Richard, H. R. McAlexander, M. Saitow, X. Wang,
    P. Verma, and M. H. Lechner

             Previous Authors, Complete List of Code Contributors,
                       and Citations for Specific Modules
    https://github.com/psi4/psi4/blob/master/codemeta.json
    https://github.com/psi4/psi4/graphs/contributors
    http://psicode.org/psi4manual/master/introduction.html#citing-psifour

    -----------------------------------------------------------------------


    Psi4 started on: Friday, 03 September 2021 03:46PM

    Process ID: 987
    Host:       n045
    PSIDATADIR: /opt/psi/4/master/share/psi4
    Memory:     500.0 MiB
    Threads:    1
    
  ==> Input File <==

--------------------------------------------------------------------------
import os
memory 14 GB 
 
molecule {
 X   -1.4216451608   -1.4067819592    0.0000000000
 C   -0.0000000000    0.0026132458    0.0000000000
 X    1.4216451608   -1.4067819592   -0.0000000000
 C    0.0028199702   -0.0010163338   -2.4817844838
 H   -1.2421776736   -1.2432995365   -3.5234914743
 H    1.2467343044    1.2355776466   -3.5420879565
 C   -0.0028199702   -0.0010163338    2.4817844838
 H    1.2421776736   -1.2432995365    3.5234914743
 H   -1.2467343044    1.2355776466    3.5420879565
units bohr
}

basis {

assign 6-31g_2dfp_

[ 6-31g_2dfp_ ]
spherical

!----------------------------------------------------------------------
! Basis Set Exchange
! Version v0.8.13
! https://www.basissetexchange.org
!----------------------------------------------------------------------
!   Basis set: 6-31G(2df,p)
! Description: 6-31G(2df,p)
!        Role: orbital
!     Version: 0  (Data from the original Basis Set Exchange)
!----------------------------------------------------------------------


****
H     0
S    3   1.00
     18.7311370              0.03349460
      2.8253937              0.23472695
      0.6401217              0.81375733
S    1   1.00
      0.1612778              1.00000000
P    1   1.00
      1.5000000              1.0000000
P    1   1.00
      0.3750000              1.0000000
****
C     0
S    6   1.00
   3047.5249000              0.0018347
    457.3695100              0.0140373
    103.9486900              0.0688426
     29.2101550              0.2321844
      9.2866630              0.4679413
      3.1639270              0.3623120
SP   3   1.00
      7.8682724             -0.1193324              0.0689991
      1.8812885             -0.1608542              0.3164240
      0.5442493              1.1434564              0.7443083
SP   1   1.00
      0.1687144              1.0000000              1.0000000
D    1   1.00
      1.2520000              1.0000000
D    1   1.00
      0.3130000              1.0000000
F    1   1.00
      0.8000000              1.0000000
****
}


set {
opt_type min                            
reference rhf                          
freeze_core true
e_convergence 10                       
d_convergence 10                      
ensure_bt_convergence true           
dft_spherical_points 590
dft_radial_points 99
}

e = energy('b3lyp')

print_out('Grab this energy {0}'.format(e))
--------------------------------------------------------------------------

  Memory set to  13.039 GiB by Python driver.

Scratch directory: /tmp/

*** tstart() called on n045
*** at Fri Sep  3 15:46:33 2021

   => Loading Basis Set <=

    Name: ANONYMOUS2FF5E8FD
    Role: ORBITAL
    Keyword: BASIS
    atoms 1-2, 5   entry C          line    27 inputblock 6-31g_2dfp_ 
    atoms 3-4, 6-7 entry H          line    15 inputblock 6-31g_2dfp_ 


         ---------------------------------------------------------
                                   SCF
               by Justin Turney, Rob Parrish, Andy Simmonett
                          and Daniel G. A. Smith
                              RKS Reference
                        1 Threads,  13351 MiB Core
         ---------------------------------------------------------

  ==> Geometry <==

    Molecular point group: c2
    Full point group: C2

    Geometry (in Bohr), charge = 0, multiplicity = 1:

       Center              X                  Y                   Z               Mass       
    ------------   -----------------  -----------------  -----------------  -----------------
         C           -0.000000000000     0.000000000000     0.002828019975    12.000000000000
         C           -0.002819970200    -2.481784483800    -0.000801559625    12.000000000000
         H            1.242177673600    -3.523491474300    -1.243084762325     1.007825032230
         H           -1.246734304400    -3.542087956500     1.235792420775     1.007825032230
         C            0.002819970200     2.481784483800    -0.000801559625    12.000000000000
         H           -1.242177673600     3.523491474300    -1.243084762325     1.007825032230
         H            1.246734304400     3.542087956500     1.235792420775     1.007825032230

  Running in c2 symmetry.

  Rotational constants: A =      4.84071  B =      0.29462  C =      0.29455 [cm^-1]
  Rotational constants: A = 145120.79737  B =   8832.53007  C =   8830.37056 [MHz]
  Nuclear repulsion =   59.006491256796387

  Charge       = 0
  Multiplicity = 1
  Electrons    = 22
  Nalpha       = 11
  Nbeta        = 11

  ==> Algorithm <==

  SCF Algorithm Type is DF.
  DIIS enabled.
  MOM disabled.
  Fractional occupation disabled.
  Guess Type is SAD.
  Energy threshold   = 1.00e-10
  Density threshold  = 1.00e-10
  Integral threshold = 0.00e+00

  ==> Primary Basis <==

  Basis Set: ANONYMOUS2FF5E8FD
    Blend: 6-31G_2DFP_
    Number of shells: 40
    Number of basis function: 110
    Number of Cartesian functions: 125
    Spherical Harmonics?: true
    Max angular momentum: 3

  ==> DFT Potential <==

   => Composite Functional: B3LYP <= 

    B3LYP Hyb-GGA Exchange-Correlation Functional

    P. J. Stephens, F. J. Devlin, C. F. Chabalowski, and M. J. Frisch, J. Phys. Chem. 98, 11623 (1994)

    Deriv               =              1
    GGA                 =           TRUE
    Meta                =          FALSE

    Exchange Hybrid     =           TRUE
    MP2 Hybrid          =          FALSE

   => Exchange Functionals <=

    0.0800   Slater exchange
    0.7200         Becke 88

   => Exact (HF) Exchange <=

    0.2000               HF 

   => Correlation Functionals <=

    0.1900   Vosko, Wilk & Nusair (VWN5_RPA)
    0.8100   Lee, Yang & Parr

   => Molecular Quadrature <=

    Radial Scheme          =       TREUTLER
    Pruning Scheme         =           NONE
    Nuclear Scheme         =       TREUTLER

    BS radius alpha        =              1
    Pruning alpha          =              1
    Radial Points          =             99
    Spherical Points       =            590
    Total Points           =         387200
    Total Blocks           =           2778
    Max Points             =            256
    Max Functions          =            110
    Weights Tolerance      =       1.00E-15

   => Loading Basis Set <=

    Name: (ANONYMOUS2FF5E8FD AUX)
    Role: JKFIT
    Keyword: DF_BASIS_SCF
    atoms 1-2, 5   entry C          line   198 file /opt/psi/4/master/share/psi4/basis/def2-universal-jkfit.gbs 
    atoms 3-4, 6-7 entry H          line    18 file /opt/psi/4/master/share/psi4/basis/def2-universal-jkfit.gbs 

  ==> Integral Setup <==

  DFHelper Memory: AOs need 0.030 GiB; user supplied 8.715 GiB. Using in-core AOs.

  ==> MemDFJK: Density-Fitted J/K Matrices <==

    J tasked:                   Yes
    K tasked:                   Yes
    wK tasked:                   No
    OpenMP threads:               1
    Memory [MiB]:              8924
    Algorithm:                 Core
    Schwarz Cutoff:           1E-12
    Mask sparsity (%):       0.8099
    Fitting Condition:        1E-10

   => Auxiliary Basis Set <=

  Basis Set: (ANONYMOUS2FF5E8FD AUX)
    Blend: DEF2-UNIVERSAL-JKFIT
    Number of shells: 99
    Number of basis function: 297
    Number of Cartesian functions: 347
    Spherical Harmonics?: true
    Max angular momentum: 4

  Cached 100.0% of DFT collocation blocks in 1.064 [GiB].

  Minimum eigenvalue in the overlap matrix is 6.2159049777E-04.
  Reciprocal condition number of the overlap matrix is 1.2800809996E-04.
    Using symmetric orthogonalization.

  ==> Pre-Iterations <==

  SCF Guess: Superposition of Atomic Densities via on-the-fly atomic UHF (no occupation information).

   -------------------------
    Irrep   Nso     Nmo    
   -------------------------
     A         56      56 
     B         54      54 
   -------------------------
    Total     110     110
   -------------------------

  ==> Iterations <==

                           Total Energy        Delta E     RMS |[F,P]|

   @DF-RKS iter SAD:  -116.06768234341141   -1.16068e+02   0.00000e+00 
   @DF-RKS iter   1:  -116.45325935310878   -3.85577e-01   7.90277e-03 DIIS
   @DF-RKS iter   2:  -116.47267726544467   -1.94179e-02   7.45176e-03 DIIS
   @DF-RKS iter   3:  -116.66667871595450   -1.94001e-01   3.50817e-04 DIIS
   @DF-RKS iter   4:  -116.66645094904797    2.27767e-04   4.60037e-04 DIIS
   @DF-RKS iter   5:  -116.66711139896736   -6.60450e-04   1.48173e-05 DIIS
   @DF-RKS iter   6:  -116.66711205203882   -6.53071e-07   2.80313e-06 DIIS
   @DF-RKS iter   7:  -116.66711207759386   -2.55550e-08   3.64578e-07 DIIS
   @DF-RKS iter   8:  -116.66711207795677   -3.62917e-10   3.84038e-08 DIIS
   @DF-RKS iter   9:  -116.66711207796087   -4.09273e-12   1.03119e-08 DIIS
   @DF-RKS iter  10:  -116.66711207796105   -1.84741e-13   1.87829e-09 DIIS
   @DF-RKS iter  11:  -116.66711207796105    0.00000e+00   2.37962e-10 DIIS
   @DF-RKS iter  12:  -116.66711207796099    5.68434e-14   3.09211e-11 DIIS
  Energy and wave function converged.


  ==> Post-Iterations <==

    Orbital Energies [Eh]
    ---------------------

    Doubly Occupied:                                                      

       1A    -10.201511     2A    -10.184656     1B    -10.184626  
       3A     -0.784872     2B     -0.699880     4A     -0.519286  
       3B     -0.446530     4B     -0.441024     5A     -0.440883  
       6A     -0.263702     5B     -0.263259  

    Virtual:                                                              

       6B      0.017325     7A      0.017887     8A      0.111323  
       7B      0.127022     9A      0.194759     8B      0.194852  
      10A      0.279515     9B      0.295277    11A      0.382088  
      12A      0.454123    10B      0.479973    13A      0.480063  
      11B      0.481166    14A      0.491639    15A      0.560177  
      12B      0.560613    13B      0.563316    14B      0.594233  
      16A      0.594578    15B      0.616630    17A      0.677696  
      16B      0.693139    18A      0.717017    17B      0.717134  
      19A      0.776842    20A      0.849914    18B      0.911922  
      21A      0.912215    22A      0.997179    19B      0.997296  
      20B      1.005554    21B      1.055604    23A      1.068869  
      22B      1.102558    23B      1.156183    24A      1.156267  
      24B      1.201419    25A      1.295016    25B      1.295832  
      26A      1.369810    27A      1.439010    26B      1.579345  
      28A      1.579824    27B      1.594017    28B      1.621127  
      29A      1.654239    30A      1.859015    29B      2.147246  
      31A      2.148723    30B      2.158980    32A      2.572417  
      31B      2.692305    32B      2.738068    33A      2.738556  
      34A      2.785207    33B      2.852196    35A      2.852784  
      34B      2.870369    36A      2.870709    37A      2.966381  
      38A      3.002161    35B      3.002977    36B      3.072257  
      39A      3.102451    37B      3.103002    38B      3.109336  
      40A      3.111163    41A      3.135523    39B      3.289811  
      42A      3.289981    43A      3.311934    40B      3.312512  
      41B      3.384903    42B      3.429975    44A      3.430881  
      45A      3.564815    43B      3.609010    44B      3.808962  
      46A      3.940121    47A      3.994378    45B      3.995035  
      46B      4.013029    48A      4.101569    47B      4.102192  
      48B      4.176380    49A      4.229245    50A      4.318518  
      51A      4.369808    49B      4.381714    50B      4.422045  
      51B      4.441332    52A      4.442251    52B      4.927521  
      53A      4.928918    54A      5.202456    53B      5.221310  
      55A      5.222162    54B      5.247780    56A      6.013496  

    Final Occupation by Irrep:
              A     B 
    DOCC [     6,    5 ]

  @DF-RKS Final Energy:  -116.66711207796099

   => Energetics <=

    Nuclear Repulsion Energy =             59.0064912567963873
    One-Electron Energy =                -272.1736881815671723
    Two-Electron Energy =                 110.8315530937284592
    DFT Exchange-Correlation Energy =     -14.3314682469186572
    Empirical Dispersion Energy =           0.0000000000000000
    VV10 Nonlocal Energy =                  0.0000000000000000
    Total Energy =                       -116.6671120779609936

Computation Completed


Properties will be evaluated at   0.000000,   0.000000,   0.000000 [a0]

Properties computed using the SCF density matrix

  Nuclear Dipole Moment: [e a0]
     X:     0.0000      Y:    -0.0000      Z:    -0.0072

  Electronic Dipole Moment: [e a0]
     X:     0.0000      Y:     0.0000      Z:     0.0062

  Dipole Moment: [e a0]
     X:     0.0000      Y:    -0.0000      Z:    -0.0010     Total:     0.0010

  Dipole Moment: [D]
     X:     0.0000      Y:    -0.0000      Z:    -0.0027     Total:     0.0027


*** tstop() called on n045 at Fri Sep  3 15:46:54 2021
Module time:
	user time   =      20.83 seconds =       0.35 minutes
	system time =       0.23 seconds =       0.00 minutes
	total time  =         21 seconds =       0.35 minutes
Total time:
	user time   =      20.83 seconds =       0.35 minutes
	system time =       0.23 seconds =       0.00 minutes
	total time  =         21 seconds =       0.35 minutes
Grab this energy -116.667112077961
    Psi4 stopped on: Friday, 03 September 2021 03:46PM
    Psi4 wall time for execution: 0:00:21.10

*** Psi4 exiting successfully. Buy a developer a beer!
