
    -----------------------------------------------------------------------
          Psi4: An Open-Source Ab Initio Electronic Structure Package
                               Psi4 1.4a2.dev629 

                         Git: Rev {master} 2938fc2 dirty


    D. G. A. Smith, L. A. Burns, A. C. Simmonett, R. M. Parrish,
    M. C. Schieber, R. Galvelis, P. Kraus, H. Kruse, R. Di Remigio,
    A. Alenaizan, A. M. James, S. Lehtola, J. P. Misiewicz, M. Scheurer,
    R. A. Shaw, J. B. Schriber, Y. Xie, Z. L. Glick, D. A. Sirianni,
    J. S. O'Brien, J. M. Waldrop, A. Kumar, E. G. Hohenstein,
    B. P. Pritchard, B. R. Brooks, H. F. Schaefer III, A. Yu. Sokolov,
    K. Patkowski, A. E. DePrince III, U. Bozkaya, R. A. King,
    F. A. Evangelista, J. M. Turney, T. D. Crawford, C. D. Sherrill,
    J. Chem. Phys. 152(18) 184108 (2020). https://doi.org/10.1063/5.0006002

                            Additional Code Authors
    E. T. Seidl, C. L. Janssen, E. F. Valeev, M. L. Leininger,
    J. F. Gonthier, R. M. Richard, H. R. McAlexander, M. Saitow, X. Wang,
    P. Verma, and M. H. Lechner

             Previous Authors, Complete List of Code Contributors,
                       and Citations for Specific Modules
    https://github.com/psi4/psi4/blob/master/codemeta.json
    https://github.com/psi4/psi4/graphs/contributors
    http://psicode.org/psi4manual/master/introduction.html#citing-psifour

    -----------------------------------------------------------------------


    Psi4 started on: Friday, 03 September 2021 03:45PM

    Process ID: 1152
    Host:       n058
    PSIDATADIR: /opt/psi/4/master/share/psi4
    Memory:     500.0 MiB
    Threads:    1
    
  ==> Input File <==

--------------------------------------------------------------------------
import os
memory 14 GB 
 
molecule {
 X   -1.4106330067   -1.4177941133    0.0000000000
 C    0.0093235178   -0.0000176831    0.0060729690
 X    1.4178543704   -1.4105727496   -0.0000000000
 C    0.0007676669    0.0028422721   -2.4800222577
 H   -1.2492588610   -1.2387277761   -3.5268921223
 H    1.2402213970    1.2425267050   -3.5434305543
 C    0.0007457901   -0.0028567710    2.4835223788
 H    1.2346476855   -1.2451816213    3.5386457458
 H   -1.2436685600    1.2413546172    3.5221038405
units bohr
}

basis {

assign 6-31g_2dfp_

[ 6-31g_2dfp_ ]
spherical

!----------------------------------------------------------------------
! Basis Set Exchange
! Version v0.8.13
! https://www.basissetexchange.org
!----------------------------------------------------------------------
!   Basis set: 6-31G(2df,p)
! Description: 6-31G(2df,p)
!        Role: orbital
!     Version: 0  (Data from the original Basis Set Exchange)
!----------------------------------------------------------------------


****
H     0
S    3   1.00
     18.7311370              0.03349460
      2.8253937              0.23472695
      0.6401217              0.81375733
S    1   1.00
      0.1612778              1.00000000
P    1   1.00
      1.5000000              1.0000000
P    1   1.00
      0.3750000              1.0000000
****
C     0
S    6   1.00
   3047.5249000              0.0018347
    457.3695100              0.0140373
    103.9486900              0.0688426
     29.2101550              0.2321844
      9.2866630              0.4679413
      3.1639270              0.3623120
SP   3   1.00
      7.8682724             -0.1193324              0.0689991
      1.8812885             -0.1608542              0.3164240
      0.5442493              1.1434564              0.7443083
SP   1   1.00
      0.1687144              1.0000000              1.0000000
D    1   1.00
      1.2520000              1.0000000
D    1   1.00
      0.3130000              1.0000000
F    1   1.00
      0.8000000              1.0000000
****
}


set {
opt_type min                            
reference rhf                          
freeze_core true
e_convergence 10                       
d_convergence 10                      
ensure_bt_convergence true           
dft_spherical_points 590
dft_radial_points 99
}

e = energy('b3lyp')

print_out('Grab this energy {0}'.format(e))
--------------------------------------------------------------------------

  Memory set to  13.039 GiB by Python driver.

Scratch directory: /tmp/

*** tstart() called on n058
*** at Fri Sep  3 15:45:32 2021

   => Loading Basis Set <=

    Name: ANONYMOUSAC4FB34C
    Role: ORBITAL
    Keyword: BASIS
    atoms 1-2, 5   entry C          line    27 inputblock 6-31g_2dfp_ 
    atoms 3-4, 6-7 entry H          line    15 inputblock 6-31g_2dfp_ 


         ---------------------------------------------------------
                                   SCF
               by Justin Turney, Rob Parrish, Andy Simmonett
                          and Daniel G. A. Smith
                              RKS Reference
                        1 Threads,  13351 MiB Core
         ---------------------------------------------------------

  ==> Geometry <==

    Molecular point group: c1
    Full point group: C1

    Geometry (in Bohr), charge = 0, multiplicity = 1:

       Center              X                  Y                   Z               Mass       
    ------------   -----------------  -----------------  -----------------  -----------------
         C            0.006529602747    -0.000007329230     0.003444298914    12.000000000000
         C           -0.002026248153     0.002852625970    -2.482650927786    12.000000000000
         H           -1.252052776053    -1.238717422230    -3.529520792386     1.007825032230
         H            1.237427481947     1.242537058870    -3.546059224386     1.007825032230
         C           -0.002048124953    -0.002846417130     2.480893708714    12.000000000000
         H            1.231853770447    -1.245171267430     3.536017075714     1.007825032230
         H           -1.246462475053     1.241364971070     3.519475170414     1.007825032230

  Running in c1 symmetry.

  Rotational constants: A =      4.84044  B =      0.29460  C =      0.29458 [cm^-1]
  Rotational constants: A = 145112.72813  B =   8831.83613  C =   8831.19846 [MHz]
  Nuclear repulsion =   59.006649062838278

  Charge       = 0
  Multiplicity = 1
  Electrons    = 22
  Nalpha       = 11
  Nbeta        = 11

  ==> Algorithm <==

  SCF Algorithm Type is DF.
  DIIS enabled.
  MOM disabled.
  Fractional occupation disabled.
  Guess Type is SAD.
  Energy threshold   = 1.00e-10
  Density threshold  = 1.00e-10
  Integral threshold = 0.00e+00

  ==> Primary Basis <==

  Basis Set: ANONYMOUSAC4FB34C
    Blend: 6-31G_2DFP_
    Number of shells: 40
    Number of basis function: 110
    Number of Cartesian functions: 125
    Spherical Harmonics?: true
    Max angular momentum: 3

  ==> DFT Potential <==

   => Composite Functional: B3LYP <= 

    B3LYP Hyb-GGA Exchange-Correlation Functional

    P. J. Stephens, F. J. Devlin, C. F. Chabalowski, and M. J. Frisch, J. Phys. Chem. 98, 11623 (1994)

    Deriv               =              1
    GGA                 =           TRUE
    Meta                =          FALSE

    Exchange Hybrid     =           TRUE
    MP2 Hybrid          =          FALSE

   => Exchange Functionals <=

    0.0800   Slater exchange
    0.7200         Becke 88

   => Exact (HF) Exchange <=

    0.2000               HF 

   => Correlation Functionals <=

    0.1900   Vosko, Wilk & Nusair (VWN5_RPA)
    0.8100   Lee, Yang & Parr

   => Molecular Quadrature <=

    Radial Scheme          =       TREUTLER
    Pruning Scheme         =           NONE
    Nuclear Scheme         =       TREUTLER

    BS radius alpha        =              1
    Pruning alpha          =              1
    Radial Points          =             99
    Spherical Points       =            590
    Total Points           =         386921
    Total Blocks           =           2872
    Max Points             =            256
    Max Functions          =            110
    Weights Tolerance      =       1.00E-15

   => Loading Basis Set <=

    Name: (ANONYMOUSAC4FB34C AUX)
    Role: JKFIT
    Keyword: DF_BASIS_SCF
    atoms 1-2, 5   entry C          line   198 file /opt/psi/4/master/share/psi4/basis/def2-universal-jkfit.gbs 
    atoms 3-4, 6-7 entry H          line    18 file /opt/psi/4/master/share/psi4/basis/def2-universal-jkfit.gbs 

  ==> Integral Setup <==

  DFHelper Memory: AOs need 0.030 GiB; user supplied 8.714 GiB. Using in-core AOs.

  ==> MemDFJK: Density-Fitted J/K Matrices <==

    J tasked:                   Yes
    K tasked:                   Yes
    wK tasked:                   No
    OpenMP threads:               1
    Memory [MiB]:              8923
    Algorithm:                 Core
    Schwarz Cutoff:           1E-12
    Mask sparsity (%):       0.8099
    Fitting Condition:        1E-10

   => Auxiliary Basis Set <=

  Basis Set: (ANONYMOUSAC4FB34C AUX)
    Blend: DEF2-UNIVERSAL-JKFIT
    Number of shells: 99
    Number of basis function: 297
    Number of Cartesian functions: 347
    Spherical Harmonics?: true
    Max angular momentum: 4

  Cached 100.0% of DFT collocation blocks in 1.065 [GiB].

  Minimum eigenvalue in the overlap matrix is 5.5045103785E-04.
  Reciprocal condition number of the overlap matrix is 1.1301211846E-04.
    Using symmetric orthogonalization.

  ==> Pre-Iterations <==

  SCF Guess: Superposition of Atomic Densities via on-the-fly atomic UHF (no occupation information).

   -------------------------
    Irrep   Nso     Nmo    
   -------------------------
     A        110     110 
   -------------------------
    Total     110     110
   -------------------------

  ==> Iterations <==

                           Total Energy        Delta E     RMS |[F,P]|

   @DF-RKS iter SAD:  -116.06768547580906   -1.16068e+02   0.00000e+00 
   @DF-RKS iter   1:  -116.45323848819574   -3.85553e-01   5.58915e-03 DIIS
   @DF-RKS iter   2:  -116.47264683792675   -1.94083e-02   5.27029e-03 DIIS
   @DF-RKS iter   3:  -116.66666159011841   -1.94015e-01   2.48963e-04 DIIS
   @DF-RKS iter   4:  -116.66643281462345    2.28775e-04   3.26228e-04 DIIS
   @DF-RKS iter   5:  -116.66709735673437   -6.64542e-04   1.05163e-05 DIIS
   @DF-RKS iter   6:  -116.66709800178552   -6.45051e-07   2.49845e-06 DIIS
   @DF-RKS iter   7:  -116.66709801223791   -1.04524e-08   2.09678e-06 DIIS
   @DF-RKS iter   8:  -116.66709804242463   -3.01867e-08   2.18570e-07 DIIS
   @DF-RKS iter   9:  -116.66709804272598   -3.01355e-10   2.13399e-08 DIIS
   @DF-RKS iter  10:  -116.66709804272865   -2.67164e-12   6.44289e-09 DIIS
   @DF-RKS iter  11:  -116.66709804272905   -3.97904e-13   1.00491e-09 DIIS
   @DF-RKS iter  12:  -116.66709804272905    0.00000e+00   2.54526e-10 DIIS
   @DF-RKS iter  13:  -116.66709804272885    1.98952e-13   2.65769e-11 DIIS
  Energy and wave function converged.


  ==> Post-Iterations <==

    Orbital Energies [Eh]
    ---------------------

    Doubly Occupied:                                                      

       1A    -10.201509     2A    -10.185103     3A    -10.184179  
       4A     -0.784882     5A     -0.699868     6A     -0.519287  
       7A     -0.446529     8A     -0.441799     9A     -0.440110  
      10A     -0.264017    11A     -0.262945  

    Virtual:                                                              

      12A      0.017338    13A      0.017873    14A      0.111318  
      15A      0.127026    16A      0.194758    17A      0.194850  
      18A      0.279513    19A      0.295279    20A      0.382090  
      21A      0.454117    22A      0.479855    23A      0.480192  
      24A      0.481174    25A      0.491636    26A      0.559589  
      27A      0.561208    28A      0.563323    29A      0.594286  
      30A      0.594514    31A      0.616623    32A      0.677697  
      33A      0.693144    34A      0.716598    35A      0.717566  
      36A      0.776839    37A      0.849919    38A      0.911540  
      39A      0.912606    40A      0.997073    41A      0.997388  
      42A      1.005546    43A      1.055552    44A      1.068944  
      45A      1.102547    46A      1.155780    47A      1.156640  
      48A      1.201447    49A      1.294739    50A      1.296098  
      51A      1.369832    52A      1.439020    53A      1.578790  
      54A      1.580507    55A      1.594013    56A      1.620980  
      57A      1.654302    58A      1.859008    59A      2.147842  
      60A      2.148058    61A      2.159029    62A      2.572431  
      63A      2.692323    64A      2.738031    65A      2.738576  
      66A      2.785178    67A      2.852205    68A      2.852289  
      69A      2.870539    70A      2.871101    71A      2.966381  
      72A      3.002073    73A      3.003123    74A      3.072206  
      75A      3.102474    76A      3.103075    77A      3.109122  
      78A      3.111182    79A      3.135603    80A      3.287793  
      81A      3.292531    82A      3.310671    83A      3.313254  
      84A      3.384880    85A      3.429591    86A      3.431325  
      87A      3.564813    88A      3.609001    89A      3.809008  
      90A      3.940140    91A      3.994321    92A      3.995600  
      93A      4.012600    94A      4.099538    95A      4.104223  
      96A      4.176218    97A      4.229222    98A      4.318386  
      99A      4.369599   100A      4.382114   101A      4.422093  
     102A      4.439907   103A      4.443687   104A      4.923963  
     105A      4.932517   106A      5.202779   107A      5.216280  
     108A      5.226950   109A      5.247716   110A      6.013369  

    Final Occupation by Irrep:
              A 
    DOCC [    11 ]

  @DF-RKS Final Energy:  -116.66709804272885

   => Energetics <=

    Nuclear Repulsion Energy =             59.0066490628382780
    One-Electron Energy =                -272.1739712769893913
    Two-Electron Energy =                 110.8316989999791957
    DFT Exchange-Correlation Energy =     -14.3314748285569387
    Empirical Dispersion Energy =           0.0000000000000000
    VV10 Nonlocal Energy =                  0.0000000000000000
    Total Energy =                       -116.6670980427288526

Computation Completed


Properties will be evaluated at   0.000000,   0.000000,   0.000000 [a0]

Properties computed using the SCF density matrix

  Nuclear Dipole Moment: [e a0]
     X:    -0.0145      Y:     0.0000      Z:    -0.0100

  Electronic Dipole Moment: [e a0]
     X:     0.0125      Y:    -0.0000      Z:     0.0129

  Dipole Moment: [e a0]
     X:    -0.0020      Y:    -0.0000      Z:     0.0029     Total:     0.0035

  Dipole Moment: [D]
     X:    -0.0051      Y:    -0.0000      Z:     0.0074     Total:     0.0090


*** tstop() called on n058 at Fri Sep  3 15:45:51 2021
Module time:
	user time   =      19.25 seconds =       0.32 minutes
	system time =       0.31 seconds =       0.01 minutes
	total time  =         19 seconds =       0.32 minutes
Total time:
	user time   =      19.25 seconds =       0.32 minutes
	system time =       0.31 seconds =       0.01 minutes
	total time  =         19 seconds =       0.32 minutes
Grab this energy -116.66709804272885
    Psi4 stopped on: Friday, 03 September 2021 03:45PM
    Psi4 wall time for execution: 0:00:19.58

*** Psi4 exiting successfully. Buy a developer a beer!
