
    -----------------------------------------------------------------------
          Psi4: An Open-Source Ab Initio Electronic Structure Package
                               Psi4 1.4a2.dev629 

                         Git: Rev {master} 2938fc2 dirty


    D. G. A. Smith, L. A. Burns, A. C. Simmonett, R. M. Parrish,
    M. C. Schieber, R. Galvelis, P. Kraus, H. Kruse, R. Di Remigio,
    A. Alenaizan, A. M. James, S. Lehtola, J. P. Misiewicz, M. Scheurer,
    R. A. Shaw, J. B. Schriber, Y. Xie, Z. L. Glick, D. A. Sirianni,
    J. S. O'Brien, J. M. Waldrop, A. Kumar, E. G. Hohenstein,
    B. P. Pritchard, B. R. Brooks, H. F. Schaefer III, A. Yu. Sokolov,
    K. Patkowski, A. E. DePrince III, U. Bozkaya, R. A. King,
    F. A. Evangelista, J. M. Turney, T. D. Crawford, C. D. Sherrill,
    J. Chem. Phys. 152(18) 184108 (2020). https://doi.org/10.1063/5.0006002

                            Additional Code Authors
    E. T. Seidl, C. L. Janssen, E. F. Valeev, M. L. Leininger,
    J. F. Gonthier, R. M. Richard, H. R. McAlexander, M. Saitow, X. Wang,
    P. Verma, and M. H. Lechner

             Previous Authors, Complete List of Code Contributors,
                       and Citations for Specific Modules
    https://github.com/psi4/psi4/blob/master/codemeta.json
    https://github.com/psi4/psi4/graphs/contributors
    http://psicode.org/psi4manual/master/introduction.html#citing-psifour

    -----------------------------------------------------------------------


    Psi4 started on: Friday, 03 September 2021 03:38PM

    Process ID: 5155
    Host:       n056
    PSIDATADIR: /opt/psi/4/master/share/psi4
    Memory:     500.0 MiB
    Threads:    1
    
  ==> Input File <==

--------------------------------------------------------------------------
import os
memory 14 GB 
 
molecule {
 X   -1.4126012660   -1.4158258540    0.0000000000
 C   -0.0053470291   -0.0000140019   -0.0027798855
 X    1.4158336657   -1.4125934543    0.0000000000
 C   -0.0013787503   -0.0002695265   -2.4790162725
 H   -1.2417709370   -1.2406903814   -3.5324762513
 H    1.2442004392    1.2415949588   -3.5344874971
 C   -0.0013689212    0.0002696709    2.4845548173
 H    1.2421622095   -1.2432327548    3.5331226764
 H   -1.2397294108    1.2423342233    3.5310824126
units bohr
}

basis {

assign 6-31g_2dfp_

[ 6-31g_2dfp_ ]
spherical

!----------------------------------------------------------------------
! Basis Set Exchange
! Version v0.8.13
! https://www.basissetexchange.org
!----------------------------------------------------------------------
!   Basis set: 6-31G(2df,p)
! Description: 6-31G(2df,p)
!        Role: orbital
!     Version: 0  (Data from the original Basis Set Exchange)
!----------------------------------------------------------------------


****
H     0
S    3   1.00
     18.7311370              0.03349460
      2.8253937              0.23472695
      0.6401217              0.81375733
S    1   1.00
      0.1612778              1.00000000
P    1   1.00
      1.5000000              1.0000000
P    1   1.00
      0.3750000              1.0000000
****
C     0
S    6   1.00
   3047.5249000              0.0018347
    457.3695100              0.0140373
    103.9486900              0.0688426
     29.2101550              0.2321844
      9.2866630              0.4679413
      3.1639270              0.3623120
SP   3   1.00
      7.8682724             -0.1193324              0.0689991
      1.8812885             -0.1608542              0.3164240
      0.5442493              1.1434564              0.7443083
SP   1   1.00
      0.1687144              1.0000000              1.0000000
D    1   1.00
      1.2520000              1.0000000
D    1   1.00
      0.3130000              1.0000000
F    1   1.00
      0.8000000              1.0000000
****
}


set {
opt_type min                            
reference rhf                          
freeze_core true
e_convergence 10                       
d_convergence 10                      
ensure_bt_convergence true           
dft_spherical_points 590
dft_radial_points 99
}

e = energy('b3lyp')

print_out('Grab this energy {0}'.format(e))
--------------------------------------------------------------------------

  Memory set to  13.039 GiB by Python driver.

Scratch directory: /tmp/

*** tstart() called on n056
*** at Fri Sep  3 15:38:36 2021

   => Loading Basis Set <=

    Name: ANONYMOUS7DF29B32
    Role: ORBITAL
    Keyword: BASIS
    atoms 1-2, 5   entry C          line    27 inputblock 6-31g_2dfp_ 
    atoms 3-4, 6-7 entry H          line    15 inputblock 6-31g_2dfp_ 


         ---------------------------------------------------------
                                   SCF
               by Justin Turney, Rob Parrish, Andy Simmonett
                          and Daniel G. A. Smith
                              RKS Reference
                        1 Threads,  13351 MiB Core
         ---------------------------------------------------------

  ==> Geometry <==

    Molecular point group: c1
    Full point group: C1

    Geometry (in Bohr), charge = 0, multiplicity = 1:

       Center              X                  Y                   Z               Mass       
    ------------   -----------------  -----------------  -----------------  -----------------
         C           -0.003042930599    -0.000010000112    -0.003537384395    12.000000000000
         C            0.000925348201    -0.000265524712    -2.479773771395    12.000000000000
         H           -1.239466838499    -1.240686379612    -3.533233750195     1.007825032230
         H            1.246504537701     1.241598960588    -3.535244995995     1.007825032230
         C            0.000935177301     0.000273672688     2.483797318405    12.000000000000
         H            1.244466308001    -1.243228753012     3.532365177505     1.007825032230
         H           -1.237425312299     1.242338225088     3.530324913705     1.007825032230

  Running in c1 symmetry.

  Rotational constants: A =      4.84054  B =      0.29459  C =      0.29458 [cm^-1]
  Rotational constants: A = 145115.84154  B =   8831.49348  C =   8831.40662 [MHz]
  Nuclear repulsion =   59.006609149399431

  Charge       = 0
  Multiplicity = 1
  Electrons    = 22
  Nalpha       = 11
  Nbeta        = 11

  ==> Algorithm <==

  SCF Algorithm Type is DF.
  DIIS enabled.
  MOM disabled.
  Fractional occupation disabled.
  Guess Type is SAD.
  Energy threshold   = 1.00e-10
  Density threshold  = 1.00e-10
  Integral threshold = 0.00e+00

  ==> Primary Basis <==

  Basis Set: ANONYMOUS7DF29B32
    Blend: 6-31G_2DFP_
    Number of shells: 40
    Number of basis function: 110
    Number of Cartesian functions: 125
    Spherical Harmonics?: true
    Max angular momentum: 3

  ==> DFT Potential <==

   => Composite Functional: B3LYP <= 

    B3LYP Hyb-GGA Exchange-Correlation Functional

    P. J. Stephens, F. J. Devlin, C. F. Chabalowski, and M. J. Frisch, J. Phys. Chem. 98, 11623 (1994)

    Deriv               =              1
    GGA                 =           TRUE
    Meta                =          FALSE

    Exchange Hybrid     =           TRUE
    MP2 Hybrid          =          FALSE

   => Exchange Functionals <=

    0.0800   Slater exchange
    0.7200         Becke 88

   => Exact (HF) Exchange <=

    0.2000               HF 

   => Correlation Functionals <=

    0.1900   Vosko, Wilk & Nusair (VWN5_RPA)
    0.8100   Lee, Yang & Parr

   => Molecular Quadrature <=

    Radial Scheme          =       TREUTLER
    Pruning Scheme         =           NONE
    Nuclear Scheme         =       TREUTLER

    BS radius alpha        =              1
    Pruning alpha          =              1
    Radial Points          =             99
    Spherical Points       =            590
    Total Points           =         386974
    Total Blocks           =           2891
    Max Points             =            256
    Max Functions          =            110
    Weights Tolerance      =       1.00E-15

   => Loading Basis Set <=

    Name: (ANONYMOUS7DF29B32 AUX)
    Role: JKFIT
    Keyword: DF_BASIS_SCF
    atoms 1-2, 5   entry C          line   198 file /opt/psi/4/master/share/psi4/basis/def2-universal-jkfit.gbs 
    atoms 3-4, 6-7 entry H          line    18 file /opt/psi/4/master/share/psi4/basis/def2-universal-jkfit.gbs 

  ==> Integral Setup <==

  DFHelper Memory: AOs need 0.030 GiB; user supplied 8.714 GiB. Using in-core AOs.

  ==> MemDFJK: Density-Fitted J/K Matrices <==

    J tasked:                   Yes
    K tasked:                   Yes
    wK tasked:                   No
    OpenMP threads:               1
    Memory [MiB]:              8922
    Algorithm:                 Core
    Schwarz Cutoff:           1E-12
    Mask sparsity (%):       0.8099
    Fitting Condition:        1E-10

   => Auxiliary Basis Set <=

  Basis Set: (ANONYMOUS7DF29B32 AUX)
    Blend: DEF2-UNIVERSAL-JKFIT
    Number of shells: 99
    Number of basis function: 297
    Number of Cartesian functions: 347
    Spherical Harmonics?: true
    Max angular momentum: 4

  Cached 100.0% of DFT collocation blocks in 1.065 [GiB].

  Minimum eigenvalue in the overlap matrix is 5.5027118618E-04.
  Reciprocal condition number of the overlap matrix is 1.1297941857E-04.
    Using symmetric orthogonalization.

  ==> Pre-Iterations <==

  SCF Guess: Superposition of Atomic Densities via on-the-fly atomic UHF (no occupation information).

   -------------------------
    Irrep   Nso     Nmo    
   -------------------------
     A        110     110 
   -------------------------
    Total     110     110
   -------------------------

  ==> Iterations <==

                           Total Energy        Delta E     RMS |[F,P]|

   @DF-RKS iter SAD:  -116.06767883701809   -1.16068e+02   0.00000e+00 
   @DF-RKS iter   1:  -116.45323185648890   -3.85553e-01   5.58920e-03 DIIS
   @DF-RKS iter   2:  -116.47264655557284   -1.94147e-02   5.27026e-03 DIIS
   @DF-RKS iter   3:  -116.66666251569092   -1.94016e-01   2.48183e-04 DIIS
   @DF-RKS iter   4:  -116.66643469839607    2.27817e-04   3.25423e-04 DIIS
   @DF-RKS iter   5:  -116.66709544414473   -6.60746e-04   1.05258e-05 DIIS
   @DF-RKS iter   6:  -116.66709608675247   -6.42608e-07   2.53890e-06 DIIS
   @DF-RKS iter   7:  -116.66709609544326   -8.69079e-09   2.23368e-06 DIIS
   @DF-RKS iter   8:  -116.66709612992481   -3.44816e-08   1.94813e-07 DIIS
   @DF-RKS iter   9:  -116.66709613015058   -2.25768e-10   1.70188e-08 DIIS
   @DF-RKS iter  10:  -116.66709613015240   -1.81899e-12   2.40604e-09 DIIS
   @DF-RKS iter  11:  -116.66709613015247   -7.10543e-14   6.97696e-10 DIIS
   @DF-RKS iter  12:  -116.66709613015226    2.13163e-13   1.11599e-10 DIIS
   @DF-RKS iter  13:  -116.66709613015234   -8.52651e-14   1.80554e-11 DIIS
  Energy and wave function converged.


  ==> Post-Iterations <==

    Orbital Energies [Eh]
    ---------------------

    Doubly Occupied:                                                      

       1A    -10.201507     2A    -10.184760     3A    -10.184521  
       4A     -0.784877     5A     -0.699875     6A     -0.519288  
       7A     -0.446528     8A     -0.441071     9A     -0.440836  
      10A     -0.264160    11A     -0.262804  

    Virtual:                                                              

      12A      0.016896    13A      0.018315    14A      0.111323  
      15A      0.127024    16A      0.194785    17A      0.194831  
      18A      0.279497    19A      0.295286    20A      0.382085  
      21A      0.454123    22A      0.479532    23A      0.480502  
      24A      0.481180    25A      0.491636    26A      0.560156  
      27A      0.560604    28A      0.563320    29A      0.594120  
      30A      0.594712    31A      0.616622    32A      0.677691  
      33A      0.693151    34A      0.716736    35A      0.717429  
      36A      0.776827    37A      0.849933    38A      0.911808  
      39A      0.912313    40A      0.996970    41A      0.997513  
      42A      1.005554    43A      1.055545    44A      1.068957  
      45A      1.102552    46A      1.155418    47A      1.157013  
      48A      1.201434    49A      1.294503    50A      1.296352  
      51A      1.369816    52A      1.438970    53A      1.579075  
      54A      1.580144    55A      1.593980    56A      1.621081  
      57A      1.654328    58A      1.859049    59A      2.147790  
      60A      2.148174    61A      2.159032    62A      2.572384  
      63A      2.692305    64A      2.737694    65A      2.738918  
      66A      2.785216    67A      2.851819    68A      2.852784  
      69A      2.870689    70A      2.870748    71A      2.966374  
      72A      3.002231    73A      3.002970    74A      3.072224  
      75A      3.102652    76A      3.102995    77A      3.109151  
      78A      3.111175    79A      3.135498    80A      3.289779  
      81A      3.290322    82A      3.310720    83A      3.313465  
      84A      3.384884    85A      3.428522    86A      3.432306  
      87A      3.564810    88A      3.609022    89A      3.808982  
      90A      3.940140    91A      3.993325    92A      3.996633  
      93A      4.012556    94A      4.100865    95A      4.102893  
      96A      4.176312    97A      4.229233    98A      4.318463  
      99A      4.369547   100A      4.381902   101A      4.422124  
     102A      4.439705   103A      4.443983   104A      4.927604  
     105A      4.928905   106A      5.202577   107A      5.221148  
     108A      5.222184   109A      5.247770   110A      6.013367  

    Final Occupation by Irrep:
              A 
    DOCC [    11 ]

  @DF-RKS Final Energy:  -116.66709613015234

   => Energetics <=

    Nuclear Repulsion Energy =             59.0066091493994307
    One-Electron Energy =                -272.1738882380684004
    Two-Electron Energy =                 110.8316619897519502
    DFT Exchange-Correlation Energy =     -14.3314790312353146
    Empirical Dispersion Energy =           0.0000000000000000
    VV10 Nonlocal Energy =                  0.0000000000000000
    Total Energy =                       -116.6670961301523448

Computation Completed


Properties will be evaluated at   0.000000,   0.000000,   0.000000 [a0]

Properties computed using the SCF density matrix

  Nuclear Dipole Moment: [e a0]
     X:     0.0070      Y:     0.0000      Z:    -0.0029

  Electronic Dipole Moment: [e a0]
     X:    -0.0062      Y:    -0.0000      Z:    -0.0005

  Dipole Moment: [e a0]
     X:     0.0008      Y:    -0.0000      Z:    -0.0033     Total:     0.0034

  Dipole Moment: [D]
     X:     0.0019      Y:    -0.0000      Z:    -0.0085     Total:     0.0087


*** tstop() called on n056 at Fri Sep  3 15:38:56 2021
Module time:
	user time   =      19.31 seconds =       0.32 minutes
	system time =       0.31 seconds =       0.01 minutes
	total time  =         20 seconds =       0.33 minutes
Total time:
	user time   =      19.31 seconds =       0.32 minutes
	system time =       0.31 seconds =       0.01 minutes
	total time  =         20 seconds =       0.33 minutes
Grab this energy -116.66709613015234
    Psi4 stopped on: Friday, 03 September 2021 03:38PM
    Psi4 wall time for execution: 0:00:19.64

*** Psi4 exiting successfully. Buy a developer a beer!
