
    -----------------------------------------------------------------------
          Psi4: An Open-Source Ab Initio Electronic Structure Package
                               Psi4 1.4a2.dev629 

                         Git: Rev {master} 2938fc2 dirty


    D. G. A. Smith, L. A. Burns, A. C. Simmonett, R. M. Parrish,
    M. C. Schieber, R. Galvelis, P. Kraus, H. Kruse, R. Di Remigio,
    A. Alenaizan, A. M. James, S. Lehtola, J. P. Misiewicz, M. Scheurer,
    R. A. Shaw, J. B. Schriber, Y. Xie, Z. L. Glick, D. A. Sirianni,
    J. S. O'Brien, J. M. Waldrop, A. Kumar, E. G. Hohenstein,
    B. P. Pritchard, B. R. Brooks, H. F. Schaefer III, A. Yu. Sokolov,
    K. Patkowski, A. E. DePrince III, U. Bozkaya, R. A. King,
    F. A. Evangelista, J. M. Turney, T. D. Crawford, C. D. Sherrill,
    J. Chem. Phys. 152(18) 184108 (2020). https://doi.org/10.1063/5.0006002

                            Additional Code Authors
    E. T. Seidl, C. L. Janssen, E. F. Valeev, M. L. Leininger,
    J. F. Gonthier, R. M. Richard, H. R. McAlexander, M. Saitow, X. Wang,
    P. Verma, and M. H. Lechner

             Previous Authors, Complete List of Code Contributors,
                       and Citations for Specific Modules
    https://github.com/psi4/psi4/blob/master/codemeta.json
    https://github.com/psi4/psi4/graphs/contributors
    http://psicode.org/psi4manual/master/introduction.html#citing-psifour

    -----------------------------------------------------------------------


    Psi4 started on: Friday, 03 September 2021 03:35PM

    Process ID: 16610
    Host:       n027
    PSIDATADIR: /opt/psi/4/master/share/psi4
    Memory:     500.0 MiB
    Threads:    1
    
  ==> Input File <==

--------------------------------------------------------------------------
import os
memory 14 GB 
 
molecule {
 X   -1.4141980326   -1.4142290874    0.0000000000
 C   -0.0000000000    0.0007300519    0.0000000000
 X    1.4141980326   -1.4142290874   -0.0000000000
 C    0.0012429503   -0.0012390654   -2.4782093666
 H   -1.2426033726   -1.2416978503   -3.5340221904
 H    1.2417252619    1.2425874171   -3.5340081440
 C   -0.0012429503   -0.0012390654    2.4782093666
 H    1.2426033726   -1.2416978503    3.5340221904
 H   -1.2417252619    1.2425874171    3.5340081440
units bohr
}

basis {

assign 6-31g_2dfp_

[ 6-31g_2dfp_ ]
spherical

!----------------------------------------------------------------------
! Basis Set Exchange
! Version v0.8.13
! https://www.basissetexchange.org
!----------------------------------------------------------------------
!   Basis set: 6-31G(2df,p)
! Description: 6-31G(2df,p)
!        Role: orbital
!     Version: 0  (Data from the original Basis Set Exchange)
!----------------------------------------------------------------------


****
H     0
S    3   1.00
     18.7311370              0.03349460
      2.8253937              0.23472695
      0.6401217              0.81375733
S    1   1.00
      0.1612778              1.00000000
P    1   1.00
      1.5000000              1.0000000
P    1   1.00
      0.3750000              1.0000000
****
C     0
S    6   1.00
   3047.5249000              0.0018347
    457.3695100              0.0140373
    103.9486900              0.0688426
     29.2101550              0.2321844
      9.2866630              0.4679413
      3.1639270              0.3623120
SP   3   1.00
      7.8682724             -0.1193324              0.0689991
      1.8812885             -0.1608542              0.3164240
      0.5442493              1.1434564              0.7443083
SP   1   1.00
      0.1687144              1.0000000              1.0000000
D    1   1.00
      1.2520000              1.0000000
D    1   1.00
      0.3130000              1.0000000
F    1   1.00
      0.8000000              1.0000000
****
}


set {
opt_type min                            
reference rhf                          
freeze_core true
e_convergence 10                       
d_convergence 10                      
ensure_bt_convergence true           
dft_spherical_points 590
dft_radial_points 99
}

e = energy('b3lyp')

print_out('Grab this energy {0}'.format(e))
--------------------------------------------------------------------------

  Memory set to  13.039 GiB by Python driver.

Scratch directory: /tmp/

*** tstart() called on n027
*** at Fri Sep  3 15:35:32 2021

   => Loading Basis Set <=

    Name: ANONYMOUS589AABD4
    Role: ORBITAL
    Keyword: BASIS
    atoms 1-2, 5   entry C          line    27 inputblock 6-31g_2dfp_ 
    atoms 3-4, 6-7 entry H          line    15 inputblock 6-31g_2dfp_ 


         ---------------------------------------------------------
                                   SCF
               by Justin Turney, Rob Parrish, Andy Simmonett
                          and Daniel G. A. Smith
                              RKS Reference
                        1 Threads,  13351 MiB Core
         ---------------------------------------------------------

  ==> Geometry <==

    Molecular point group: c2
    Full point group: C2

    Geometry (in Bohr), charge = 0, multiplicity = 1:

       Center              X                  Y                   Z               Mass       
    ------------   -----------------  -----------------  -----------------  -----------------
         C            0.000000000000     0.000000000000     0.001209274193    12.000000000000
         C           -0.001242950300    -2.478209366600    -0.000759843107    12.000000000000
         H            1.242603372600    -3.534022190400    -1.241218628007     1.007825032230
         H           -1.241725261900    -3.534008144000     1.243066639393     1.007825032230
         C            0.001242950300     2.478209366600    -0.000759843107    12.000000000000
         H           -1.242603372600     3.534022190400    -1.241218628007     1.007825032230
         H            1.241725261900     3.534008144000     1.243066639393     1.007825032230

  Running in c2 symmetry.

  Rotational constants: A =      4.83913  B =      0.29515  C =      0.29515 [cm^-1]
  Rotational constants: A = 145073.33130  B =   8848.30979  C =   8848.30127 [MHz]
  Nuclear repulsion =   59.042572374372931

  Charge       = 0
  Multiplicity = 1
  Electrons    = 22
  Nalpha       = 11
  Nbeta        = 11

  ==> Algorithm <==

  SCF Algorithm Type is DF.
  DIIS enabled.
  MOM disabled.
  Fractional occupation disabled.
  Guess Type is SAD.
  Energy threshold   = 1.00e-10
  Density threshold  = 1.00e-10
  Integral threshold = 0.00e+00

  ==> Primary Basis <==

  Basis Set: ANONYMOUS589AABD4
    Blend: 6-31G_2DFP_
    Number of shells: 40
    Number of basis function: 110
    Number of Cartesian functions: 125
    Spherical Harmonics?: true
    Max angular momentum: 3

  ==> DFT Potential <==

   => Composite Functional: B3LYP <= 

    B3LYP Hyb-GGA Exchange-Correlation Functional

    P. J. Stephens, F. J. Devlin, C. F. Chabalowski, and M. J. Frisch, J. Phys. Chem. 98, 11623 (1994)

    Deriv               =              1
    GGA                 =           TRUE
    Meta                =          FALSE

    Exchange Hybrid     =           TRUE
    MP2 Hybrid          =          FALSE

   => Exchange Functionals <=

    0.0800   Slater exchange
    0.7200         Becke 88

   => Exact (HF) Exchange <=

    0.2000               HF 

   => Correlation Functionals <=

    0.1900   Vosko, Wilk & Nusair (VWN5_RPA)
    0.8100   Lee, Yang & Parr

   => Molecular Quadrature <=

    Radial Scheme          =       TREUTLER
    Pruning Scheme         =           NONE
    Nuclear Scheme         =       TREUTLER

    BS radius alpha        =              1
    Pruning alpha          =              1
    Radial Points          =             99
    Spherical Points       =            590
    Total Points           =         387198
    Total Blocks           =           2790
    Max Points             =            256
    Max Functions          =            110
    Weights Tolerance      =       1.00E-15

   => Loading Basis Set <=

    Name: (ANONYMOUS589AABD4 AUX)
    Role: JKFIT
    Keyword: DF_BASIS_SCF
    atoms 1-2, 5   entry C          line   198 file /opt/psi/4/master/share/psi4/basis/def2-universal-jkfit.gbs 
    atoms 3-4, 6-7 entry H          line    18 file /opt/psi/4/master/share/psi4/basis/def2-universal-jkfit.gbs 

  ==> Integral Setup <==

  DFHelper Memory: AOs need 0.030 GiB; user supplied 8.715 GiB. Using in-core AOs.

  ==> MemDFJK: Density-Fitted J/K Matrices <==

    J tasked:                   Yes
    K tasked:                   Yes
    wK tasked:                   No
    OpenMP threads:               1
    Memory [MiB]:              8924
    Algorithm:                 Core
    Schwarz Cutoff:           1E-12
    Mask sparsity (%):       0.8099
    Fitting Condition:        1E-10

   => Auxiliary Basis Set <=

  Basis Set: (ANONYMOUS589AABD4 AUX)
    Blend: DEF2-UNIVERSAL-JKFIT
    Number of shells: 99
    Number of basis function: 297
    Number of Cartesian functions: 347
    Spherical Harmonics?: true
    Max angular momentum: 4

  Cached 100.0% of DFT collocation blocks in 1.064 [GiB].

  Minimum eigenvalue in the overlap matrix is 6.1488091697E-04.
  Reciprocal condition number of the overlap matrix is 1.2659906338E-04.
    Using symmetric orthogonalization.

  ==> Pre-Iterations <==

  SCF Guess: Superposition of Atomic Densities via on-the-fly atomic UHF (no occupation information).

   -------------------------
    Irrep   Nso     Nmo    
   -------------------------
     A         56      56 
     B         54      54 
   -------------------------
    Total     110     110
   -------------------------

  ==> Iterations <==

                           Total Energy        Delta E     RMS |[F,P]|

   @DF-RKS iter SAD:  -116.07026006193624   -1.16070e+02   0.00000e+00 
   @DF-RKS iter   1:  -116.45232734970412   -3.82067e-01   7.92030e-03 DIIS
   @DF-RKS iter   2:  -116.47050360747856   -1.81763e-02   7.49228e-03 DIIS
   @DF-RKS iter   3:  -116.66671261267523   -1.96209e-01   3.90383e-04 DIIS
   @DF-RKS iter   4:  -116.66650053165404    2.12081e-04   4.87357e-04 DIIS
   @DF-RKS iter   5:  -116.66723950599950   -7.38974e-04   1.48666e-05 DIIS
   @DF-RKS iter   6:  -116.66724017404376   -6.68044e-07   2.82350e-06 DIIS
   @DF-RKS iter   7:  -116.66724019997770   -2.59339e-08   3.67471e-07 DIIS
   @DF-RKS iter   8:  -116.66724020034513   -3.67436e-10   4.81892e-08 DIIS
   @DF-RKS iter   9:  -116.66724020035130   -6.16751e-12   1.61558e-08 DIIS
   @DF-RKS iter  10:  -116.66724020035201   -7.10543e-13   1.90846e-09 DIIS
   @DF-RKS iter  11:  -116.66724020035220   -1.84741e-13   2.46652e-10 DIIS
   @DF-RKS iter  12:  -116.66724020035215    4.26326e-14   3.45345e-11 DIIS
  Energy and wave function converged.


  ==> Post-Iterations <==

    Orbital Energies [Eh]
    ---------------------

    Doubly Occupied:                                                      

       1A    -10.201008     2A    -10.184608     1B    -10.184580  
       3A     -0.785249     2B     -0.699905     4A     -0.519228  
       3B     -0.446970     4B     -0.440523     5A     -0.440523  
       6A     -0.263650     5B     -0.263648  

    Virtual:                                                              

       6B      0.017807     7A      0.017809     8A      0.111166  
       7B      0.126774     9A      0.194938     8B      0.194939  
      10A      0.280504     9B      0.295487    11A      0.382371  
      12A      0.454265    10B      0.479832    13A      0.479833  
      11B      0.481045    14A      0.491585    12B      0.559978  
      15A      0.559981    13B      0.563338    14B      0.593799  
      16A      0.593801    15B      0.616372    17A      0.677502  
      16B      0.693543    18A      0.717180    17B      0.717184  
      19A      0.776687    20A      0.849870    18B      0.912136  
      21A      0.912136    19B      0.997552    22A      0.997579  
      20B      1.006638    21B      1.058111    23A      1.069227  
      22B      1.101715    24A      1.156816    23B      1.156826  
      24B      1.201100    25A      1.295306    25B      1.295315  
      26A      1.369737    27A      1.440291    26B      1.579718  
      28A      1.579719    27B      1.595598    28B      1.618909  
      29A      1.653685    30A      1.857615    29B      2.148942  
      31A      2.148970    30B      2.157256    32A      2.577193  
      31B      2.692853    33A      2.737578    32B      2.737588  
      34A      2.787330    35A      2.849574    33B      2.849576  
      34B      2.869564    36A      2.869567    37A      2.966502  
      35B      3.002928    38A      3.002931    36B      3.072002  
      39A      3.103298    37B      3.103302    38B      3.109044  
      40A      3.111639    41A      3.135430    42A      3.288663  
      39B      3.288664    43A      3.311006    40B      3.312583  
      41B      3.387475    42B      3.430734    44A      3.430738  
      45A      3.566347    43B      3.612537    44B      3.809958  
      46A      3.944052    45B      3.997290    47A      3.997298  
      46B      4.015212    48A      4.099920    47B      4.099926  
      48B      4.173031    49A      4.228438    50A      4.326330  
      51A      4.369792    49B      4.377425    50B      4.424672  
      51B      4.442494    52A      4.442501    52B      4.927550  
      53A      4.927553    54A      5.200655    53B      5.220387  
      55A      5.220389    54B      5.244714    56A      6.029034  

    Final Occupation by Irrep:
              A     B 
    DOCC [     6,    5 ]

  @DF-RKS Final Energy:  -116.66724020035215

   => Energetics <=

    Nuclear Repulsion Energy =             59.0425723743729307
    One-Electron Energy =                -272.2465460735427314
    Two-Electron Energy =                 110.8685687734181329
    DFT Exchange-Correlation Energy =     -14.3318352746004809
    Empirical Dispersion Energy =           0.0000000000000000
    VV10 Nonlocal Energy =                  0.0000000000000000
    Total Energy =                       -116.6672402003521540

Computation Completed


Properties will be evaluated at   0.000000,   0.000000,   0.000000 [a0]

Properties computed using the SCF density matrix

  Nuclear Dipole Moment: [e a0]
     X:     0.0000      Y:     0.0000      Z:     0.0018

  Electronic Dipole Moment: [e a0]
     X:     0.0000      Y:     0.0000      Z:    -0.0009

  Dipole Moment: [e a0]
     X:     0.0000      Y:     0.0000      Z:     0.0009     Total:     0.0009

  Dipole Moment: [D]
     X:     0.0000      Y:     0.0000      Z:     0.0023     Total:     0.0023


*** tstop() called on n027 at Fri Sep  3 15:35:54 2021
Module time:
	user time   =      21.05 seconds =       0.35 minutes
	system time =       0.23 seconds =       0.00 minutes
	total time  =         22 seconds =       0.37 minutes
Total time:
	user time   =      21.05 seconds =       0.35 minutes
	system time =       0.23 seconds =       0.00 minutes
	total time  =         22 seconds =       0.37 minutes
Grab this energy -116.66724020035215
    Psi4 stopped on: Friday, 03 September 2021 03:35PM
    Psi4 wall time for execution: 0:00:21.30

*** Psi4 exiting successfully. Buy a developer a beer!
