
    -----------------------------------------------------------------------
          Psi4: An Open-Source Ab Initio Electronic Structure Package
                               Psi4 1.4a2.dev629 

                         Git: Rev {master} 2938fc2 dirty


    D. G. A. Smith, L. A. Burns, A. C. Simmonett, R. M. Parrish,
    M. C. Schieber, R. Galvelis, P. Kraus, H. Kruse, R. Di Remigio,
    A. Alenaizan, A. M. James, S. Lehtola, J. P. Misiewicz, M. Scheurer,
    R. A. Shaw, J. B. Schriber, Y. Xie, Z. L. Glick, D. A. Sirianni,
    J. S. O'Brien, J. M. Waldrop, A. Kumar, E. G. Hohenstein,
    B. P. Pritchard, B. R. Brooks, H. F. Schaefer III, A. Yu. Sokolov,
    K. Patkowski, A. E. DePrince III, U. Bozkaya, R. A. King,
    F. A. Evangelista, J. M. Turney, T. D. Crawford, C. D. Sherrill,
    J. Chem. Phys. 152(18) 184108 (2020). https://doi.org/10.1063/5.0006002

                            Additional Code Authors
    E. T. Seidl, C. L. Janssen, E. F. Valeev, M. L. Leininger,
    J. F. Gonthier, R. M. Richard, H. R. McAlexander, M. Saitow, X. Wang,
    P. Verma, and M. H. Lechner

             Previous Authors, Complete List of Code Contributors,
                       and Citations for Specific Modules
    https://github.com/psi4/psi4/blob/master/codemeta.json
    https://github.com/psi4/psi4/graphs/contributors
    http://psicode.org/psi4manual/master/introduction.html#citing-psifour

    -----------------------------------------------------------------------


    Psi4 started on: Friday, 03 September 2021 03:40PM

    Process ID: 304
    Host:       n058
    PSIDATADIR: /opt/psi/4/master/share/psi4
    Memory:     500.0 MiB
    Threads:    1
    
  ==> Input File <==

--------------------------------------------------------------------------
import os
memory 14 GB 
 
molecule {
 X   -1.4140313254   -1.4143957946   -0.0000000000
 C   -0.0000000000    0.0019487578   -0.0000000000
 X    1.4140313254   -1.4143957946    0.0000000000
 C   -0.0023479444   -0.0019782650   -2.4826039262
 H   -1.2449354625   -1.2448967804   -3.5326301798
 H    1.2467202801    1.2460829011   -3.5330152894
 C    0.0023479444   -0.0019782650    2.4826039262
 H    1.2449354625   -1.2448967804    3.5326301798
 H   -1.2467202801    1.2460829011    3.5330152894
units bohr
}

basis {

assign 6-31g_2dfp_

[ 6-31g_2dfp_ ]
spherical

!----------------------------------------------------------------------
! Basis Set Exchange
! Version v0.8.13
! https://www.basissetexchange.org
!----------------------------------------------------------------------
!   Basis set: 6-31G(2df,p)
! Description: 6-31G(2df,p)
!        Role: orbital
!     Version: 0  (Data from the original Basis Set Exchange)
!----------------------------------------------------------------------


****
H     0
S    3   1.00
     18.7311370              0.03349460
      2.8253937              0.23472695
      0.6401217              0.81375733
S    1   1.00
      0.1612778              1.00000000
P    1   1.00
      1.5000000              1.0000000
P    1   1.00
      0.3750000              1.0000000
****
C     0
S    6   1.00
   3047.5249000              0.0018347
    457.3695100              0.0140373
    103.9486900              0.0688426
     29.2101550              0.2321844
      9.2866630              0.4679413
      3.1639270              0.3623120
SP   3   1.00
      7.8682724             -0.1193324              0.0689991
      1.8812885             -0.1608542              0.3164240
      0.5442493              1.1434564              0.7443083
SP   1   1.00
      0.1687144              1.0000000              1.0000000
D    1   1.00
      1.2520000              1.0000000
D    1   1.00
      0.3130000              1.0000000
F    1   1.00
      0.8000000              1.0000000
****
}


set {
opt_type min                            
reference rhf                          
freeze_core true
e_convergence 10                       
d_convergence 10                      
ensure_bt_convergence true           
dft_spherical_points 590
dft_radial_points 99
}

e = energy('b3lyp')

print_out('Grab this energy {0}'.format(e))
--------------------------------------------------------------------------

  Memory set to  13.039 GiB by Python driver.

Scratch directory: /tmp/

*** tstart() called on n058
*** at Fri Sep  3 15:40:02 2021

   => Loading Basis Set <=

    Name: ANONYMOUS161EE283
    Role: ORBITAL
    Keyword: BASIS
    atoms 1-2, 5   entry C          line    27 inputblock 6-31g_2dfp_ 
    atoms 3-4, 6-7 entry H          line    15 inputblock 6-31g_2dfp_ 


         ---------------------------------------------------------
                                   SCF
               by Justin Turney, Rob Parrish, Andy Simmonett
                          and Daniel G. A. Smith
                              RKS Reference
                        1 Threads,  13351 MiB Core
         ---------------------------------------------------------

  ==> Geometry <==

    Molecular point group: c2
    Full point group: C2

    Geometry (in Bohr), charge = 0, multiplicity = 1:

       Center              X                  Y                   Z               Mass       
    ------------   -----------------  -----------------  -----------------  -----------------
         C            0.000000000000     0.000000000000     0.002490895129    12.000000000000
         C            0.002347944400    -2.482603926200    -0.001436127671    12.000000000000
         H            1.244935462500    -3.532630179800    -1.244354643071     1.007825032230
         H           -1.246720280100    -3.533015289400     1.246625038429     1.007825032230
         C           -0.002347944400     2.482603926200    -0.001436127671    12.000000000000
         H           -1.244935462500     3.532630179800    -1.244354643071     1.007825032230
         H            1.246720280100     3.533015289400     1.246625038429     1.007825032230

  Running in c2 symmetry.

  Rotational constants: A =      4.81188  B =      0.29439  C =      0.29439 [cm^-1]
  Rotational constants: A = 144256.45344  B =   8825.68078  C =   8825.53756 [MHz]
  Nuclear repulsion =   58.964287955574264

  Charge       = 0
  Multiplicity = 1
  Electrons    = 22
  Nalpha       = 11
  Nbeta        = 11

  ==> Algorithm <==

  SCF Algorithm Type is DF.
  DIIS enabled.
  MOM disabled.
  Fractional occupation disabled.
  Guess Type is SAD.
  Energy threshold   = 1.00e-10
  Density threshold  = 1.00e-10
  Integral threshold = 0.00e+00

  ==> Primary Basis <==

  Basis Set: ANONYMOUS161EE283
    Blend: 6-31G_2DFP_
    Number of shells: 40
    Number of basis function: 110
    Number of Cartesian functions: 125
    Spherical Harmonics?: true
    Max angular momentum: 3

  ==> DFT Potential <==

   => Composite Functional: B3LYP <= 

    B3LYP Hyb-GGA Exchange-Correlation Functional

    P. J. Stephens, F. J. Devlin, C. F. Chabalowski, and M. J. Frisch, J. Phys. Chem. 98, 11623 (1994)

    Deriv               =              1
    GGA                 =           TRUE
    Meta                =          FALSE

    Exchange Hybrid     =           TRUE
    MP2 Hybrid          =          FALSE

   => Exchange Functionals <=

    0.0800   Slater exchange
    0.7200         Becke 88

   => Exact (HF) Exchange <=

    0.2000               HF 

   => Correlation Functionals <=

    0.1900   Vosko, Wilk & Nusair (VWN5_RPA)
    0.8100   Lee, Yang & Parr

   => Molecular Quadrature <=

    Radial Scheme          =       TREUTLER
    Pruning Scheme         =           NONE
    Nuclear Scheme         =       TREUTLER

    BS radius alpha        =              1
    Pruning alpha          =              1
    Radial Points          =             99
    Spherical Points       =            590
    Total Points           =         387208
    Total Blocks           =           2791
    Max Points             =            256
    Max Functions          =            110
    Weights Tolerance      =       1.00E-15

   => Loading Basis Set <=

    Name: (ANONYMOUS161EE283 AUX)
    Role: JKFIT
    Keyword: DF_BASIS_SCF
    atoms 1-2, 5   entry C          line   198 file /opt/psi/4/master/share/psi4/basis/def2-universal-jkfit.gbs 
    atoms 3-4, 6-7 entry H          line    18 file /opt/psi/4/master/share/psi4/basis/def2-universal-jkfit.gbs 

  ==> Integral Setup <==

  DFHelper Memory: AOs need 0.030 GiB; user supplied 8.715 GiB. Using in-core AOs.

  ==> MemDFJK: Density-Fitted J/K Matrices <==

    J tasked:                   Yes
    K tasked:                   Yes
    wK tasked:                   No
    OpenMP threads:               1
    Memory [MiB]:              8924
    Algorithm:                 Core
    Schwarz Cutoff:           1E-12
    Mask sparsity (%):       0.8099
    Fitting Condition:        1E-10

   => Auxiliary Basis Set <=

  Basis Set: (ANONYMOUS161EE283 AUX)
    Blend: DEF2-UNIVERSAL-JKFIT
    Number of shells: 99
    Number of basis function: 297
    Number of Cartesian functions: 347
    Spherical Harmonics?: true
    Max angular momentum: 4

  Cached 100.0% of DFT collocation blocks in 1.064 [GiB].

  Minimum eigenvalue in the overlap matrix is 6.2382622705E-04.
  Reciprocal condition number of the overlap matrix is 1.2862281743E-04.
    Using symmetric orthogonalization.

  ==> Pre-Iterations <==

  SCF Guess: Superposition of Atomic Densities via on-the-fly atomic UHF (no occupation information).

   -------------------------
    Irrep   Nso     Nmo    
   -------------------------
     A         56      56 
     B         54      54 
   -------------------------
    Total     110     110
   -------------------------

  ==> Iterations <==

                           Total Energy        Delta E     RMS |[F,P]|

   @DF-RKS iter SAD:  -116.06447213757295   -1.16064e+02   0.00000e+00 
   @DF-RKS iter   1:  -116.45350941655352   -3.89037e-01   7.89322e-03 DIIS
   @DF-RKS iter   2:  -116.47209183203418   -1.85824e-02   7.45763e-03 DIIS
   @DF-RKS iter   3:  -116.66662697127813   -1.94535e-01   3.61542e-04 DIIS
   @DF-RKS iter   4:  -116.66639868430779    2.28287e-04   4.68828e-04 DIIS
   @DF-RKS iter   5:  -116.66708425897697   -6.85575e-04   1.48066e-05 DIIS
   @DF-RKS iter   6:  -116.66708491549882   -6.56522e-07   2.82281e-06 DIIS
   @DF-RKS iter   7:  -116.66708494135915   -2.58603e-08   4.02572e-07 DIIS
   @DF-RKS iter   8:  -116.66708494180644   -4.47287e-10   8.14584e-08 DIIS
   @DF-RKS iter   9:  -116.66708494182673   -2.02931e-11   1.66395e-08 DIIS
   @DF-RKS iter  10:  -116.66708494182772   -9.94760e-13   1.91034e-09 DIIS
   @DF-RKS iter  11:  -116.66708494182753    1.98952e-13   2.41881e-10 DIIS
   @DF-RKS iter  12:  -116.66708494182775   -2.27374e-13   3.07529e-11 DIIS
  Energy and wave function converged.


  ==> Post-Iterations <==

    Orbital Energies [Eh]
    ---------------------

    Doubly Occupied:                                                      

       1A    -10.201587     2A    -10.185143     1B    -10.185114  
       3A     -0.784667     2B     -0.699518     4A     -0.518579  
       3B     -0.446016     5A     -0.440732     4B     -0.440688  
       6A     -0.263431     5B     -0.263401  

    Virtual:                                                              

       6B      0.017454     7A      0.017491     8A      0.110753  
       7B      0.126381     9A      0.194412     8B      0.194419  
      10A      0.279088     9B      0.295162    11A      0.382016  
      12A      0.453634    10B      0.479880    13A      0.479909  
      11B      0.480969    14A      0.491322    15A      0.560231  
      12B      0.560252    13B      0.562769    14B      0.594108  
      16A      0.594138    15B      0.615698    17A      0.676928  
      16B      0.692619    18A      0.716611    17B      0.716622  
      19A      0.776518    20A      0.849811    18B      0.910970  
      21A      0.910988    19B      0.995979    22A      0.995984  
      20B      1.005749    21B      1.054533    23A      1.068038  
      22B      1.102425    24A      1.155658    23B      1.155667  
      24B      1.201060    25A      1.294940    25B      1.295006  
      26A      1.369036    27A      1.438850    26B      1.577719  
      28A      1.577915    27B      1.592780    28B      1.617782  
      29A      1.649644    30A      1.858132    29B      2.143641  
      31A      2.143769    30B      2.158045    32A      2.571033  
      31B      2.691131    32B      2.738218    33A      2.738241  
      34A      2.784822    33B      2.853527    35A      2.853569  
      34B      2.870573    36A      2.870614    37A      2.966529  
      38A      3.002819    35B      3.002874    36B      3.073486  
      39A      3.101869    37B      3.102026    40A      3.110996  
      38B      3.111176    41A      3.136721    39B      3.289902  
      42A      3.289909    43A      3.309351    40B      3.311074  
      41B      3.384327    42B      3.429794    44A      3.429846  
      45A      3.564054    43B      3.608096    44B      3.807329  
      46A      3.937083    45B      3.993515    47A      3.993675  
      46B      4.006789    48A      4.100742    47B      4.100813  
      48B      4.177039    49A      4.223834    50A      4.312826  
      51A      4.367904    49B      4.380727    50B      4.416062  
      52A      4.440521    51B      4.440543    52B      4.920338  
      53A      4.920426    54A      5.200294    53B      5.214564  
      55A      5.215855    54B      5.244819    56A      6.009690  

    Final Occupation by Irrep:
              A     B 
    DOCC [     6,    5 ]

  @DF-RKS Final Energy:  -116.66708494182775

   => Energetics <=

    Nuclear Repulsion Energy =             58.9642879555742638
    One-Electron Energy =                -272.0939987315023245
    Two-Electron Energy =                 110.7911366164851756
    DFT Exchange-Correlation Energy =     -14.3285107823848694
    Empirical Dispersion Energy =           0.0000000000000000
    VV10 Nonlocal Energy =                  0.0000000000000000
    Total Energy =                       -116.6670849418277527

Computation Completed


Properties will be evaluated at   0.000000,   0.000000,   0.000000 [a0]

Properties computed using the SCF density matrix

  Nuclear Dipole Moment: [e a0]
     X:     0.0000      Y:     0.0000      Z:     0.0023

  Electronic Dipole Moment: [e a0]
     X:     0.0000      Y:     0.0000      Z:    -0.0033

  Dipole Moment: [e a0]
     X:     0.0000      Y:     0.0000      Z:    -0.0011     Total:     0.0011

  Dipole Moment: [D]
     X:     0.0000      Y:     0.0000      Z:    -0.0027     Total:     0.0027


*** tstop() called on n058 at Fri Sep  3 15:40:20 2021
Module time:
	user time   =      17.81 seconds =       0.30 minutes
	system time =       0.30 seconds =       0.01 minutes
	total time  =         18 seconds =       0.30 minutes
Total time:
	user time   =      17.81 seconds =       0.30 minutes
	system time =       0.30 seconds =       0.01 minutes
	total time  =         18 seconds =       0.30 minutes
Grab this energy -116.66708494182775
    Psi4 stopped on: Friday, 03 September 2021 03:40PM
    Psi4 wall time for execution: 0:00:18.13

*** Psi4 exiting successfully. Buy a developer a beer!
