
    -----------------------------------------------------------------------
          Psi4: An Open-Source Ab Initio Electronic Structure Package
                               Psi4 1.4a2.dev629 

                         Git: Rev {master} 2938fc2 dirty


    D. G. A. Smith, L. A. Burns, A. C. Simmonett, R. M. Parrish,
    M. C. Schieber, R. Galvelis, P. Kraus, H. Kruse, R. Di Remigio,
    A. Alenaizan, A. M. James, S. Lehtola, J. P. Misiewicz, M. Scheurer,
    R. A. Shaw, J. B. Schriber, Y. Xie, Z. L. Glick, D. A. Sirianni,
    J. S. O'Brien, J. M. Waldrop, A. Kumar, E. G. Hohenstein,
    B. P. Pritchard, B. R. Brooks, H. F. Schaefer III, A. Yu. Sokolov,
    K. Patkowski, A. E. DePrince III, U. Bozkaya, R. A. King,
    F. A. Evangelista, J. M. Turney, T. D. Crawford, C. D. Sherrill,
    J. Chem. Phys. 152(18) 184108 (2020). https://doi.org/10.1063/5.0006002

                            Additional Code Authors
    E. T. Seidl, C. L. Janssen, E. F. Valeev, M. L. Leininger,
    J. F. Gonthier, R. M. Richard, H. R. McAlexander, M. Saitow, X. Wang,
    P. Verma, and M. H. Lechner

             Previous Authors, Complete List of Code Contributors,
                       and Citations for Specific Modules
    https://github.com/psi4/psi4/blob/master/codemeta.json
    https://github.com/psi4/psi4/graphs/contributors
    http://psicode.org/psi4manual/master/introduction.html#citing-psifour

    -----------------------------------------------------------------------


    Psi4 started on: Friday, 03 September 2021 03:39PM

    Process ID: 22539
    Host:       n032
    PSIDATADIR: /opt/psi/4/master/share/psi4
    Memory:     500.0 MiB
    Threads:    1
    
  ==> Input File <==

--------------------------------------------------------------------------
import os
memory 14 GB 
 
molecule {
 X   -1.4140297022   -1.4143974178   -0.0000000000
 C   -0.0000000000    0.0019454936   -0.0000000000
 X    1.4140297022   -1.4143974178   -0.0000000000
 C   -0.0023451228   -0.0019772228   -2.4817845319
 H   -1.2412419869   -1.2412048309   -3.5325875635
 H    1.2430300945    1.2423931647   -3.5329876700
 C    0.0023451228   -0.0019772228    2.4817845319
 H    1.2412419869   -1.2412048309    3.5325875635
 H   -1.2430300945    1.2423931647    3.5329876700
units bohr
}

basis {

assign 6-31g_2dfp_

[ 6-31g_2dfp_ ]
spherical

!----------------------------------------------------------------------
! Basis Set Exchange
! Version v0.8.13
! https://www.basissetexchange.org
!----------------------------------------------------------------------
!   Basis set: 6-31G(2df,p)
! Description: 6-31G(2df,p)
!        Role: orbital
!     Version: 0  (Data from the original Basis Set Exchange)
!----------------------------------------------------------------------


****
H     0
S    3   1.00
     18.7311370              0.03349460
      2.8253937              0.23472695
      0.6401217              0.81375733
S    1   1.00
      0.1612778              1.00000000
P    1   1.00
      1.5000000              1.0000000
P    1   1.00
      0.3750000              1.0000000
****
C     0
S    6   1.00
   3047.5249000              0.0018347
    457.3695100              0.0140373
    103.9486900              0.0688426
     29.2101550              0.2321844
      9.2866630              0.4679413
      3.1639270              0.3623120
SP   3   1.00
      7.8682724             -0.1193324              0.0689991
      1.8812885             -0.1608542              0.3164240
      0.5442493              1.1434564              0.7443083
SP   1   1.00
      0.1687144              1.0000000              1.0000000
D    1   1.00
      1.2520000              1.0000000
D    1   1.00
      0.3130000              1.0000000
F    1   1.00
      0.8000000              1.0000000
****
}


set {
opt_type min                            
reference rhf                          
freeze_core true
e_convergence 10                       
d_convergence 10                      
ensure_bt_convergence true           
dft_spherical_points 590
dft_radial_points 99
}

e = energy('b3lyp')

print_out('Grab this energy {0}'.format(e))
--------------------------------------------------------------------------

  Memory set to  13.039 GiB by Python driver.

Scratch directory: /tmp/

*** tstart() called on n032
*** at Fri Sep  3 15:39:03 2021

   => Loading Basis Set <=

    Name: ANONYMOUSD4E04077
    Role: ORBITAL
    Keyword: BASIS
    atoms 1-2, 5   entry C          line    27 inputblock 6-31g_2dfp_ 
    atoms 3-4, 6-7 entry H          line    15 inputblock 6-31g_2dfp_ 


         ---------------------------------------------------------
                                   SCF
               by Justin Turney, Rob Parrish, Andy Simmonett
                          and Daniel G. A. Smith
                              RKS Reference
                        1 Threads,  13351 MiB Core
         ---------------------------------------------------------

  ==> Geometry <==

    Molecular point group: c2
    Full point group: C2

    Geometry (in Bohr), charge = 0, multiplicity = 1:

       Center              X                  Y                   Z               Mass       
    ------------   -----------------  -----------------  -----------------  -----------------
         C           -0.000000000000     0.000000000000     0.002487873159    12.000000000000
         C            0.002345122800    -2.481784531900    -0.001434843241    12.000000000000
         H            1.241241986900    -3.532587563500    -1.240662451341     1.007825032230
         H           -1.243030094500    -3.532987670000     1.242935544259     1.007825032230
         C           -0.002345122800     2.481784531900    -0.001434843241    12.000000000000
         H           -1.241241986900     3.532587563500    -1.240662451341     1.007825032230
         H            1.243030094500     3.532987670000     1.242935544259     1.007825032230

  Running in c2 symmetry.

  Rotational constants: A =      4.84052  B =      0.29459  C =      0.29458 [cm^-1]
  Rotational constants: A = 145115.22691  B =   8831.53871  C =   8831.39616 [MHz]
  Nuclear repulsion =   59.006478248801400

  Charge       = 0
  Multiplicity = 1
  Electrons    = 22
  Nalpha       = 11
  Nbeta        = 11

  ==> Algorithm <==

  SCF Algorithm Type is DF.
  DIIS enabled.
  MOM disabled.
  Fractional occupation disabled.
  Guess Type is SAD.
  Energy threshold   = 1.00e-10
  Density threshold  = 1.00e-10
  Integral threshold = 0.00e+00

  ==> Primary Basis <==

  Basis Set: ANONYMOUSD4E04077
    Blend: 6-31G_2DFP_
    Number of shells: 40
    Number of basis function: 110
    Number of Cartesian functions: 125
    Spherical Harmonics?: true
    Max angular momentum: 3

  ==> DFT Potential <==

   => Composite Functional: B3LYP <= 

    B3LYP Hyb-GGA Exchange-Correlation Functional

    P. J. Stephens, F. J. Devlin, C. F. Chabalowski, and M. J. Frisch, J. Phys. Chem. 98, 11623 (1994)

    Deriv               =              1
    GGA                 =           TRUE
    Meta                =          FALSE

    Exchange Hybrid     =           TRUE
    MP2 Hybrid          =          FALSE

   => Exchange Functionals <=

    0.0800   Slater exchange
    0.7200         Becke 88

   => Exact (HF) Exchange <=

    0.2000               HF 

   => Correlation Functionals <=

    0.1900   Vosko, Wilk & Nusair (VWN5_RPA)
    0.8100   Lee, Yang & Parr

   => Molecular Quadrature <=

    Radial Scheme          =       TREUTLER
    Pruning Scheme         =           NONE
    Nuclear Scheme         =       TREUTLER

    BS radius alpha        =              1
    Pruning alpha          =              1
    Radial Points          =             99
    Spherical Points       =            590
    Total Points           =         387202
    Total Blocks           =           2791
    Max Points             =            256
    Max Functions          =            110
    Weights Tolerance      =       1.00E-15

   => Loading Basis Set <=

    Name: (ANONYMOUSD4E04077 AUX)
    Role: JKFIT
    Keyword: DF_BASIS_SCF
    atoms 1-2, 5   entry C          line   198 file /opt/psi/4/master/share/psi4/basis/def2-universal-jkfit.gbs 
    atoms 3-4, 6-7 entry H          line    18 file /opt/psi/4/master/share/psi4/basis/def2-universal-jkfit.gbs 

  ==> Integral Setup <==

  DFHelper Memory: AOs need 0.030 GiB; user supplied 8.715 GiB. Using in-core AOs.

  ==> MemDFJK: Density-Fitted J/K Matrices <==

    J tasked:                   Yes
    K tasked:                   Yes
    wK tasked:                   No
    OpenMP threads:               1
    Memory [MiB]:              8924
    Algorithm:                 Core
    Schwarz Cutoff:           1E-12
    Mask sparsity (%):       0.8099
    Fitting Condition:        1E-10

   => Auxiliary Basis Set <=

  Basis Set: (ANONYMOUSD4E04077 AUX)
    Blend: DEF2-UNIVERSAL-JKFIT
    Number of shells: 99
    Number of basis function: 297
    Number of Cartesian functions: 347
    Spherical Harmonics?: true
    Max angular momentum: 4

  Cached 100.0% of DFT collocation blocks in 1.064 [GiB].

  Minimum eigenvalue in the overlap matrix is 6.2160607678E-04.
  Reciprocal condition number of the overlap matrix is 1.2801089759E-04.
    Using symmetric orthogonalization.

  ==> Pre-Iterations <==

  SCF Guess: Superposition of Atomic Densities via on-the-fly atomic UHF (no occupation information).

   -------------------------
    Irrep   Nso     Nmo    
   -------------------------
     A         56      56 
     B         54      54 
   -------------------------
    Total     110     110
   -------------------------

  ==> Iterations <==

                           Total Energy        Delta E     RMS |[F,P]|

   @DF-RKS iter SAD:  -116.06767489144316   -1.16068e+02   0.00000e+00 
   @DF-RKS iter   1:  -116.45325834493281   -3.85583e-01   7.90278e-03 DIIS
   @DF-RKS iter   2:  -116.47267585462143   -1.94175e-02   7.45178e-03 DIIS
   @DF-RKS iter   3:  -116.66667889640682   -1.94003e-01   3.50721e-04 DIIS
   @DF-RKS iter   4:  -116.66645114823542    2.27748e-04   4.59955e-04 DIIS
   @DF-RKS iter   5:  -116.66711136376043   -6.60216e-04   1.48335e-05 DIIS
   @DF-RKS iter   6:  -116.66711201805202   -6.54292e-07   2.82193e-06 DIIS
   @DF-RKS iter   7:  -116.66711204386175   -2.58097e-08   4.05260e-07 DIIS
   @DF-RKS iter   8:  -116.66711204431535   -4.53596e-10   8.15751e-08 DIIS
   @DF-RKS iter   9:  -116.66711204433568   -2.03357e-11   1.66248e-08 DIIS
   @DF-RKS iter  10:  -116.66711204433672   -1.03739e-12   1.90672e-09 DIIS
   @DF-RKS iter  11:  -116.66711204433668    4.26326e-14   2.38600e-10 DIIS
   @DF-RKS iter  12:  -116.66711204433676   -8.52651e-14   3.04546e-11 DIIS
  Energy and wave function converged.


  ==> Post-Iterations <==

    Orbital Energies [Eh]
    ---------------------

    Doubly Occupied:                                                      

       1A    -10.201510     2A    -10.184657     1B    -10.184627  
       3A     -0.784870     2B     -0.699879     4A     -0.519294  
       3B     -0.446587     5A     -0.440944     4B     -0.440904  
       6A     -0.263497     5B     -0.263466  

    Virtual:                                                              

       6B      0.017587     7A      0.017624     8A      0.111322  
       7B      0.127020     9A      0.194804     8B      0.194810  
      10A      0.279518     9B      0.295278    11A      0.382089  
      12A      0.454124    10B      0.479999    13A      0.480026  
      11B      0.481186    14A      0.491637    15A      0.560374  
      12B      0.560396    13B      0.563325    14B      0.594388  
      16A      0.594417    15B      0.616621    17A      0.677693  
      16B      0.693131    18A      0.717086    17B      0.717097  
      19A      0.776827    20A      0.849931    18B      0.912050  
      21A      0.912069    19B      0.997230    22A      0.997237  
      20B      1.005569    21B      1.055589    23A      1.068894  
      22B      1.102541    24A      1.156221    23B      1.156229  
      24B      1.201439    25A      1.295379    25B      1.295446  
      26A      1.369817    27A      1.438991    26B      1.579451  
      28A      1.579659    27B      1.594082    28B      1.621165  
      29A      1.654195    30A      1.859030    29B      2.147942  
      31A      2.148075    30B      2.159025    32A      2.572361  
      31B      2.692308    32B      2.738295    33A      2.738319  
      34A      2.785200    33B      2.852475    35A      2.852516  
      34B      2.870521    36A      2.870563    37A      2.966385  
      38A      3.002561    35B      3.002615    36B      3.072219  
      39A      3.102675    37B      3.102833    38B      3.109157  
      40A      3.111272    41A      3.135473    39B      3.290176  
      42A      3.290189    43A      3.311422    40B      3.312500  
      41B      3.384925    42B      3.430378    44A      3.430431  
      45A      3.564826    43B      3.609007    44B      3.808988  
      46A      3.940199    45B      3.994909    47A      3.995002  
      46B      4.012623    48A      4.101787    47B      4.101857  
      48B      4.176282    49A      4.229296    50A      4.318435  
      51A      4.369823    49B      4.381726    50B      4.421999  
      52A      4.441787    51B      4.441846    52B      4.928205  
      53A      4.928294    54A      5.202609    53B      5.221033  
      55A      5.222234    54B      5.247792    56A      6.013382  

    Final Occupation by Irrep:
              A     B 
    DOCC [     6,    5 ]

  @DF-RKS Final Energy:  -116.66711204433676

   => Energetics <=

    Nuclear Repulsion Energy =             59.0064782488014004
    One-Electron Energy =                -272.1736519241687802
    Two-Electron Energy =                 110.8315314542840753
    DFT Exchange-Correlation Energy =     -14.3314698232534354
    Empirical Dispersion Energy =           0.0000000000000000
    VV10 Nonlocal Energy =                  0.0000000000000000
    Total Energy =                       -116.6671120443367613

Computation Completed


Properties will be evaluated at   0.000000,   0.000000,   0.000000 [a0]

Properties computed using the SCF density matrix

  Nuclear Dipole Moment: [e a0]
     X:     0.0000      Y:    -0.0000      Z:     0.0023

  Electronic Dipole Moment: [e a0]
     X:     0.0000      Y:     0.0000      Z:    -0.0033

  Dipole Moment: [e a0]
     X:     0.0000      Y:    -0.0000      Z:    -0.0011     Total:     0.0011

  Dipole Moment: [D]
     X:     0.0000      Y:    -0.0000      Z:    -0.0027     Total:     0.0027


*** tstop() called on n032 at Fri Sep  3 15:39:24 2021
Module time:
	user time   =      20.83 seconds =       0.35 minutes
	system time =       0.25 seconds =       0.00 minutes
	total time  =         21 seconds =       0.35 minutes
Total time:
	user time   =      20.83 seconds =       0.35 minutes
	system time =       0.25 seconds =       0.00 minutes
	total time  =         21 seconds =       0.35 minutes
Grab this energy -116.66711204433676
    Psi4 stopped on: Friday, 03 September 2021 03:39PM
    Psi4 wall time for execution: 0:00:21.11

*** Psi4 exiting successfully. Buy a developer a beer!
