
    -----------------------------------------------------------------------
          Psi4: An Open-Source Ab Initio Electronic Structure Package
                               Psi4 1.4a2.dev629 

                         Git: Rev {master} 2938fc2 dirty


    D. G. A. Smith, L. A. Burns, A. C. Simmonett, R. M. Parrish,
    M. C. Schieber, R. Galvelis, P. Kraus, H. Kruse, R. Di Remigio,
    A. Alenaizan, A. M. James, S. Lehtola, J. P. Misiewicz, M. Scheurer,
    R. A. Shaw, J. B. Schriber, Y. Xie, Z. L. Glick, D. A. Sirianni,
    J. S. O'Brien, J. M. Waldrop, A. Kumar, E. G. Hohenstein,
    B. P. Pritchard, B. R. Brooks, H. F. Schaefer III, A. Yu. Sokolov,
    K. Patkowski, A. E. DePrince III, U. Bozkaya, R. A. King,
    F. A. Evangelista, J. M. Turney, T. D. Crawford, C. D. Sherrill,
    J. Chem. Phys. 152(18) 184108 (2020). https://doi.org/10.1063/5.0006002

                            Additional Code Authors
    E. T. Seidl, C. L. Janssen, E. F. Valeev, M. L. Leininger,
    J. F. Gonthier, R. M. Richard, H. R. McAlexander, M. Saitow, X. Wang,
    P. Verma, and M. H. Lechner

             Previous Authors, Complete List of Code Contributors,
                       and Citations for Specific Modules
    https://github.com/psi4/psi4/blob/master/codemeta.json
    https://github.com/psi4/psi4/graphs/contributors
    http://psicode.org/psi4manual/master/introduction.html#citing-psifour

    -----------------------------------------------------------------------


    Psi4 started on: Friday, 03 September 2021 03:49PM

    Process ID: 19278
    Host:       n089
    PSIDATADIR: /opt/psi/4/master/share/psi4
    Memory:     500.0 MiB
    Threads:    1
    
  ==> Input File <==

--------------------------------------------------------------------------
import os
memory 14 GB 
 
molecule {
 X   -1.4211604610   -1.4072666590    0.0000000000
 C    0.0000000000    0.0082936132    0.0000000000
 X    1.4211604610   -1.4072666590   -0.0000000000
 C    0.0026048899   -0.0003046164   -2.4817724786
 H   -1.2407647526   -1.2468030334   -3.5252221067
 H    1.2442392995    1.2360139423   -3.5403107941
 C   -0.0026048899   -0.0003046164    2.4817724786
 H    1.2407647526   -1.2468030334    3.5252221067
 H   -1.2442392995    1.2360139423    3.5403107941
units bohr
}

basis {

assign 6-31g_2dfp_

[ 6-31g_2dfp_ ]
spherical

!----------------------------------------------------------------------
! Basis Set Exchange
! Version v0.8.13
! https://www.basissetexchange.org
!----------------------------------------------------------------------
!   Basis set: 6-31G(2df,p)
! Description: 6-31G(2df,p)
!        Role: orbital
!     Version: 0  (Data from the original Basis Set Exchange)
!----------------------------------------------------------------------


****
H     0
S    3   1.00
     18.7311370              0.03349460
      2.8253937              0.23472695
      0.6401217              0.81375733
S    1   1.00
      0.1612778              1.00000000
P    1   1.00
      1.5000000              1.0000000
P    1   1.00
      0.3750000              1.0000000
****
C     0
S    6   1.00
   3047.5249000              0.0018347
    457.3695100              0.0140373
    103.9486900              0.0688426
     29.2101550              0.2321844
      9.2866630              0.4679413
      3.1639270              0.3623120
SP   3   1.00
      7.8682724             -0.1193324              0.0689991
      1.8812885             -0.1608542              0.3164240
      0.5442493              1.1434564              0.7443083
SP   1   1.00
      0.1687144              1.0000000              1.0000000
D    1   1.00
      1.2520000              1.0000000
D    1   1.00
      0.3130000              1.0000000
F    1   1.00
      0.8000000              1.0000000
****
}


set {
opt_type min                            
reference rhf                          
freeze_core true
e_convergence 10                       
d_convergence 10                      
ensure_bt_convergence true           
dft_spherical_points 590
dft_radial_points 99
}

e = energy('b3lyp')

print_out('Grab this energy {0}'.format(e))
--------------------------------------------------------------------------

  Memory set to  13.039 GiB by Python driver.

Scratch directory: /tmp/

*** tstart() called on n089
*** at Fri Sep  3 15:49:02 2021

   => Loading Basis Set <=

    Name: ANONYMOUSE7E5EBD5
    Role: ORBITAL
    Keyword: BASIS
    atoms 1-2, 5   entry C          line    27 inputblock 6-31g_2dfp_ 
    atoms 3-4, 6-7 entry H          line    15 inputblock 6-31g_2dfp_ 


         ---------------------------------------------------------
                                   SCF
               by Justin Turney, Rob Parrish, Andy Simmonett
                          and Daniel G. A. Smith
                              RKS Reference
                        1 Threads,  13351 MiB Core
         ---------------------------------------------------------

  ==> Geometry <==

    Molecular point group: c2
    Full point group: C2

    Geometry (in Bohr), charge = 0, multiplicity = 1:

       Center              X                  Y                   Z               Mass       
    ------------   -----------------  -----------------  -----------------  -----------------
         C            0.000000000000     0.000000000000     0.006533352294    12.000000000000
         C           -0.002604889900    -2.481772478600    -0.002064877306    12.000000000000
         H            1.240764752600    -3.525222106700    -1.248563294306     1.007825032230
         H           -1.244239299500    -3.540310794100     1.234253681394     1.007825032230
         C            0.002604889900     2.481772478600    -0.002064877306    12.000000000000
         H           -1.240764752600     3.525222106700    -1.248563294306     1.007825032230
         H            1.244239299500     3.540310794100     1.234253681394     1.007825032230

  Running in c2 symmetry.

  Rotational constants: A =      4.84040  B =      0.29460  C =      0.29458 [cm^-1]
  Rotational constants: A = 145111.44451  B =   8831.74886  C =   8831.31421 [MHz]
  Nuclear repulsion =   59.006504630423393

  Charge       = 0
  Multiplicity = 1
  Electrons    = 22
  Nalpha       = 11
  Nbeta        = 11

  ==> Algorithm <==

  SCF Algorithm Type is DF.
  DIIS enabled.
  MOM disabled.
  Fractional occupation disabled.
  Guess Type is SAD.
  Energy threshold   = 1.00e-10
  Density threshold  = 1.00e-10
  Integral threshold = 0.00e+00

  ==> Primary Basis <==

  Basis Set: ANONYMOUSE7E5EBD5
    Blend: 6-31G_2DFP_
    Number of shells: 40
    Number of basis function: 110
    Number of Cartesian functions: 125
    Spherical Harmonics?: true
    Max angular momentum: 3

  ==> DFT Potential <==

   => Composite Functional: B3LYP <= 

    B3LYP Hyb-GGA Exchange-Correlation Functional

    P. J. Stephens, F. J. Devlin, C. F. Chabalowski, and M. J. Frisch, J. Phys. Chem. 98, 11623 (1994)

    Deriv               =              1
    GGA                 =           TRUE
    Meta                =          FALSE

    Exchange Hybrid     =           TRUE
    MP2 Hybrid          =          FALSE

   => Exchange Functionals <=

    0.0800   Slater exchange
    0.7200         Becke 88

   => Exact (HF) Exchange <=

    0.2000               HF 

   => Correlation Functionals <=

    0.1900   Vosko, Wilk & Nusair (VWN5_RPA)
    0.8100   Lee, Yang & Parr

   => Molecular Quadrature <=

    Radial Scheme          =       TREUTLER
    Pruning Scheme         =           NONE
    Nuclear Scheme         =       TREUTLER

    BS radius alpha        =              1
    Pruning alpha          =              1
    Radial Points          =             99
    Spherical Points       =            590
    Total Points           =         387194
    Total Blocks           =           2780
    Max Points             =            256
    Max Functions          =            110
    Weights Tolerance      =       1.00E-15

   => Loading Basis Set <=

    Name: (ANONYMOUSE7E5EBD5 AUX)
    Role: JKFIT
    Keyword: DF_BASIS_SCF
    atoms 1-2, 5   entry C          line   198 file /opt/psi/4/master/share/psi4/basis/def2-universal-jkfit.gbs 
    atoms 3-4, 6-7 entry H          line    18 file /opt/psi/4/master/share/psi4/basis/def2-universal-jkfit.gbs 

  ==> Integral Setup <==

  DFHelper Memory: AOs need 0.030 GiB; user supplied 8.715 GiB. Using in-core AOs.

  ==> MemDFJK: Density-Fitted J/K Matrices <==

    J tasked:                   Yes
    K tasked:                   Yes
    wK tasked:                   No
    OpenMP threads:               1
    Memory [MiB]:              8924
    Algorithm:                 Core
    Schwarz Cutoff:           1E-12
    Mask sparsity (%):       0.8099
    Fitting Condition:        1E-10

   => Auxiliary Basis Set <=

  Basis Set: (ANONYMOUSE7E5EBD5 AUX)
    Blend: DEF2-UNIVERSAL-JKFIT
    Number of shells: 99
    Number of basis function: 297
    Number of Cartesian functions: 347
    Spherical Harmonics?: true
    Max angular momentum: 4

  Cached 100.0% of DFT collocation blocks in 1.064 [GiB].

  Minimum eigenvalue in the overlap matrix is 6.2165852630E-04.
  Reciprocal condition number of the overlap matrix is 1.2802166403E-04.
    Using symmetric orthogonalization.

  ==> Pre-Iterations <==

  SCF Guess: Superposition of Atomic Densities via on-the-fly atomic UHF (no occupation information).

   -------------------------
    Irrep   Nso     Nmo    
   -------------------------
     A         56      56 
     B         54      54 
   -------------------------
    Total     110     110
   -------------------------

  ==> Iterations <==

                           Total Energy        Delta E     RMS |[F,P]|

   @DF-RKS iter SAD:  -116.06768309580909   -1.16068e+02   0.00000e+00 
   @DF-RKS iter   1:  -116.45326935859373   -3.85586e-01   7.90273e-03 DIIS
   @DF-RKS iter   2:  -116.47268824435189   -1.94189e-02   7.45171e-03 DIIS
   @DF-RKS iter   3:  -116.66668642482324   -1.93998e-01   3.50789e-04 DIIS
   @DF-RKS iter   4:  -116.66645864834847    2.27776e-04   4.60016e-04 DIIS
   @DF-RKS iter   5:  -116.66711903857046   -6.60390e-04   1.48180e-05 DIIS
   @DF-RKS iter   6:  -116.66711969165453   -6.53084e-07   2.80544e-06 DIIS
   @DF-RKS iter   7:  -116.66711971723872   -2.55842e-08   3.70169e-07 DIIS
   @DF-RKS iter   8:  -116.66711971761293   -3.74214e-10   4.83891e-08 DIIS
   @DF-RKS iter   9:  -116.66711971761930   -6.36646e-12   1.61250e-08 DIIS
   @DF-RKS iter  10:  -116.66711971762027   -9.66338e-13   1.89637e-09 DIIS
   @DF-RKS iter  11:  -116.66711971762032   -5.68434e-14   2.19025e-10 DIIS
   @DF-RKS iter  12:  -116.66711971762042   -9.94760e-14   9.92807e-12 DIIS
  Energy and wave function converged.


  ==> Post-Iterations <==

    Orbital Energies [Eh]
    ---------------------

    Doubly Occupied:                                                      

       1A    -10.201509     2A    -10.184656     1B    -10.184627  
       3A     -0.784870     2B     -0.699877     4A     -0.519287  
       3B     -0.446530     4B     -0.440968     5A     -0.440938  
       6A     -0.263528     5B     -0.263433  

    Virtual:                                                              

       6B      0.017547     7A      0.017662     8A      0.111325  
       7B      0.127022     9A      0.194795     8B      0.194817  
      10A      0.279518     9B      0.295283    11A      0.382090  
      12A      0.454126    10B      0.480018    13A      0.480033  
      11B      0.481158    14A      0.491637    15A      0.560353  
      12B      0.560439    13B      0.563322    14B      0.594367  
      16A      0.594440    15B      0.616619    17A      0.677696  
      16B      0.693139    18A      0.717063    17B      0.717094  
      19A      0.776835    20A      0.849921    18B      0.912023  
      21A      0.912116    22A      0.997222    19B      0.997241  
      20B      1.005551    21B      1.055604    23A      1.068890  
      22B      1.102549    23B      1.156204    24A      1.156220  
      24B      1.201442    25A      1.295302    25B      1.295533  
      26A      1.369826    27A      1.439008    26B      1.579608  
      28A      1.579683    27B      1.594004    28B      1.621075  
      29A      1.654189    30A      1.859039    29B      2.147814  
      31A      2.148100    30B      2.158997    32A      2.572412  
      31B      2.692316    32B      2.738264    33A      2.738351  
      34A      2.785170    33B      2.852432    35A      2.852591  
      34B      2.870507    36A      2.870598    37A      2.966378  
      38A      3.002519    35B      3.002658    36B      3.072225  
      39A      3.102734    37B      3.102831    38B      3.109205  
      40A      3.111161    41A      3.135499    39B      3.290083  
      42A      3.290267    43A      3.311364    40B      3.312546  
      41B      3.384857    42B      3.430361    44A      3.430535  
      45A      3.564829    43B      3.609007    44B      3.808990  
      46A      3.940171    47A      3.994872    45B      3.995110  
      46B      4.012532    48A      4.101798    47B      4.101934  
      48B      4.176318    49A      4.229220    50A      4.318384  
      51A      4.369836    49B      4.381744    50B      4.422102  
      51B      4.441590    52A      4.441911    52B      4.928102  
      53A      4.928390    54A      5.203249    55A      5.221537  
      53B      5.221636    54B      5.247219    56A      6.013361  

    Final Occupation by Irrep:
              A     B 
    DOCC [     6,    5 ]

  @DF-RKS Final Energy:  -116.66711971762042

   => Energetics <=

    Nuclear Repulsion Energy =             59.0065046304233931
    One-Electron Energy =                -272.1737398664234888
    Two-Electron Energy =                 110.8315827146932122
    DFT Exchange-Correlation Energy =     -14.3314671963135378
    Empirical Dispersion Energy =           0.0000000000000000
    VV10 Nonlocal Energy =                  0.0000000000000000
    Total Energy =                       -116.6671197176204231

Computation Completed


Properties will be evaluated at   0.000000,   0.000000,   0.000000 [a0]

Properties computed using the SCF density matrix

  Nuclear Dipole Moment: [e a0]
     X:     0.0000      Y:    -0.0000      Z:    -0.0142

  Electronic Dipole Moment: [e a0]
     X:     0.0000      Y:     0.0000      Z:     0.0122

  Dipole Moment: [e a0]
     X:     0.0000      Y:    -0.0000      Z:    -0.0020     Total:     0.0020

  Dipole Moment: [D]
     X:     0.0000      Y:    -0.0000      Z:    -0.0050     Total:     0.0050


*** tstop() called on n089 at Fri Sep  3 15:49:17 2021
Module time:
	user time   =      15.31 seconds =       0.26 minutes
	system time =       0.28 seconds =       0.00 minutes
	total time  =         15 seconds =       0.25 minutes
Total time:
	user time   =      15.31 seconds =       0.26 minutes
	system time =       0.28 seconds =       0.00 minutes
	total time  =         15 seconds =       0.25 minutes
Grab this energy -116.66711971762042
    Psi4 stopped on: Friday, 03 September 2021 03:49PM
    Psi4 wall time for execution: 0:00:15.62

*** Psi4 exiting successfully. Buy a developer a beer!
