
 Primary working directories    : /tmp/943168.451.gen4.q
 Secondary working directories  : /tmp/943168.451.gen4.q
 Wavefunction directory         : /home/vulcan/mel64643/wfu/
 Main file repository           : /tmp/943168.451.gen4.q/

 ARCHNAME  : Linux/x86_64
 FC        : /opt/intel/compilers_and_libraries_2016.1.150/linux/bin/intel64/ifort
 FCVERSION : 16.0.1
 BLASLIB   : -mkl
 id        : ccgc

 Nodes     nprocs
 n066         1
 ga_uses_ma=false, calling ma_init with nominal heap.
 GA-space will be limited to   8.0 MW (determined by -G option)

 Using customized tuning parameters: mindgm=10; mindgv=16; mindgc=4; mindgr=1; noblas=0; mincuda=1000; minvec=7
 default implementation of scratch files=df  

 ***,Optimization of h2o_2
 memory,1000,m
 gthresh,energy=1.0d-12,orbital=1.0d-10,oneint=1.0d-16,twoint=1.0d-16,optgrad=1.0d-6,compress=1.0d-13
 geomtyp=xyz
 
 bohr
 geometry = {
  C   -0.0005036254   -3.4214302991   -0.0018283703
  H   -0.9651725986   -2.7052130317   -1.6749996341
  H   -0.9578358313   -2.7319674240    1.6867247510
  H    1.9449430091   -2.7445269298    0.0077425672
  H   -0.0140241634   -5.4811823757   -0.0097925852
  C   -0.0027047099    3.4220671875   -0.0036480819
  H   -0.0145755386    5.4818422794   -0.0068952402
  H    0.9780313469    2.7297760613   -1.6775493537
  H    0.9694733996    2.7350156758    1.6773889882
  H   -1.9376312884    2.7156188562    0.0028569591
 }
 
 basis=AVDZ
 {rhf;maxit,200}
 {ccsd(t);maxit,200}

 Variables initialized (661), CPU time= 0.01 sec
 Commands  initialized (458), CPU time= 0.00 sec, 486 directives.
 Default parameters read. Elapsed time= 0.05 sec

 Checking input...
 Passed
1


                                         ***  PROGRAM SYSTEM MOLPRO  ***
                         Copyright, University College Cardiff Consultants Limited, 2008

                                    Version 2010.1 linked May 16 2016 07:17:05


 **********************************************************************************************************************************
 LABEL *   Optimization of h2o_2                                                         
 Linux-4.4.3/n066(x86_64) 64 bit mpp version                                             DATE: 23-Oct-23          TIME: 11:09:19  
 **********************************************************************************************************************************

 SHA1:             9e8077add272b0f3cad6f7df79ec5211205f459d
 **********************************************************************************************************************************

 THRESHOLDS:

 ZERO    =  1.00D-12  ONEINT  =  1.00D-16  TWOINT  =  1.00D-16  PREFAC  =  1.00D-14  LOCALI  =  1.00D-09  EORDER  =  1.00D-04
 ENERGY  =  1.00D-12  ETEST   =  0.00D+00  EDENS   =  0.00D+00  THRDEDEF=  1.00D-06  GRADIENT=  1.00D-02  STEP    =  1.00D-03
 ORBITAL =  1.00D-10  CIVEC   =  1.00D-05  COEFF   =  1.00D-04  PRINTCI =  5.00D-02  PUNCHCI =  9.90D+01  OPTGRAD =  1.00D-06
 OPTENERG=  1.00D-06  OPTSTEP =  3.00D-04  THRGRAD =  1.00D-10  COMPRESS=  1.00D-13  VARMIN  =  1.00D-07  VARMAX  =  1.00D-03
 THRDOUB =  0.00D+00  THRDIV  =  1.00D-05  THRRED  =  1.00D-07  THRPSP  =  1.00D+00  THRDC   =  1.00D-10  THRCS   =  1.00D-10
 THRNRM  =  1.00D-08  THREQ   =  0.00D+00  THRDE   =  1.00D+00  THRREF  =  1.00D-05  SPARFAC =  1.00D+00  THRDLP  =  1.00D-07
 THRDIA  =  1.00D-10  THRDLS  =  1.00D-07  THRGPS  =  0.00D+00  THRKEX  =  0.00D+00  THRDIS  =  2.00D-01  THRVAR  =  1.00D-10
 THRLOC  =  1.00D-06  THRGAP  =  1.00D-06  THRLOCT = -1.00D+00  THRGAPT = -1.00D+00  THRORB  =  1.00D-06  THRMLTP =  0.00D+00
 THRCPQCI=  1.00D-10  KEXTA   =  0.00D+00  THRCOARS=  0.00D+00  SYMTOL  =  1.00D-06  GRADTOL =  1.00D-06  THROVL  =  1.00D-08
 THRORTH =  1.00D-08  GRID    =  1.00D-06  GRIDMAX =  1.00D-03  DTMAX   =  0.00D+00

 SETTING GEOMTYP        =    XYZ
 ZUNIT=BOHR
 

 Variable memory set to 1000000000 words,  buffer space   230000 words

 SETTING BASIS          =    AVDZ


 Recomputing integrals since basis changed


 Using spherical harmonics

 Library entry C      S aug-cc-pVDZ          selected for orbital group  1
 Library entry C      P aug-cc-pVDZ          selected for orbital group  1
 Library entry C      D aug-cc-pVDZ          selected for orbital group  1
 Library entry H      S aug-cc-pVDZ          selected for orbital group  2
 Library entry H      P aug-cc-pVDZ          selected for orbital group  2

1PROGRAM * SEWARD (Integral evaluation for generally contracted gaussian basis sets)     Author: Roland Lindh, 1990

 Geometry written to block  1 of record 700


 Point group  C1  



 ATOMIC COORDINATES

 NR  ATOM    CHARGE       X              Y              Z

   1  C       6.00   -0.000503625   -3.421430299   -0.001828370
   2  H       1.00   -0.965172599   -2.705213032   -1.674999634
   3  H       1.00   -0.957835831   -2.731967424    1.686724751
   4  H       1.00    1.944943009   -2.744526930    0.007742567
   5  H       1.00   -0.014024163   -5.481182376   -0.009792585
   6  C       6.00   -0.002704710    3.422067188   -0.003648082
   7  H       1.00   -0.014575539    5.481842279   -0.006895240
   8  H       1.00    0.978031347    2.729776061   -1.677549354
   9  H       1.00    0.969473400    2.735015676    1.677388988
  10  H       1.00   -1.937631288    2.715618856    0.002856959

 Bond lengths in Bohr (Angstrom)

 1-2  2.059867831  1-3  2.059867872  1-4  2.059867079  1-5  2.059811848  6-7  2.059811858
     ( 1.090035110)     ( 1.090035132)     ( 1.090034712)     ( 1.090005485)     ( 1.090005490)

  6- 8  2.059867880   6- 9  2.059867881   6-10  2.059867089
       ( 1.090035136)       ( 1.090035136)       ( 1.090034717)

 Bond angles

  2-1-3  109.37919304   2-1-4  109.37907593   2-1-5  109.96681730   3-1-4  108.97393362

  3-1-5  109.56167412   4-1-5  109.56176636   7-6-8  109.72719280   7-6-9  109.72719278

  7- 6-10  109.72728494   8- 6- 9  109.04851406   8- 6-10  109.54459445   9- 6-10  109.04839815

 NUCLEAR CHARGE:                   20
 NUMBER OF PRIMITIVE AOS:         162
 NUMBER OF SYMMETRY AOS:          158
 NUMBER OF CONTRACTIONS:          118   ( 118A   )
 NUMBER OF CORE ORBITALS:           2   (   2A   )
 NUMBER OF VALENCE ORBITALS:       16   (  16A   )


 NUCLEAR REPULSION ENERGY   41.34959840


 Eigenvalues of metric

         1 0.371E-03 0.569E-03 0.571E-03 0.612E-03 0.726E-03 0.727E-03 0.778E-03 0.101E-02


 Contracted 2-electron integrals neglected if value below      1.0D-16
 AO integral compression algorithm  1   Integral accuracy      1.0D-16

     213.910 MB (compressed) written to integral file ( 93.5%)

     Node minimum: 213.910 MB, node maximum: 213.910 MB


 NUMBER OF SORTED TWO-ELECTRON INTEGRALS:   24650731.     BUFFER LENGTH:  32768
 NUMBER OF SEGMENTS:   2  SEGMENT LENGTH:   15997996      RECORD LENGTH: 524288

 Memory used in sort:      16.56 MW

 SORT1 READ    28594353. AND WROTE    24462381. INTEGRALS IN     71 RECORDS. CPU TIME:     0.27 SEC, REAL TIME:     0.41 SEC
 SORT2 READ    24462381. AND WROTE    24650731. INTEGRALS IN    816 RECORDS. CPU TIME:     0.23 SEC, REAL TIME:     0.33 SEC

 FILE SIZES:   FILE 1:   190.5 MBYTE,  FILE 4:   297.8 MBYTE,   TOTAL:    488.4 MBYTE

 OPERATOR DM      FOR CENTER  0  COORDINATES:    0.000000    0.000000    0.000000


 **********************************************************************************************************************************
 DATASETS  * FILE   NREC   LENGTH (MB)   RECORD NAMES
              1      19      190.70       500      610      700      900      950      970     1000      129      960     1100   
                                          VAR    BASINP    GEOM    SYMINP    ZMAT    AOBASIS   BASIS     P2S    ABASIS      S 
                                         1400     1410     1200     1210     1080     1600     1650     1300     1700   
                                           T        V       H0       H01     AOSYM     SMH    MOLCAS    ERIS     OPER   

 PROGRAMS   *        TOTAL       INT
 CPU TIMES  *         1.61      1.56
 REAL TIME  *         2.15 SEC
 DISK USED  *       703.05 MB      
 GA USED    *         0.00 MB       (max)       0.00 MB       (current)
 **********************************************************************************************************************************

1PROGRAM * RHF-SCF (CLOSED SHELL)       Authors: W. Meyer, H.-J. Werner


 NUMBER OF ELECTRONS:      10+   10-    SPACE SYMMETRY=1    SPIN SYMMETRY: Singlet 
 CONVERGENCE THRESHOLDS:    1.00E-10 (Density)    1.00E-13 (Energy)
 MAX. NUMBER OF ITERATIONS:      200
 INTERPOLATION TYPE:            DIIS
 INTERPOLATION STEPS:              2 (START)      1 (STEP)
 LEVEL SHIFTS:                  0.00 (CLOSED)  0.00 (OPEN) 



 Orbital guess generated from atomic densities. Full valence occupancy:   18

 Molecular orbital dump at record        2100.2

 ITERATION    DDIFF          GRAD             ENERGY        2-EL.EN.            DIPOLE MOMENTS         DIIS
    1      0.000D+00      0.000D+00       -80.36232074    134.806245    0.00248   -0.00050    0.00419    0
    2      0.000D+00      0.368D-02       -80.39420962    132.503638    0.00084   -0.00020    0.00123    1
    3      0.809D-02      0.137D-02       -80.39818271    133.330398    0.00111   -0.00024    0.00180    2
    4      0.256D-02      0.371D-03       -80.39876953    133.199710    0.00095   -0.00021    0.00156    3
    5      0.868D-03      0.458D-04       -80.39877826    133.206615    0.00093   -0.00021    0.00154    4
    6      0.877D-04      0.295D-05       -80.39877830    133.206450    0.00093   -0.00021    0.00154    5
    7      0.107D-04      0.222D-06       -80.39877830    133.206433    0.00093   -0.00021    0.00154    5
    8      0.155D-05      0.349D-07       -80.39877830    133.206433    0.00093   -0.00021    0.00154    4
    9      0.291D-06      0.565D-08       -80.39877830    133.206434    0.00093   -0.00021    0.00154    4
   10      0.191D-07      0.800D-09       -80.39877830    133.206434    0.00093   -0.00021    0.00154    5
   11      0.191D-08      0.199D-09       -80.39877830    133.206434    0.00093   -0.00021    0.00154    5
   12      0.106D-08      0.591D-10       -80.39877830    133.206434    0.00093   -0.00021    0.00154    6
   13      0.195D-09      0.113D-10       -80.39877830    133.206434    0.00093   -0.00021    0.00154    6
   14      0.346D-10      0.246D-11       -80.39877830    133.206434    0.00093   -0.00021    0.00154    6
   15      0.110D-10      0.375D-12       -80.39877830    133.206434    0.00093   -0.00021    0.00154    6
   16      0.195D-11      0.106D-12       -80.39877830    133.206434    0.00093   -0.00021    0.00154    6
   17      0.986D-12      0.597D-13       -80.39877830    133.206434    0.00093   -0.00021    0.00154    7
   18      0.927D-12      0.476D-13       -80.39877830    133.206434    0.00093   -0.00021    0.00154    7
   19      0.560D-12      0.372D-13       -80.39877830    133.206434    0.00093   -0.00021    0.00154    8
   20      0.425D-12      0.335D-13       -80.39877830    133.206434    0.00093   -0.00021    0.00154    9
   21      0.294D-12      0.258D-13       -80.39877830    133.206434    0.00093   -0.00021    0.00154    9
   22      0.255D-12      0.335D-13       -80.39877830    133.206434    0.00093   -0.00021    0.00154    9
   23      0.114D-12      0.369D-13       -80.39877830    133.206434    0.00093   -0.00021    0.00154    0

 Final occupancy:  10

 !RHF STATE 1.1 Energy                -80.398778303819
 Nuclear energy                        41.34959840
 One-electron energy                 -188.35159354
 Two-electron energy                   66.60321683
 Virial quotient                       -1.00196170
 !RHF STATE 1.1 Dipole moment           0.00092622    -0.00020999     0.00153620
 Dipole moment /Debye                   0.00235407    -0.00053371     0.00390438

 Orbital energies:

         1.1          2.1          3.1          4.1          5.1          6.1          7.1          8.1          9.1         10.1
    -11.214682   -11.214674    -0.945638    -0.939630    -0.551547    -0.546373    -0.546309    -0.538803    -0.538634    -0.536291

        11.1         12.1
      0.035480     0.045873


 **********************************************************************************************************************************
 DATASETS  * FILE   NREC   LENGTH (MB)   RECORD NAMES
              1      19      190.70       500      610      700      900      950      970     1000      129      960     1100   
                                          VAR    BASINP    GEOM    SYMINP    ZMAT    AOBASIS   BASIS     P2S    ABASIS      S 
                                         1400     1410     1200     1210     1080     1600     1650     1300     1700   
                                           T        V       H0       H01     AOSYM     SMH    MOLCAS    ERIS     OPER   

              2       3        0.70       700     1000     2100   
                                         GEOM     BASIS     RHF  

 PROGRAMS   *        TOTAL       RHF       INT
 CPU TIMES  *         5.90      4.29      1.56
 REAL TIME  *         6.99 SEC
 DISK USED  *       703.05 MB      
 GA USED    *         0.00 MB       (max)       0.00 MB       (current)
 **********************************************************************************************************************************


1PROGRAM * CCSD (Closed-shell coupled cluster)     Authors: C. Hampel, H.-J. Werner, 1991, M. Deegan, P.J. Knowles, 1992


 Convergence thresholds:  THRVAR = 1.00D-08  THRDEN = 1.00D-12

 CCSD(T)     terms to be evaluated (factor= 1.000)


 Number of core orbitals:           2 (   2 )
 Number of closed-shell orbitals:   8 (   8 )
 Number of external orbitals:     108 ( 108 )

 Molecular orbitals read from record     2100.2  Type=RHF/CANONICAL (state 1.1)

 Number of N-1 electron functions:               8
 Number of N-2 electron functions:              36
 Number of singly external CSFs:               864
 Number of doubly external CSFs:            373680
 Total number of CSFs:                      374545

 Length of J-op  integral file:               0.00 MB
 Length of K-op  integral file:               1.00 MB
 Length of 3-ext integral record:             0.00 MB

 Memory could be reduced to 14.62 Mwords without degradation in triples

 Integral transformation finished. Total CPU:   0.71 sec, npass=  1  Memory used:   8.61 MW

 Reference energy:                    -80.39877830

 MP2 singlet pair energy:              -0.24106905
 MP2 triplet pair energy:              -0.09676590
 MP2 correlation energy:               -0.33783494
 MP2 total energy:                    -80.73661325

 SCS-MP2 correlation energy:           -0.34949275   (PS=  1.200000  PT=  0.333333)
 SCS-MP2 total energy:                -80.74827105

 ITER.      SQ.NORM     CORR.ENERGY   TOTAL ENERGY   ENERGY CHANGE        DEN1      VAR(S)    VAR(P)  DIIS     TIME
   1      1.14044362    -0.38148586   -80.78026416    -0.04365092    -0.03251832  0.70D-03  0.24D-02  1  1     1.55
   2      1.15349382    -0.38424139   -80.78301969    -0.00275553    -0.01269474  0.16D-04  0.11D-03  2  2     2.45
   3      1.15560584    -0.38437413   -80.78315243    -0.00013274    -0.00112998  0.25D-05  0.71D-05  3  3     3.35
   4      1.15605289    -0.38439229   -80.78317059    -0.00001816    -0.00017665  0.10D-06  0.45D-06  4  4     4.25
   5      1.15612396    -0.38438898   -80.78316728     0.00000331    -0.00003214  0.39D-08  0.31D-07  5  5     5.15
   6      1.15612786    -0.38438797   -80.78316628     0.00000101    -0.00000143  0.28D-09  0.20D-08  6  6     6.06
   7      1.15612825    -0.38438819   -80.78316650    -0.00000022    -0.00000002  0.24D-10  0.13D-09  6  1     6.97
   8      1.15612832    -0.38438821   -80.78316651    -0.00000002    -0.00000007  0.24D-11  0.96D-11  6  2     7.87
   9      1.15612826    -0.38438821   -80.78316652    -0.00000000     0.00000003  0.45D-12  0.75D-12  6  3     8.78
  10      1.15612822    -0.38438821   -80.78316652    -0.00000000     0.00000002  0.35D-13  0.66D-13  6  4     9.69
  11      1.15612819    -0.38438822   -80.78316652    -0.00000000     0.00000002  0.33D-14  0.72D-14  6  5    10.59
  12      1.15612818    -0.38438822   -80.78316652    -0.00000000     0.00000001  0.28D-15  0.85D-15  6  6    11.50
  13      1.15612818    -0.38438822   -80.78316652    -0.00000000     0.00000000  0.22D-16  0.10D-15  6  1    12.41
  14      1.15612818    -0.38438822   -80.78316652    -0.00000000     0.00000000  0.26D-17  0.11D-16  6  3    13.31
  15      1.15612818    -0.38438822   -80.78316652    -0.00000000     0.00000000  0.20D-18  0.60D-18  6  2    14.21
  16      1.15612818    -0.38438822   -80.78316652    -0.00000000     0.00000000  0.26D-19  0.47D-19  6  4    15.11
  17      1.15612818    -0.38438822   -80.78316652    -0.00000000     0.00000000  0.32D-20  0.59D-20  6  5    16.02
  18      1.15612818    -0.38438822   -80.78316652    -0.00000000     0.00000000  0.36D-21  0.50D-21  6  6    16.93

 Norm of t1 vector:      0.03916662      S-energy:     0.00000000      T1 diagnostic:  0.00692375
                                                                       D1 diagnostic:  0.01253022


 Total CPU time for triples:     10.75 sec


 RESULTS
 =======

  Reference energy                    -80.398778303820
  CCSD singlet pair energy             -0.290159240359
  CCSD triplet pair energy             -0.094228975788
  CCSD correlation energy              -0.384388216147

  Triples (T) contribution             -0.009220818033
  Total correlation energy             -0.393609034181

  CCSD total energy                   -80.783166519967
  CCSD[T] energy                      -80.792608262082
  CCSD-T energy                       -80.792270097078
 !CCSD(T) total energy                -80.792387338000

 Timing summary (sec):

 STEP                 CPU(USER)    SYS     CPU(TOT)    WALL
 Transformation          0.73      0.09      0.82      0.82
 CCSD iterations        16.20      0.79     16.99     17.06
 Triples                10.75      0.18     10.93     10.94

 Program statistics:

 Available memory in ccsd:               999999644
 Min. memory needed in ccsd:               1156281
 Max. memory used in ccsd:                 1468601
 Max. memory used in cckext:               1135046 (18 integral passes)



 **********************************************************************************************************************************
 DATASETS  * FILE   NREC   LENGTH (MB)   RECORD NAMES
              1      20      237.67       500      610      700      900      950      970     1000      129      960     1100   
                                          VAR    BASINP    GEOM    SYMINP    ZMAT    AOBASIS   BASIS     P2S    ABASIS      S 
                                         1400     1410     1200     1210     1080     1600     1650     1300     1700     1380   
                                           T        V       H0       H01     AOSYM     SMH    MOLCAS    ERIS     OPER     JKOP   

              2       3        0.70       700     1000     2100   
                                         GEOM     BASIS     RHF  

 PROGRAMS   *        TOTAL   CCSD(T)       RHF       INT
 CPU TIMES  *        33.60     27.69      4.29      1.56
 REAL TIME  *        35.85 SEC
 DISK USED  *       703.05 MB      
 GA USED    *         0.00 MB       (max)       0.00 MB       (current)
 **********************************************************************************************************************************

        CCSD(T)         RHF-SCF 
    -80.79238734    -80.39877830
 **********************************************************************************************************************************
 Variable memory released
