
 Primary working directories    : /tmp/1049102.1023.gen4.q
 Secondary working directories  : /tmp/1049102.1023.gen4.q
 Wavefunction directory         : /home/vulcan/mel64643/wfu/
 Main file repository           : /tmp/1049102.1023.gen4.q/

 ARCHNAME  : Linux/x86_64
 FC        : /opt/intel/compilers_and_libraries_2016.1.150/linux/bin/intel64/ifort
 FCVERSION : 16.0.1
 BLASLIB   : -mkl
 id        : ccgc

 Nodes     nprocs
 n067         1
 ga_uses_ma=false, calling ma_init with nominal heap.
 GA-space will be limited to   8.0 MW (determined by -G option)

 Using customized tuning parameters: mindgm=10; mindgv=16; mindgc=4; mindgr=1; noblas=0; mincuda=1000; minvec=7
 default implementation of scratch files=df  

 ***,Optimization of h2o_3
 memory,1000,m
 gthresh,energy=1.0d-12,orbital=1.0d-10,oneint=1.0d-16,twoint=1.0d-16,optgrad=1.0d-6,compress=1.0d-13
 geomtyp=xyz
 
 
 
 bohr
 geometry = {
  C    0.9105950693    1.4000743090   -2.2729240864
  C    0.7292731873    2.7029729340    0.0186435556
  C    0.9934630406    1.4005663920    2.3025839312
  C    1.4373768243   -1.2047977071    2.2949579033
  C    1.6194239157   -2.5072017866    0.0034324641
  C    1.3552915849   -1.2045713641   -2.2803037726
  H    0.6967348390    2.4084941431   -4.0426629031
  H    0.3697373203    4.7190033334    0.0245978237
  H    0.8476877172    2.4098610689    4.0789598379
  H    1.6395095758   -2.2143288844    4.0658564094
  H    1.9614680811   -4.5267531317   -0.0025140615
  H    1.4939776263   -2.2145108959   -4.0571669126
  N   -5.4428053088   -0.3432362870   -0.0742072858
  H   -5.5911682264   -1.5514449783   -1.5481238639
  H   -6.0777263278   -1.3013292809    1.4708678460
  H   -3.5619070516   -0.0645874624    0.1980807917
 }
 
 basis=aug-cc-pvdz, H=cc-pvdz
 {rhf;maxit,200}
 {ccsd(t)}

 Variables initialized (661), CPU time= 0.00 sec
 Commands  initialized (458), CPU time= 0.00 sec, 486 directives.
 Default parameters read. Elapsed time= 0.04 sec

 Checking input...
 Passed
1


                                         ***  PROGRAM SYSTEM MOLPRO  ***
                         Copyright, University College Cardiff Consultants Limited, 2008

                                    Version 2010.1 linked May 16 2016 07:17:05


 **********************************************************************************************************************************
 LABEL *   Optimization of h2o_3                                                         
 Linux-4.4.3/n067(x86_64) 64 bit mpp version                                             DATE: 20-Mar-24          TIME: 08:21:51  
 **********************************************************************************************************************************

 SHA1:             9e8077add272b0f3cad6f7df79ec5211205f459d
 **********************************************************************************************************************************

 THRESHOLDS:

 ZERO    =  1.00D-12  ONEINT  =  1.00D-16  TWOINT  =  1.00D-16  PREFAC  =  1.00D-14  LOCALI  =  1.00D-09  EORDER  =  1.00D-04
 ENERGY  =  1.00D-12  ETEST   =  0.00D+00  EDENS   =  0.00D+00  THRDEDEF=  1.00D-06  GRADIENT=  1.00D-02  STEP    =  1.00D-03
 ORBITAL =  1.00D-10  CIVEC   =  1.00D-05  COEFF   =  1.00D-04  PRINTCI =  5.00D-02  PUNCHCI =  9.90D+01  OPTGRAD =  1.00D-06
 OPTENERG=  1.00D-06  OPTSTEP =  3.00D-04  THRGRAD =  1.00D-10  COMPRESS=  1.00D-13  VARMIN  =  1.00D-07  VARMAX  =  1.00D-03
 THRDOUB =  0.00D+00  THRDIV  =  1.00D-05  THRRED  =  1.00D-07  THRPSP  =  1.00D+00  THRDC   =  1.00D-10  THRCS   =  1.00D-10
 THRNRM  =  1.00D-08  THREQ   =  0.00D+00  THRDE   =  1.00D+00  THRREF  =  1.00D-05  SPARFAC =  1.00D+00  THRDLP  =  1.00D-07
 THRDIA  =  1.00D-10  THRDLS  =  1.00D-07  THRGPS  =  0.00D+00  THRKEX  =  0.00D+00  THRDIS  =  2.00D-01  THRVAR  =  1.00D-10
 THRLOC  =  1.00D-06  THRGAP  =  1.00D-06  THRLOCT = -1.00D+00  THRGAPT = -1.00D+00  THRORB  =  1.00D-06  THRMLTP =  0.00D+00
 THRCPQCI=  1.00D-10  KEXTA   =  0.00D+00  THRCOARS=  0.00D+00  SYMTOL  =  1.00D-06  GRADTOL =  1.00D-06  THROVL  =  1.00D-08
 THRORTH =  1.00D-08  GRID    =  1.00D-06  GRIDMAX =  1.00D-03  DTMAX   =  0.00D+00

 SETTING GEOMTYP        =    XYZ
 ZUNIT=BOHR
 

 Variable memory set to 1000000000 words,  buffer space   230000 words

 SETTING BASIS          =    AUG-CC-PVDZ,H=CC-PVDZ


 Recomputing integrals since basis changed


 Using spherical harmonics

 Library entry C      S aug-cc-pVDZ          selected for orbital group  1
 Library entry C      P aug-cc-pVDZ          selected for orbital group  1
 Library entry C      D aug-cc-pVDZ          selected for orbital group  1
 Library entry H      S cc-pVDZ              selected for orbital group  2
 Library entry H      P cc-pVDZ              selected for orbital group  2
 Library entry N      S aug-cc-pVDZ          selected for orbital group  3
 Library entry N      P aug-cc-pVDZ          selected for orbital group  3
 Library entry N      D aug-cc-pVDZ          selected for orbital group  3

1PROGRAM * SEWARD (Integral evaluation for generally contracted gaussian basis sets)     Author: Roland Lindh, 1990

 Geometry written to block  1 of record 700


 Point group  C1  



 ATOMIC COORDINATES

 NR  ATOM    CHARGE       X              Y              Z

   1  C       6.00    0.910595069    1.400074309   -2.272924086
   2  C       6.00    0.729273187    2.702972934    0.018643556
   3  C       6.00    0.993463041    1.400566392    2.302583931
   4  C       6.00    1.437376824   -1.204797707    2.294957903
   5  C       6.00    1.619423916   -2.507201787    0.003432464
   6  C       6.00    1.355291585   -1.204571364   -2.280303773
   7  H       1.00    0.696734839    2.408494143   -4.042662903
   8  H       1.00    0.369737320    4.719003333    0.024597824
   9  H       1.00    0.847687717    2.409861069    4.078959838
  10  H       1.00    1.639509576   -2.214328884    4.065856409
  11  H       1.00    1.961468081   -4.526753132   -0.002514061
  12  H       1.00    1.493977626   -2.214510896   -4.057166913
  13  N       7.00   -5.442805309   -0.343236287   -0.074207286
  14  H       1.00   -5.591168226   -1.551444978   -1.548123864
  15  H       1.00   -6.077726328   -1.301329281    1.470867846
  16  H       1.00   -3.561907052   -0.064587462    0.198080792

 Bond lengths in Bohr (Angstrom)

 1-2  2.642291564  1-6  2.642345271  1-7  2.048077694  2-3  2.642431214  2-8  2.047847666
     ( 1.398240475)     ( 1.398268896)     ( 1.083796038)     ( 1.398314375)     ( 1.083674312)

  3- 4  2.642922567   3- 9  2.048276727   4- 5  2.642061008   4-10  2.048436566   5- 6  2.642359382
       ( 1.398574387)       ( 1.083901362)       ( 1.398118470)       ( 1.083985945)       ( 1.398276363)

  5-11  2.048320582   6-12  2.048524907  13-14  1.911598775  13-15  1.925700924  13-16  1.920823838
       ( 1.083924569)       ( 1.084032693)       ( 1.011574504)       ( 1.019037040)       ( 1.016456198)

 Bond angles

  1- 2- 3  119.98067081   1- 2- 8  120.00017432   1- 6- 5  120.02353333   1- 6-12  119.98613417

  2-1-6  120.00199200   2-1-7  119.96358274   2-3-4  120.01167971   2-3-9  119.97429859

  3- 2- 8  120.01747786   3- 4- 5  120.00136391   3- 4-10  119.99378327   4- 3- 9  120.01368997

  4- 5- 6  119.98073230   4- 5-11  120.00333383   5- 4-10  120.00484812   5- 6-12  119.99031796

  6- 1- 7  120.03368535   6- 5-11  120.01581987  14-13-15  106.17607556  14-13-16  106.08043230

 15-13-16  106.33745537

 NUCLEAR CHARGE:                   52
 NUMBER OF PRIMITIVE AOS:         322
 NUMBER OF SYMMETRY AOS:          308
 NUMBER OF CONTRACTIONS:          206   ( 206A   )
 NUMBER OF CORE ORBITALS:           7   (   7A   )
 NUMBER OF VALENCE ORBITALS:       37   (  37A   )


 NUCLEAR REPULSION ENERGY  273.72032574


 Eigenvalues of metric

         1 0.861E-05 0.184E-04 0.228E-04 0.531E-04 0.643E-04 0.644E-04 0.107E-03 0.107E-03


 Contracted 2-electron integrals neglected if value below      1.0D-16
 AO integral compression algorithm  1   Integral accuracy      1.0D-16

     1892.418 MB (compressed) written to integral file ( 94.5%)

     Node minimum: 1892.418 MB, node maximum: 1892.418 MB


 NUMBER OF SORTED TWO-ELECTRON INTEGRALS:  227303181.     BUFFER LENGTH:  32768
 NUMBER OF SEGMENTS:  15  SEGMENT LENGTH:   15999503      RECORD LENGTH: 524288

 Memory used in sort:      16.56 MW

 SORT1 READ   250229914. AND WROTE   226407797. INTEGRALS IN    654 RECORDS. CPU TIME:     2.44 SEC, REAL TIME:     5.80 SEC
 SORT2 READ   226407797. AND WROTE   227303181. INTEGRALS IN   7219 RECORDS. CPU TIME:     1.44 SEC, REAL TIME:     2.32 SEC

 FILE SIZES:   FILE 1:  1743.2 MBYTE,  FILE 4:  2743.1 MBYTE,   TOTAL:   4486.4 MBYTE

 OPERATOR DM      FOR CENTER  0  COORDINATES:    0.000000    0.000000    0.000000


 **********************************************************************************************************************************
 DATASETS  * FILE   NREC   LENGTH (MB)   RECORD NAMES
              1      19     1743.76       500      610      700      900      950      970     1000      129      960     1100   
                                          VAR    BASINP    GEOM    SYMINP    ZMAT    AOBASIS   BASIS     P2S    ABASIS      S 
                                         1400     1410     1200     1210     1080     1600     1650     1300     1700   
                                           T        V       H0       H01     AOSYM     SMH    MOLCAS    ERIS     OPER   

 PROGRAMS   *        TOTAL       INT
 CPU TIMES  *        14.76     14.72
 REAL TIME  *        20.05 SEC
 DISK USED  *         6.38 GB      
 GA USED    *         0.01 MB       (max)       0.00 MB       (current)
 **********************************************************************************************************************************

1PROGRAM * RHF-SCF (CLOSED SHELL)       Authors: W. Meyer, H.-J. Werner


 NUMBER OF ELECTRONS:      26+   26-    SPACE SYMMETRY=1    SPIN SYMMETRY: Singlet 
 CONVERGENCE THRESHOLDS:    1.00E-10 (Density)    1.00E-13 (Energy)
 MAX. NUMBER OF ITERATIONS:      200
 INTERPOLATION TYPE:            DIIS
 INTERPOLATION STEPS:              2 (START)      1 (STEP)
 LEVEL SHIFTS:                  0.00 (CLOSED)  0.00 (OPEN) 



 Orbital guess generated from atomic densities. Full valence occupancy:   44

 Molecular orbital dump at record        2100.2

 ITERATION    DDIFF          GRAD             ENERGY        2-EL.EN.            DIPOLE MOMENTS         DIIS
    1      0.000D+00      0.000D+00      -286.85320743    740.904132    0.51669   -0.76859    0.14315    0
    2      0.000D+00      0.322D-02      -286.92076856    735.113092    0.43352   -0.38567    0.06282    1
    3      0.826D-02      0.133D-02      -286.93009636    737.744807    0.44988   -0.52363    0.09456    2
    4      0.218D-02      0.381D-03      -286.93131437    737.225061    0.44851   -0.49723    0.08598    3
    5      0.783D-03      0.526D-04      -286.93133818    737.213801    0.45435   -0.50719    0.09010    4
    6      0.135D-03      0.176D-04      -286.93134061    737.228698    0.45320   -0.50177    0.08789    5
    7      0.511D-04      0.553D-05      -286.93134088    737.225605    0.45386   -0.50397    0.08868    6
    8      0.150D-04      0.129D-05      -286.93134090    737.224604    0.45401   -0.50362    0.08853    7
    9      0.419D-05      0.543D-06      -286.93134090    737.225062    0.45404   -0.50371    0.08856    7
   10      0.149D-05      0.144D-06      -286.93134090    737.225011    0.45404   -0.50371    0.08856    7
   11      0.522D-06      0.420D-07      -286.93134090    737.224996    0.45405   -0.50371    0.08856    7
   12      0.147D-06      0.182D-07      -286.93134090    737.225011    0.45405   -0.50371    0.08856    8
   13      0.651D-07      0.811D-08      -286.93134090    737.225005    0.45405   -0.50371    0.08856    8
   14      0.373D-07      0.381D-08      -286.93134090    737.225007    0.45405   -0.50371    0.08856    8
   15      0.214D-07      0.141D-08      -286.93134090    737.225007    0.45405   -0.50371    0.08856    8
   16      0.723D-08      0.460D-09      -286.93134090    737.225007    0.45405   -0.50371    0.08856    9
   17      0.208D-08      0.125D-09      -286.93134090    737.225007    0.45405   -0.50371    0.08856    9
   18      0.375D-09      0.394D-10      -286.93134090    737.225007    0.45405   -0.50371    0.08856    8
   19      0.252D-09      0.166D-10      -286.93134090    737.225007    0.45405   -0.50371    0.08856    9
   20      0.133D-09      0.885D-11      -286.93134090    737.225007    0.45405   -0.50371    0.08856    9
   21      0.170D-09      0.424D-11      -286.93134090    737.225007    0.45405   -0.50371    0.08856    9
   22      0.183D-09      0.131D-11      -286.93134090    737.225007    0.45405   -0.50371    0.08856    9
   23      0.152D-09      0.764D-12      -286.93134090    737.225007    0.45405   -0.50371    0.08856    9
   24      0.114D-09      0.611D-12      -286.93134090    737.225007    0.45405   -0.50371    0.08856    9
   25      0.601D-10      0.568D-12      -286.93134090    737.225007    0.45405   -0.50371    0.08856    9
   26      0.467D-10      0.469D-12      -286.93134090    737.225007    0.45405   -0.50371    0.08856    9
   27      0.354D-10      0.524D-12      -286.93134090    737.225007    0.45405   -0.50371    0.08856    9
   28      0.439D-10      0.516D-12      -286.93134090    737.225007    0.45405   -0.50371    0.08856    9
   29      0.157D-10      0.422D-12      -286.93134090    737.225007    0.45405   -0.50371    0.08856    9
   30      0.128D-10      0.412D-12      -286.93134090    737.225007    0.45405   -0.50371    0.08856    9
   31      0.191D-10      0.462D-12      -286.93134090    737.225007    0.45405   -0.50371    0.08856    9
   32      0.103D-10      0.442D-12      -286.93134090    737.225007    0.45405   -0.50371    0.08856    9
   33      0.912D-11      0.454D-12      -286.93134090    737.225007    0.45405   -0.50371    0.08856    0

 Final occupancy:  26

 !RHF STATE 1.1 Energy               -286.931340904697
 Nuclear energy                       273.72032574
 One-electron energy                 -929.26416998
 Two-electron energy                  368.61250333
 Virial quotient                       -1.00146432
 !RHF STATE 1.1 Dipole moment           0.45405123    -0.50371271     0.08855937
 Dipole moment /Debye                   1.15400753    -1.28022616     0.22508072

 Orbital energies:

         1.1          2.1          3.1          4.1          5.1          6.1          7.1          8.1          9.1         10.1
    -15.534997   -11.250629   -11.250023   -11.249661   -11.248799   -11.248651   -11.247815    -1.157499    -1.125572    -1.022051

        11.1         12.1         13.1         14.1         15.1         16.1         17.1         18.1         19.1         20.1
     -1.021945    -0.830630    -0.830531    -0.714493    -0.650445    -0.623914    -0.611629    -0.609914    -0.593572    -0.593443

        21.1         22.1         23.1         24.1         25.1         26.1         27.1         28.1
     -0.504874    -0.500094    -0.500014    -0.413426    -0.342974    -0.341988     0.063904     0.066426


 **********************************************************************************************************************************
 DATASETS  * FILE   NREC   LENGTH (MB)   RECORD NAMES
              1      19     1743.76       500      610      700      900      950      970     1000      129      960     1100   
                                          VAR    BASINP    GEOM    SYMINP    ZMAT    AOBASIS   BASIS     P2S    ABASIS      S 
                                         1400     1410     1200     1210     1080     1600     1650     1300     1700   
                                           T        V       H0       H01     AOSYM     SMH    MOLCAS    ERIS     OPER   

              2       3        1.40       700     1000     2100   
                                         GEOM     BASIS     RHF  

 PROGRAMS   *        TOTAL       RHF       INT
 CPU TIMES  *        72.41     57.65     14.72
 REAL TIME  *        83.92 SEC
 DISK USED  *         6.38 GB      
 GA USED    *         0.01 MB       (max)       0.00 MB       (current)
 **********************************************************************************************************************************


1PROGRAM * CCSD (Closed-shell coupled cluster)     Authors: C. Hampel, H.-J. Werner, 1991, M. Deegan, P.J. Knowles, 1992


 Convergence thresholds:  THRVAR = 1.00D-08  THRDEN = 1.00D-12

 CCSD(T)     terms to be evaluated (factor= 1.000)


 Number of core orbitals:           7 (   7 )
 Number of closed-shell orbitals:  19 (  19 )
 Number of external orbitals:     180 ( 180 )

 Molecular orbitals read from record     2100.2  Type=RHF/CANONICAL (state 1.1)

 Number of N-1 electron functions:              19
 Number of N-2 electron functions:             190
 Number of singly external CSFs:              3420
 Number of doubly external CSFs:           5849910
 Total number of CSFs:                     5853331

 Length of J-op  integral file:               0.00 MB
 Length of K-op  integral file:               2.96 MB
 Length of 3-ext integral record:             0.00 MB

 Memory could be reduced to 140.12 Mwords without degradation in triples

 Integral transformation finished. Total CPU:  14.04 sec, npass=  1  Memory used: 101.90 MW

 Reference energy:                   -286.93134090

 MP2 singlet pair energy:              -0.62063627
 MP2 triplet pair energy:              -0.38984440
 MP2 correlation energy:               -1.01048068
 MP2 total energy:                   -287.94182158

 SCS-MP2 correlation energy:           -0.98733338   (PS=  1.200000  PT=  0.333333)
 SCS-MP2 total energy:               -287.91867428

 ITER.      SQ.NORM     CORR.ENERGY   TOTAL ENERGY   ENERGY CHANGE        DEN1      VAR(S)    VAR(P)  DIIS     TIME
   1      1.38488415    -1.05476866  -287.98610956    -0.04428798    -0.01720926  0.36D-02  0.80D-02  1  1    51.05
   2      1.41439657    -1.06063105  -287.99197195    -0.00586239    -0.02705267  0.63D-04  0.10D-02  2  2    88.48
   3      1.42352785    -1.06072676  -287.99206766    -0.00009571    -0.00464360  0.27D-04  0.84D-04  3  3   125.92
   4      1.42746515    -1.06089550  -287.99223641    -0.00016875    -0.00121411  0.22D-05  0.11D-04  4  4   163.38
   5      1.42867879    -1.06092645  -287.99226736    -0.00003095    -0.00027319  0.27D-06  0.13D-05  5  5   200.86
   6      1.42898139    -1.06091622  -287.99225712     0.00001024    -0.00004348  0.23D-07  0.79D-07  6  6   238.35
   7      1.42902214    -1.06091785  -287.99225875    -0.00000163    -0.00000103  0.35D-08  0.82D-08  6  2   275.85
   8      1.42903133    -1.06091771  -287.99225861     0.00000014    -0.00000117  0.76D-09  0.76D-09  6  1   313.34
   9      1.42903116    -1.06091784  -287.99225874    -0.00000013     0.00000123  0.21D-09  0.92D-10  6  4   350.89
  10      1.42903236    -1.06091785  -287.99225876    -0.00000001    -0.00000018  0.57D-10  0.15D-10  6  3   388.38
  11      1.42903231    -1.06091787  -287.99225877    -0.00000002     0.00000013  0.14D-10  0.37D-11  6  5   425.90
  12      1.42903226    -1.06091787  -287.99225878    -0.00000000     0.00000003  0.15D-11  0.10D-11  6  6   463.40
  13      1.42903209    -1.06091787  -287.99225878    -0.00000000     0.00000006  0.69D-13  0.20D-12  6  2   500.92
  14      1.42903199    -1.06091788  -287.99225878    -0.00000000     0.00000003  0.81D-14  0.40D-13  6  1   538.42
  15      1.42903193    -1.06091788  -287.99225878    -0.00000000     0.00000001  0.90D-15  0.54D-14  6  3   575.92
  16      1.42903191    -1.06091788  -287.99225878    -0.00000000     0.00000000  0.12D-15  0.37D-15  6  4   613.39
  17      1.42903190    -1.06091788  -287.99225878    -0.00000000     0.00000000  0.31D-16  0.44D-16  6  5   650.87
  18      1.42903190    -1.06091788  -287.99225878    -0.00000000     0.00000000  0.83D-17  0.71D-17  6  6   688.38
  19      1.42903190    -1.06091788  -287.99225878    -0.00000000     0.00000000  0.24D-17  0.78D-18  6  2   725.89
  20      1.42903190    -1.06091788  -287.99225878    -0.00000000     0.00000000  0.79D-18  0.19D-18  6  1   763.37
  21      1.42903190    -1.06091788  -287.99225878    -0.00000000     0.00000000  0.29D-18  0.77D-19  6  3   800.89
  22      1.42903190    -1.06091788  -287.99225878    -0.00000000     0.00000000  0.12D-18  0.38D-19  6  4   838.38
  23      1.42903190    -1.06091788  -287.99225878    -0.00000000     0.00000000  0.55D-19  0.21D-19  6  6   875.85

 Norm of t1 vector:      0.08385830      S-energy:    -0.00000000      T1 diagnostic:  0.00961921
                                                                       D1 diagnostic:  0.02618688

 Doubles amplitudes (print threshold =  0.500E-01):

         I         J         SYM. A    SYM. B    A         B      T(IJ, AB)

        18        18         1         1         6         6     -0.05108205
        19        19         1         1         7         7     -0.05451176


 Total CPU time for triples:    733.53 sec


 RESULTS
 =======

  Reference energy                   -286.931340904698
  CCSD singlet pair energy             -0.711158019181
  CCSD triplet pair energy             -0.349759856681
  CCSD correlation energy              -1.060917875861

  Triples (T) contribution             -0.045604740833
  Total correlation energy             -1.106522616694

  CCSD total energy                  -287.992258780560
  CCSD[T] energy                     -288.038733744550
  CCSD-T energy                      -288.037474954614
 !CCSD(T) total energy               -288.037863521393

 Timing summary (sec):

 STEP                 CPU(USER)    SYS     CPU(TOT)    WALL
 Transformation         14.45      0.85     15.30     15.30
 CCSD iterations       861.42     12.26    873.68    873.76
 Triples               733.53     11.49    745.02    745.01

 Program statistics:

 Available memory in ccsd:               999998456
 Min. memory needed in ccsd:              14392275
 Max. memory used in ccsd:                19775697
 Max. memory used in cckext:              16737545 (23 integral passes)



 **********************************************************************************************************************************
 DATASETS  * FILE   NREC   LENGTH (MB)   RECORD NAMES
              1      20     2287.36       500      610      700      900      950      970     1000      129      960     1100   
                                          VAR    BASINP    GEOM    SYMINP    ZMAT    AOBASIS   BASIS     P2S    ABASIS      S 
                                         1400     1410     1200     1210     1080     1600     1650     1300     1700     1380   
                                           T        V       H0       H01     AOSYM     SMH    MOLCAS    ERIS     OPER     JKOP   

              2       3        1.40       700     1000     2100   
                                         GEOM     BASIS     RHF  

 PROGRAMS   *        TOTAL   CCSD(T)       RHF       INT
 CPU TIMES  *      1681.82   1609.41     57.65     14.72
 REAL TIME  *      1718.11 SEC
 DISK USED  *         6.38 GB      
 GA USED    *         0.01 MB       (max)       0.00 MB       (current)
 **********************************************************************************************************************************

        CCSD(T)         RHF-SCF 
   -288.03786352   -286.93134090
 **********************************************************************************************************************************
 Variable memory released
