
 Primary working directories    : /tmp/1065196.922.gen6.q
 Secondary working directories  : /tmp/1065196.922.gen6.q
 Wavefunction directory         : /home/vulcan/jj04645/wfu/
 Main file repository           : /tmp/1065196.922.gen6.q/

 ARCHNAME  : Linux/x86_64
 FC        : /opt/intel/compilers_and_libraries_2016.1.150/linux/bin/intel64/ifort
 FCVERSION : 16.0.1
 BLASLIB   : -mkl
 id        : ccgc

 Nodes     nprocs
 n076         1
 ga_uses_ma=false, calling ma_init with nominal heap.
 GA-space will be limited to   8.0 MW (determined by -G option)

 Using customized tuning parameters: mindgm=10; mindgv=16; mindgc=4; mindgr=1; noblas=0; mincuda=1000; minvec=7
 default implementation of scratch files=df  

 ***,Optimization of t-butanol
 memory,1000,m
 gthresh,energy=1.0d-12,orbital=1.0d-10,oneint=1.0d-16,twoint=1.0d-16,optgrad=1.0d-6,compress=1.0d-13
 geomtyp=xyz
 
 bohr
 geometry = {
  C    0.0064268785   -0.0474051060   -0.0000000000
  O   -0.0197771374    2.6653708290   -0.0000000001
  C   -2.7632849758   -0.8328130361   -0.0000000001
  C    1.3352601695   -1.0187652411   -2.3740782500
  C    1.3352601694   -1.0187652410    2.3740782500
  H    1.7074146330    3.2364948294   -0.0000000000
  H   -2.9336039064   -2.8895449715   -0.0000000001
  H   -3.7090334068   -0.0861526966   -1.6741166980
  H   -3.7090334062   -0.0861526971    1.6741166983
  H    1.3067715229   -3.0824289468   -2.4484783137
  H    3.3108437986   -0.4072429385   -2.3991574957
  H    0.4023764506   -0.2790208487   -4.0584262407
  H    1.3067715228   -3.0824289467    2.4484783138
  H    3.3108437985   -0.4072429385    2.3991574958
  H    0.4023764504   -0.2790208486    4.0584262406
 }
 
 basis=VDZ
 {rhf;maxit,200}
 {ccsd(t);maxit,200}

 Variables initialized (661), CPU time= 0.01 sec
 Commands  initialized (458), CPU time= 0.00 sec, 486 directives.
 Default parameters read. Elapsed time= 0.05 sec

 Checking input...
 Passed
1


                                         ***  PROGRAM SYSTEM MOLPRO  ***
                         Copyright, University College Cardiff Consultants Limited, 2008

                                    Version 2010.1 linked May 16 2016 07:17:05


 **********************************************************************************************************************************
 LABEL *   Optimization of t-butanol                                                     
 Linux-4.4.3/n076(x86_64) 64 bit mpp version                                             DATE: 20-May-24          TIME: 14:15:05  
 **********************************************************************************************************************************

 SHA1:             9e8077add272b0f3cad6f7df79ec5211205f459d
 **********************************************************************************************************************************

 THRESHOLDS:

 ZERO    =  1.00D-12  ONEINT  =  1.00D-16  TWOINT  =  1.00D-16  PREFAC  =  1.00D-14  LOCALI  =  1.00D-09  EORDER  =  1.00D-04
 ENERGY  =  1.00D-12  ETEST   =  0.00D+00  EDENS   =  0.00D+00  THRDEDEF=  1.00D-06  GRADIENT=  1.00D-02  STEP    =  1.00D-03
 ORBITAL =  1.00D-10  CIVEC   =  1.00D-05  COEFF   =  1.00D-04  PRINTCI =  5.00D-02  PUNCHCI =  9.90D+01  OPTGRAD =  1.00D-06
 OPTENERG=  1.00D-06  OPTSTEP =  3.00D-04  THRGRAD =  1.00D-10  COMPRESS=  1.00D-13  VARMIN  =  1.00D-07  VARMAX  =  1.00D-03
 THRDOUB =  0.00D+00  THRDIV  =  1.00D-05  THRRED  =  1.00D-07  THRPSP  =  1.00D+00  THRDC   =  1.00D-10  THRCS   =  1.00D-10
 THRNRM  =  1.00D-08  THREQ   =  0.00D+00  THRDE   =  1.00D+00  THRREF  =  1.00D-05  SPARFAC =  1.00D+00  THRDLP  =  1.00D-07
 THRDIA  =  1.00D-10  THRDLS  =  1.00D-07  THRGPS  =  0.00D+00  THRKEX  =  0.00D+00  THRDIS  =  2.00D-01  THRVAR  =  1.00D-10
 THRLOC  =  1.00D-06  THRGAP  =  1.00D-06  THRLOCT = -1.00D+00  THRGAPT = -1.00D+00  THRORB  =  1.00D-06  THRMLTP =  0.00D+00
 THRCPQCI=  1.00D-10  KEXTA   =  0.00D+00  THRCOARS=  0.00D+00  SYMTOL  =  1.00D-06  GRADTOL =  1.00D-06  THROVL  =  1.00D-08
 THRORTH =  1.00D-08  GRID    =  1.00D-06  GRIDMAX =  1.00D-03  DTMAX   =  0.00D+00

 SETTING GEOMTYP        =    XYZ
 ZUNIT=BOHR
 

 Variable memory set to 1000000000 words,  buffer space   230000 words

 SETTING BASIS          =    VDZ


 Recomputing integrals since basis changed


 Using spherical harmonics

 Library entry C      S cc-pVDZ              selected for orbital group  1
 Library entry C      P cc-pVDZ              selected for orbital group  1
 Library entry C      D cc-pVDZ              selected for orbital group  1
 Library entry O      S cc-pVDZ              selected for orbital group  2
 Library entry O      P cc-pVDZ              selected for orbital group  2
 Library entry O      D cc-pVDZ              selected for orbital group  2
 Library entry H      S cc-pVDZ              selected for orbital group  4
 Library entry H      P cc-pVDZ              selected for orbital group  4

1PROGRAM * SEWARD (Integral evaluation for generally contracted gaussian basis sets)     Author: Roland Lindh, 1990

 Geometry written to block  1 of record 700


 Point group  Cs  



 ATOMIC COORDINATES

 NR  ATOM    CHARGE       X              Y              Z

   1  C       6.00    0.006426879   -0.047405106    0.000000000
   2  O       8.00   -0.019777137    2.665370829    0.000000000
   3  C       6.00   -2.763284976   -0.832813036    0.000000000
   4  C       6.00    1.335260169   -1.018765241   -2.374078250
   5  C       6.00    1.335260169   -1.018765241    2.374078250
   6  H       1.00    1.707414633    3.236494829    0.000000000
   7  H       1.00   -2.933603906   -2.889544971    0.000000000
   8  H       1.00   -3.709033407   -0.086152697   -1.674116698
   9  H       1.00   -3.709033407   -0.086152697    1.674116698
  10  H       1.00    1.306771523   -3.082428947   -2.448478314
  11  H       1.00    1.306771523   -3.082428947    2.448478314
  12  H       1.00    3.310843799   -0.407242938   -2.399157496
  13  H       1.00    3.310843799   -0.407242938    2.399157496
  14  H       1.00    0.402376450   -0.279020849   -4.058426241
  15  H       1.00    0.402376450   -0.279020849    4.058426241

 Bond lengths in Bohr (Angstrom)

 1-2  2.712902491  1-3  2.878918091  1-4  2.888872784  1-5  2.888872784  2-6  1.819168501
     ( 1.435606168)     ( 1.523457840)     ( 1.528725637)     ( 1.528725637)     ( 0.962662510)

  3- 7  2.063771982   3- 8  2.062670229   3- 9  2.062670229   4-10  2.065200926   4-12  2.068216423
       ( 1.092101097)       ( 1.091518075)       ( 1.091518075)       ( 1.092857262)       ( 1.094452994)

  4-14  2.062649256   5-11  2.065200926   5-13  2.068216423   5-15  2.062649256
       ( 1.091506976)       ( 1.092857262)       ( 1.094452994)       ( 1.091506976)

 Bond angles

  1-2-6  107.74387639   1-3-7  110.56564860   1-3-8  110.02067679   1-3-9  110.02067679

  1- 4-10  111.05427848   1- 4-12  110.48289332   1- 4-14  110.02622449   1- 5-11  111.05427848

  1- 5-13  110.48289332   1- 5-15  110.02622449   2- 1- 3  105.27832920   2- 1- 4  109.91765241

  2-1-5  109.91765241   3-1-4  110.53646092   3-1-5  110.53646092   4-1-5  110.53095811

  7- 3- 8  108.83916949   7- 3- 9  108.83916949   8- 3- 9  108.51019466  10- 4-12  107.95054687

 10- 4-14  108.82712376  11- 5-13  107.95054687  11- 5-15  108.82712376  12- 4-14  108.42572107

 13- 5-15  108.42572107

 NUCLEAR CHARGE:                   42
 NUMBER OF PRIMITIVE AOS:         205
 NUMBER OF SYMMETRY AOS:          200
 NUMBER OF CONTRACTIONS:          120   (  72A'  +  48A"  )
 NUMBER OF CORE ORBITALS:           5   (   4A'  +   1A"  )
 NUMBER OF VALENCE ORBITALS:       30   (  19A'  +  11A"  )


 NUCLEAR REPULSION ENERGY  199.62192323


 Eigenvalues of metric

         1 0.261E-02 0.493E-02 0.830E-02 0.169E-01 0.192E-01 0.251E-01 0.299E-01 0.337E-01
         2 0.490E-02 0.191E-01 0.239E-01 0.303E-01 0.342E-01 0.351E-01 0.375E-01 0.444E-01


 Contracted 2-electron integrals neglected if value below      1.0D-16
 AO integral compression algorithm  1   Integral accuracy      1.0D-16

     119.538 MB (compressed) written to integral file ( 98.2%)

     Node minimum: 119.538 MB, node maximum: 119.538 MB


 NUMBER OF SORTED TWO-ELECTRON INTEGRALS:   13418166.     BUFFER LENGTH:  32768
 NUMBER OF SEGMENTS:   1  SEGMENT LENGTH:   13418166      RECORD LENGTH: 524288

 Memory used in sort:      13.98 MW

 SORT1 READ    15222547. AND WROTE    13374761. INTEGRALS IN     39 RECORDS. CPU TIME:     0.15 SEC, REAL TIME:     0.23 SEC
 SORT2 READ    13374761. AND WROTE    13418166. INTEGRALS IN    456 RECORDS. CPU TIME:     0.13 SEC, REAL TIME:     0.20 SEC

 FILE SIZES:   FILE 1:   109.4 MBYTE,  FILE 4:   163.6 MBYTE,   TOTAL:    273.1 MBYTE

 OPERATOR DM      FOR CENTER  0  COORDINATES:    0.000000    0.000000    0.000000


 **********************************************************************************************************************************
 DATASETS  * FILE   NREC   LENGTH (MB)   RECORD NAMES
              1      19      109.53       500      610      700      900      950      970     1000      129      960     1100   
                                          VAR    BASINP    GEOM    SYMINP    ZMAT    AOBASIS   BASIS     P2S    ABASIS      S 
                                         1400     1410     1200     1210     1080     1600     1650     1300     1700   
                                           T        V       H0       H01     AOSYM     SMH    MOLCAS    ERIS     OPER   

 PROGRAMS   *        TOTAL       INT
 CPU TIMES  *         1.92      1.88
 REAL TIME  *         2.64 SEC
 DISK USED  *       393.55 MB      
 GA USED    *         0.00 MB       (max)       0.00 MB       (current)
 **********************************************************************************************************************************

1PROGRAM * RHF-SCF (CLOSED SHELL)       Authors: W. Meyer, H.-J. Werner


 NUMBER OF ELECTRONS:      21+   21-
 CONVERGENCE THRESHOLDS:    1.00E-10 (Density)    1.00E-13 (Energy)
 MAX. NUMBER OF ITERATIONS:      200
 INTERPOLATION TYPE:            DIIS
 INTERPOLATION STEPS:              2 (START)      1 (STEP)
 LEVEL SHIFTS:                  0.00 (CLOSED)  0.00 (OPEN) 



 Orbital guess generated from atomic densities. Full valence occupancy:   23  12

 Molecular orbital dump at record        2100.2

 Initial alpha occupancy:  14   7
 Initial beta  occupancy:  14   7
 Wave function symmetry:    1

 ITERATION    DDIFF          GRAD             ENERGY        2-EL.EN.            DIPOLE MOMENTS         DIIS
    1      0.000D+00      0.000D+00      -232.08685183    561.070255    0.88720   -0.61730    0.00000    0
    2      0.000D+00      0.851D-02      -232.16309747    555.837151    0.41054   -0.32078    0.00000    1
    3      0.169D-01      0.365D-02      -232.17373571    557.841267    0.53031   -0.42473    0.00000    2
    4      0.537D-02      0.101D-02      -232.17503030    557.610288    0.50352   -0.38914    0.00000    3
    5      0.195D-02      0.264D-03      -232.17510693    557.548328    0.50283   -0.40132    0.00000    4
    6      0.423D-03      0.494D-04      -232.17510996    557.568365    0.50220   -0.39965    0.00000    5
    7      0.124D-03      0.906D-05      -232.17511010    557.562762    0.50213   -0.39981    0.00000    6
    8      0.254D-04      0.289D-05      -232.17511012    557.564335    0.50213   -0.39991    0.00000    7
    9      0.548D-05      0.933D-06      -232.17511012    557.563988    0.50210   -0.39992    0.00000    7
   10      0.212D-05      0.261D-06      -232.17511012    557.564042    0.50211   -0.39994    0.00000    7
   11      0.688D-06      0.533D-07      -232.17511012    557.564031    0.50210   -0.39994    0.00000    7
   12      0.168D-06      0.164D-07      -232.17511012    557.564039    0.50210   -0.39994    0.00000    7
   13      0.331D-07      0.708D-08      -232.17511012    557.564037    0.50210   -0.39994    0.00000    7
   14      0.138D-07      0.232D-08      -232.17511012    557.564036    0.50210   -0.39994    0.00000    8
   15      0.413D-08      0.600D-09      -232.17511012    557.564037    0.50210   -0.39994    0.00000    8
   16      0.144D-08      0.149D-09      -232.17511012    557.564037    0.50210   -0.39994    0.00000    7
   17      0.346D-09      0.411D-10      -232.17511012    557.564037    0.50210   -0.39994    0.00000    7
   18      0.107D-09      0.117D-10      -232.17511012    557.564037    0.50210   -0.39994    0.00000    8
   19      0.237D-10      0.314D-11      -232.17511012    557.564037    0.50210   -0.39994    0.00000    8
   20      0.864D-11      0.104D-11      -232.17511012    557.564037    0.50210   -0.39994    0.00000    7
   21      0.247D-11      0.363D-12      -232.17511012    557.564037    0.50210   -0.39994    0.00000    7
   22      0.832D-12      0.119D-12      -232.17511012    557.564037    0.50210   -0.39994    0.00000    7
   23      0.425D-12      0.473D-13      -232.17511012    557.564037    0.50210   -0.39994    0.00000    8
   24      0.230D-12      0.278D-13      -232.17511012    557.564037    0.50210   -0.39994    0.00000    8
   25      0.111D-12      0.380D-13      -232.17511012    557.564037    0.50210   -0.39994    0.00000    9
   26      0.100D-12      0.227D-13      -232.17511012    557.564037    0.50210   -0.39994    0.00000    9
   27      0.670D-13      0.265D-13      -232.17511012    557.564037    0.50210   -0.39994    0.00000    9
   28      0.463D-13      0.175D-13      -232.17511012    557.564037    0.50210   -0.39994    0.00000    9
   29      0.371D-13      0.187D-13      -232.17511012    557.564037    0.50210   -0.39994    0.00000    0

 Final occupancy:  14   7

 !RHF STATE 1.1 Energy               -232.175110117308
 Nuclear energy                       199.62192323
 One-electron energy                 -710.57905163
 Two-electron energy                  278.78201828
 Virial quotient                       -1.00089997
 !RHF STATE 1.1 Dipole moment           0.50210487    -0.39994305     0.00000000
 Dipole moment /Debye                   1.27613971    -1.01648726     0.00000000

 Orbital energies:

         1.1          2.1          3.1          4.1          5.1          6.1          7.1          8.1          9.1         10.1
    -20.545348   -11.282178   -11.220252   -11.214367    -1.351851    -1.064795    -0.937827    -0.767257    -0.665480    -0.620709

        11.1         12.1         13.1         14.1         15.1         16.1
     -0.573376    -0.528165    -0.505574    -0.457614     0.166857     0.220216

         1.2          2.2          3.2          4.2          5.2          6.2          7.2          8.2          9.2
    -11.220271    -0.939619    -0.617968    -0.553796    -0.514215    -0.500086    -0.426760     0.241225     0.255338


 **********************************************************************************************************************************
 DATASETS  * FILE   NREC   LENGTH (MB)   RECORD NAMES
              1      19      109.53       500      610      700      900      950      970     1000      129      960     1100   
                                          VAR    BASINP    GEOM    SYMINP    ZMAT    AOBASIS   BASIS     P2S    ABASIS      S 
                                         1400     1410     1200     1210     1080     1600     1650     1300     1700   
                                           T        V       H0       H01     AOSYM     SMH    MOLCAS    ERIS     OPER   

              2       3        0.66       700     1000     2100   
                                         GEOM     BASIS     RHF  

 PROGRAMS   *        TOTAL       RHF       INT
 CPU TIMES  *         3.47      1.55      1.88
 REAL TIME  *         4.51 SEC
 DISK USED  *       393.55 MB      
 GA USED    *         0.00 MB       (max)       0.00 MB       (current)
 **********************************************************************************************************************************


1PROGRAM * CCSD (Closed-shell coupled cluster)     Authors: C. Hampel, H.-J. Werner, 1991, M. Deegan, P.J. Knowles, 1992


 Convergence thresholds:  THRVAR = 1.00D-08  THRDEN = 1.00D-12

 CCSD(T)     terms to be evaluated (factor= 1.000)


 Number of core orbitals:           5 (   4   1 )
 Number of closed-shell orbitals:  16 (  10   6 )
 Number of external orbitals:      99 (  58  41 )

 Molecular orbitals read from record     2100.2  Type=RHF/CANONICAL (state 1.1)

 Number of N-1 electron functions:              16
 Number of N-2 electron functions:             136
 Number of singly external CSFs:               826
 Number of doubly external CSFs:            629212
 Total number of CSFs:                      630039

 Length of J-op  integral file:               0.00 MB
 Length of K-op  integral file:               0.55 MB
 Length of 3-ext integral record:             0.00 MB

 Memory could be reduced to 10.83 Mwords without degradation in triples

 Integral transformation finished. Total CPU:   0.38 sec, npass=  1  Memory used:   6.19 MW

 Reference energy:                   -232.17511012

 MP2 singlet pair energy:              -0.49757392
 MP2 triplet pair energy:              -0.27472556
 MP2 correlation energy:               -0.77229948
 MP2 total energy:                   -232.94740960

 SCS-MP2 correlation energy:           -0.76802905   (PS=  1.200000  PT=  0.333333)
 SCS-MP2 total energy:               -232.94313917

 ITER.      SQ.NORM     CORR.ENERGY   TOTAL ENERGY   ENERGY CHANGE        DEN1      VAR(S)    VAR(P)  DIIS     TIME
   1      1.27361195    -0.82950539  -233.00461551    -0.05720591    -0.03607414  0.25D-02  0.44D-02  1  1     1.19
   2      1.29479634    -0.83382803  -233.00893814    -0.00432263    -0.02220237  0.67D-04  0.42D-03  2  2     2.04
   3      1.29931895    -0.83403809  -233.00914821    -0.00021006    -0.00277463  0.25D-04  0.24D-04  3  3     2.88
   4      1.30058664    -0.83404407  -233.00915419    -0.00000598    -0.00060305  0.64D-06  0.21D-05  4  4     3.73
   5      1.30081838    -0.83405302  -233.00916314    -0.00000895    -0.00008109  0.19D-06  0.15D-06  5  5     4.58
   6      1.30085971    -0.83404975  -233.00915987     0.00000327    -0.00001323  0.26D-07  0.14D-07  6  6     5.43
   7      1.30086671    -0.83404853  -233.00915865     0.00000122    -0.00000072  0.39D-08  0.17D-08  6  1     6.28
   8      1.30087032    -0.83404854  -233.00915866    -0.00000001    -0.00000042  0.69D-09  0.22D-09  6  2     7.12
   9      1.30087090    -0.83404848  -233.00915859     0.00000006     0.00000057  0.65D-10  0.40D-10  6  4     7.97
  10      1.30087148    -0.83404847  -233.00915858     0.00000001    -0.00000001  0.52D-11  0.39D-11  6  3     8.82
  11      1.30087146    -0.83404847  -233.00915859    -0.00000000     0.00000005  0.81D-12  0.48D-12  6  5     9.67
  12      1.30087140    -0.83404847  -233.00915859    -0.00000000     0.00000003  0.15D-12  0.68D-13  6  6    10.52
  13      1.30087134    -0.83404847  -233.00915859    -0.00000000     0.00000003  0.11D-13  0.10D-13  6  2    11.38
  14      1.30087133    -0.83404847  -233.00915859    -0.00000000     0.00000001  0.17D-14  0.63D-15  6  1    12.23
  15      1.30087133    -0.83404847  -233.00915859    -0.00000000     0.00000000  0.22D-15  0.13D-15  6  4    13.07
  16      1.30087133    -0.83404847  -233.00915859     0.00000000    -0.00000000  0.35D-16  0.21D-16  6  3    13.92
  17      1.30087133    -0.83404847  -233.00915859     0.00000000    -0.00000000  0.34D-17  0.26D-17  6  5    14.77
  18      1.30087133    -0.83404847  -233.00915859    -0.00000000    -0.00000000  0.89D-18  0.35D-18  6  6    15.63
  19      1.30087133    -0.83404847  -233.00915859    -0.00000000    -0.00000000  0.22D-18  0.64D-19  6  2    16.48
  20      1.30087133    -0.83404847  -233.00915859    -0.00000000     0.00000000  0.33D-19  0.12D-19  6  1    17.33
  21      1.30087133    -0.83404847  -233.00915859    -0.00000000     0.00000000  0.41D-20  0.21D-20  6  4    18.18
  22      1.30087133    -0.83404847  -233.00915859     0.00000000    -0.00000000  0.70D-21  0.32D-21  6  3    19.03

 Norm of t1 vector:      0.06601306      S-energy:    -0.00000000      T1 diagnostic:  0.00825163
                                                                       D1 diagnostic:  0.02159747


 Total CPU time for triples:     13.97 sec


 RESULTS
 =======

  Reference energy                   -232.175110117308
  CCSD singlet pair energy             -0.581005826087
  CCSD triplet pair energy             -0.253042647216
  CCSD correlation energy              -0.834048473303

  Triples (T) contribution             -0.023252620437
  Total correlation energy             -0.857301093740

  CCSD total energy                  -233.009158590611
  CCSD[T] energy                     -233.033107069832
  CCSD-T energy                      -233.032075608419
 !CCSD(T) total energy               -233.032411211048

 Timing summary (sec):

 STEP                 CPU(USER)    SYS     CPU(TOT)    WALL
 Transformation          0.39      0.07      0.46      0.45
 CCSD iterations        18.64      0.83     19.47     19.52
 Triples                13.97      0.45     14.42     14.42

 Program statistics:

 Available memory in ccsd:               999998876
 Min. memory needed in ccsd:               1681381
 Max. memory used in ccsd:                 2239583
 Max. memory used in cckext:               2333618 (22 integral passes)



 **********************************************************************************************************************************
 DATASETS  * FILE   NREC   LENGTH (MB)   RECORD NAMES
              1      20      153.09       500      610      700      900      950      970     1000      129      960     1100   
                                          VAR    BASINP    GEOM    SYMINP    ZMAT    AOBASIS   BASIS     P2S    ABASIS      S 
                                         1400     1410     1200     1210     1080     1600     1650     1300     1700     1380   
                                           T        V       H0       H01     AOSYM     SMH    MOLCAS    ERIS     OPER     JKOP   

              2       3        0.66       700     1000     2100   
                                         GEOM     BASIS     RHF  

 PROGRAMS   *        TOTAL   CCSD(T)       RHF       INT
 CPU TIMES  *        36.48     33.00      1.55      1.88
 REAL TIME  *        39.21 SEC
 DISK USED  *       393.55 MB      
 GA USED    *         0.00 MB       (max)       0.00 MB       (current)
 **********************************************************************************************************************************

        CCSD(T)         RHF-SCF 
   -233.03241121   -232.17511012
 **********************************************************************************************************************************
 Variable memory released
