
 Primary working directories    : /tmp/943186.392.gen6.q
 Secondary working directories  : /tmp/943186.392.gen6.q
 Wavefunction directory         : /home/vulcan/mel64643/wfu/
 Main file repository           : /tmp/943186.392.gen6.q/

 ARCHNAME  : Linux/x86_64
 FC        : /opt/intel/compilers_and_libraries_2016.1.150/linux/bin/intel64/ifort
 FCVERSION : 16.0.1
 BLASLIB   : -mkl
 id        : ccgc

 Nodes     nprocs
 n091         1
 ga_uses_ma=false, calling ma_init with nominal heap.
 GA-space will be limited to   8.0 MW (determined by -G option)

 Using customized tuning parameters: mindgm=10; mindgv=16; mindgc=4; mindgr=1; noblas=0; mincuda=1000; minvec=7
 default implementation of scratch files=df  

 ***,Optimization of h2o_2
 memory,1000,m
 gthresh,energy=1.0d-12,orbital=1.0d-10,oneint=1.0d-16,twoint=1.0d-16,optgrad=1.0d-6,compress=1.0d-13
 geomtyp=xyz
 
 bohr
 geometry = {
  C    0.0013809165   -3.4207766331   -0.0003918336
  H   -0.9670462475   -2.7198275892   -1.6778526970
  H   -0.9670919620   -2.7366236182    1.6839628266
  H    1.9477500136   -2.7464671732   -0.0029442671
  H   -0.0046504348   -5.4805790383    0.0012094664
  C   -0.0020700327    3.4227205674   -0.0007968101
  H   -0.0037710996    5.4825317193   -0.0009193810
  H    0.9707011841    2.7337111208   -1.6806890176
  H    0.9672614021    2.7339083300    1.6811633432
  H   -1.9424637398    2.7314023145   -0.0027416299
 }
 
 basis=VDZ
 {rhf;maxit,200}
 {ccsd(t);maxit,200}

 Variables initialized (661), CPU time= 0.00 sec
 Commands  initialized (458), CPU time= 0.01 sec, 486 directives.
 Default parameters read. Elapsed time= 0.04 sec

 Checking input...
 Passed
1


                                         ***  PROGRAM SYSTEM MOLPRO  ***
                         Copyright, University College Cardiff Consultants Limited, 2008

                                    Version 2010.1 linked May 16 2016 07:17:05


 **********************************************************************************************************************************
 LABEL *   Optimization of h2o_2                                                         
 Linux-4.4.3/n091(x86_64) 64 bit mpp version                                             DATE: 23-Oct-23          TIME: 12:40:19  
 **********************************************************************************************************************************

 SHA1:             9e8077add272b0f3cad6f7df79ec5211205f459d
 **********************************************************************************************************************************

 THRESHOLDS:

 ZERO    =  1.00D-12  ONEINT  =  1.00D-16  TWOINT  =  1.00D-16  PREFAC  =  1.00D-14  LOCALI  =  1.00D-09  EORDER  =  1.00D-04
 ENERGY  =  1.00D-12  ETEST   =  0.00D+00  EDENS   =  0.00D+00  THRDEDEF=  1.00D-06  GRADIENT=  1.00D-02  STEP    =  1.00D-03
 ORBITAL =  1.00D-10  CIVEC   =  1.00D-05  COEFF   =  1.00D-04  PRINTCI =  5.00D-02  PUNCHCI =  9.90D+01  OPTGRAD =  1.00D-06
 OPTENERG=  1.00D-06  OPTSTEP =  3.00D-04  THRGRAD =  1.00D-10  COMPRESS=  1.00D-13  VARMIN  =  1.00D-07  VARMAX  =  1.00D-03
 THRDOUB =  0.00D+00  THRDIV  =  1.00D-05  THRRED  =  1.00D-07  THRPSP  =  1.00D+00  THRDC   =  1.00D-10  THRCS   =  1.00D-10
 THRNRM  =  1.00D-08  THREQ   =  0.00D+00  THRDE   =  1.00D+00  THRREF  =  1.00D-05  SPARFAC =  1.00D+00  THRDLP  =  1.00D-07
 THRDIA  =  1.00D-10  THRDLS  =  1.00D-07  THRGPS  =  0.00D+00  THRKEX  =  0.00D+00  THRDIS  =  2.00D-01  THRVAR  =  1.00D-10
 THRLOC  =  1.00D-06  THRGAP  =  1.00D-06  THRLOCT = -1.00D+00  THRGAPT = -1.00D+00  THRORB  =  1.00D-06  THRMLTP =  0.00D+00
 THRCPQCI=  1.00D-10  KEXTA   =  0.00D+00  THRCOARS=  0.00D+00  SYMTOL  =  1.00D-06  GRADTOL =  1.00D-06  THROVL  =  1.00D-08
 THRORTH =  1.00D-08  GRID    =  1.00D-06  GRIDMAX =  1.00D-03  DTMAX   =  0.00D+00

 SETTING GEOMTYP        =    XYZ
 ZUNIT=BOHR
 

 Variable memory set to 1000000000 words,  buffer space   230000 words

 SETTING BASIS          =    VDZ


 Recomputing integrals since basis changed


 Using spherical harmonics

 Library entry C      S cc-pVDZ              selected for orbital group  1
 Library entry C      P cc-pVDZ              selected for orbital group  1
 Library entry C      D cc-pVDZ              selected for orbital group  1
 Library entry H      S cc-pVDZ              selected for orbital group  2
 Library entry H      P cc-pVDZ              selected for orbital group  2

1PROGRAM * SEWARD (Integral evaluation for generally contracted gaussian basis sets)     Author: Roland Lindh, 1990

 Geometry written to block  1 of record 700


 Point group  C1  



 ATOMIC COORDINATES

 NR  ATOM    CHARGE       X              Y              Z

   1  C       6.00    0.001380916   -3.420776633   -0.000391834
   2  H       1.00   -0.967046248   -2.719827589   -1.677852697
   3  H       1.00   -0.967091962   -2.736623618    1.683962827
   4  H       1.00    1.947750014   -2.746467173   -0.002944267
   5  H       1.00   -0.004650435   -5.480579038    0.001209466
   6  C       6.00   -0.002070033    3.422720567   -0.000796810
   7  H       1.00   -0.003771100    5.482531719   -0.000919381
   8  H       1.00    0.970701184    2.733711121   -1.680689018
   9  H       1.00    0.967261402    2.733908330    1.681163343
  10  H       1.00   -1.942463740    2.731402314   -0.002741630

 Bond lengths in Bohr (Angstrom)

 1-2  2.059867880  1-3  2.059867881  1-4  2.059867089  1-5  2.059811858  6-7  2.059811858
     ( 1.090035136)     ( 1.090035136)     ( 1.090034717)     ( 1.090005490)     ( 1.090005490)

  6- 8  2.059867881   6- 9  2.059867881   6-10  2.059867095
       ( 1.090035136)       ( 1.090035136)       ( 1.090034720)

 Bond angles

  2-1-3  109.38008728   2-1-4  109.37997119   2-1-5  109.84904865   3-1-4  109.66645017

  3-1-5  109.27609094   4-1-5  109.27618307   7-6-8  109.56240830   7-6-9  109.56240831

  7- 6-10  109.56250040   8- 6- 9  109.37992579   8- 6-10  109.37980975   9- 6-10  109.37980975

 NUCLEAR CHARGE:                   20
 NUMBER OF PRIMITIVE AOS:         110
 NUMBER OF SYMMETRY AOS:          108
 NUMBER OF CONTRACTIONS:           68   (  68A   )
 NUMBER OF CORE ORBITALS:           2   (   2A   )
 NUMBER OF VALENCE ORBITALS:       16   (  16A   )


 NUCLEAR REPULSION ENERGY   41.33955460


 Eigenvalues of metric

         1 0.113E-01 0.127E-01 0.348E-01 0.349E-01 0.356E-01 0.375E-01 0.383E-01 0.383E-01


 Contracted 2-electron integrals neglected if value below      1.0D-16
 AO integral compression algorithm  1   Integral accuracy      1.0D-16

     21.496 MB (compressed) written to integral file ( 87.5%)

     Node minimum: 21.496 MB, node maximum: 21.496 MB


 NUMBER OF SORTED TWO-ELECTRON INTEGRALS:    2753031.     BUFFER LENGTH:  32768
 NUMBER OF SEGMENTS:   1  SEGMENT LENGTH:    2753031      RECORD LENGTH: 524288

 Memory used in sort:       3.31 MW

 SORT1 READ     3104305. AND WROTE     2685731. INTEGRALS IN      8 RECORDS. CPU TIME:     0.03 SEC, REAL TIME:     0.05 SEC
 SORT2 READ     2685731. AND WROTE     2753031. INTEGRALS IN     82 RECORDS. CPU TIME:     0.04 SEC, REAL TIME:     0.05 SEC

 FILE SIZES:   FILE 1:    21.5 MBYTE,  FILE 4:    33.6 MBYTE,   TOTAL:     55.1 MBYTE

 OPERATOR DM      FOR CENTER  0  COORDINATES:    0.000000    0.000000    0.000000


 **********************************************************************************************************************************
 DATASETS  * FILE   NREC   LENGTH (MB)   RECORD NAMES
              1      19       21.54       500      610      700      900      950      970     1000      129      960     1100   
                                          VAR    BASINP    GEOM    SYMINP    ZMAT    AOBASIS   BASIS     P2S    ABASIS      S 
                                         1400     1410     1200     1210     1080     1600     1650     1300     1700   
                                           T        V       H0       H01     AOSYM     SMH    MOLCAS    ERIS     OPER   

 PROGRAMS   *        TOTAL       INT
 CPU TIMES  *         0.39      0.35
 REAL TIME  *         0.62 SEC
 DISK USED  *        77.33 MB      
 GA USED    *         0.00 MB       (max)       0.00 MB       (current)
 **********************************************************************************************************************************

1PROGRAM * RHF-SCF (CLOSED SHELL)       Authors: W. Meyer, H.-J. Werner


 NUMBER OF ELECTRONS:      10+   10-    SPACE SYMMETRY=1    SPIN SYMMETRY: Singlet 
 CONVERGENCE THRESHOLDS:    1.00E-10 (Density)    1.00E-13 (Energy)
 MAX. NUMBER OF ITERATIONS:      200
 INTERPOLATION TYPE:            DIIS
 INTERPOLATION STEPS:              2 (START)      1 (STEP)
 LEVEL SHIFTS:                  0.00 (CLOSED)  0.00 (OPEN) 



 Orbital guess generated from atomic densities. Full valence occupancy:   18

 Molecular orbital dump at record        2100.2

 ITERATION    DDIFF          GRAD             ENERGY        2-EL.EN.            DIPOLE MOMENTS         DIIS
    1      0.000D+00      0.000D+00       -80.35962547    134.825413    0.00059   -0.00165    0.00100    0
    2      0.000D+00      0.637D-02       -80.39229528    132.545291    0.00031   -0.00072    0.00047    1
    3      0.132D-01      0.234D-02       -80.39615730    133.346824    0.00033   -0.00081    0.00055    2
    4      0.460D-02      0.630D-03       -80.39668599    133.209978    0.00028   -0.00069    0.00048    3
    5      0.165D-02      0.664D-04       -80.39669051    133.216000    0.00028   -0.00068    0.00048    4
    6      0.233D-03      0.393D-05       -80.39669053    133.215863    0.00028   -0.00068    0.00048    5
    7      0.205D-04      0.234D-06       -80.39669053    133.215860    0.00028   -0.00067    0.00048    5
    8      0.749D-06      0.414D-07       -80.39669053    133.215862    0.00028   -0.00067    0.00048    4
    9      0.110D-06      0.113D-07       -80.39669053    133.215862    0.00028   -0.00067    0.00048    4
   10      0.378D-07      0.235D-08       -80.39669053    133.215862    0.00028   -0.00067    0.00048    5
   11      0.788D-08      0.292D-09       -80.39669053    133.215862    0.00028   -0.00067    0.00048    5
   12      0.713D-09      0.901D-10       -80.39669053    133.215862    0.00028   -0.00067    0.00048    6
   13      0.212D-09      0.282D-10       -80.39669053    133.215862    0.00028   -0.00067    0.00048    6
   14      0.821D-10      0.438D-11       -80.39669053    133.215862    0.00028   -0.00067    0.00048    6
   15      0.210D-10      0.506D-12       -80.39669053    133.215862    0.00028   -0.00067    0.00048    6
   16      0.131D-11      0.165D-12       -80.39669053    133.215862    0.00028   -0.00067    0.00048    6
   17      0.388D-12      0.428D-13       -80.39669053    133.215862    0.00028   -0.00067    0.00048    6
   18      0.107D-12      0.121D-13       -80.39669053    133.215862    0.00028   -0.00067    0.00048    6
   19      0.502D-13      0.595D-14       -80.39669053    133.215862    0.00028   -0.00067    0.00048    0

 Final occupancy:  10

 !RHF STATE 1.1 Energy                -80.396690530250
 Nuclear energy                        41.33955460
 One-electron energy                 -188.34417636
 Two-electron energy                   66.60793122
 Virial quotient                       -1.00229922
 !RHF STATE 1.1 Dipole moment           0.00027545    -0.00067456     0.00047720
 Dipole moment /Debye                   0.00070009    -0.00171445     0.00121283

 Orbital energies:

         1.1          2.1          3.1          4.1          5.1          6.1          7.1          8.1          9.1         10.1
    -11.215308   -11.215279    -0.944244    -0.938388    -0.549574    -0.545606    -0.545229    -0.538316    -0.537957    -0.534256

        11.1         12.1
      0.172467     0.229215


 **********************************************************************************************************************************
 DATASETS  * FILE   NREC   LENGTH (MB)   RECORD NAMES
              1      19       21.54       500      610      700      900      950      970     1000      129      960     1100   
                                          VAR    BASINP    GEOM    SYMINP    ZMAT    AOBASIS   BASIS     P2S    ABASIS      S 
                                         1400     1410     1200     1210     1080     1600     1650     1300     1700   
                                           T        V       H0       H01     AOSYM     SMH    MOLCAS    ERIS     OPER   

              2       3        0.51       700     1000     2100   
                                         GEOM     BASIS     RHF  

 PROGRAMS   *        TOTAL       RHF       INT
 CPU TIMES  *         0.74      0.35      0.35
 REAL TIME  *         1.02 SEC
 DISK USED  *        77.33 MB      
 GA USED    *         0.00 MB       (max)       0.00 MB       (current)
 **********************************************************************************************************************************


1PROGRAM * CCSD (Closed-shell coupled cluster)     Authors: C. Hampel, H.-J. Werner, 1991, M. Deegan, P.J. Knowles, 1992


 Convergence thresholds:  THRVAR = 1.00D-08  THRDEN = 1.00D-12

 CCSD(T)     terms to be evaluated (factor= 1.000)


 Number of core orbitals:           2 (   2 )
 Number of closed-shell orbitals:   8 (   8 )
 Number of external orbitals:      58 (  58 )

 Molecular orbitals read from record     2100.2  Type=RHF/CANONICAL (state 1.1)

 Number of N-1 electron functions:               8
 Number of N-2 electron functions:              36
 Number of singly external CSFs:               464
 Number of doubly external CSFs:            107880
 Total number of CSFs:                      108345

 Length of J-op  integral file:               0.00 MB
 Length of K-op  integral file:               0.35 MB
 Length of 3-ext integral record:             0.00 MB

 Memory could be reduced to 2.66 Mwords without degradation in triples

 Integral transformation finished. Total CPU:   0.06 sec, npass=  1  Memory used:   1.86 MW

 Reference energy:                    -80.39669053

 MP2 singlet pair energy:              -0.23207734
 MP2 triplet pair energy:              -0.09154790
 MP2 correlation energy:               -0.32362524
 MP2 total energy:                    -80.72031577

 SCS-MP2 correlation energy:           -0.33545594   (PS=  1.200000  PT=  0.333333)
 SCS-MP2 total energy:                -80.73214647

 ITER.      SQ.NORM     CORR.ENERGY   TOTAL ENERGY   ENERGY CHANGE        DEN1      VAR(S)    VAR(P)  DIIS     TIME
   1      1.13420977    -0.36752694   -80.76421747    -0.04390171    -0.03297782  0.50D-03  0.24D-02  1  1     0.18
   2      1.14681862    -0.37032434   -80.76701487    -0.00279740    -0.01276548  0.15D-04  0.96D-04  2  2     0.31
   3      1.14861017    -0.37049538   -80.76718591    -0.00017103    -0.00095490  0.17D-05  0.56D-05  3  3     0.43
   4      1.14897807    -0.37051568   -80.76720621    -0.00002030    -0.00016593  0.25D-07  0.35D-06  4  4     0.56
   5      1.14902399    -0.37051319   -80.76720372     0.00000248    -0.00002391  0.18D-08  0.18D-07  5  5     0.68
   6      1.14902527    -0.37051313   -80.76720367     0.00000006    -0.00000010  0.19D-09  0.12D-08  6  6     0.80
   7      1.14902536    -0.37051340   -80.76720393    -0.00000026     0.00000013  0.13D-10  0.71D-10  6  1     0.93
   8      1.14902553    -0.37051339   -80.76720392     0.00000001    -0.00000013  0.15D-11  0.41D-11  6  2     1.05
   9      1.14902556    -0.37051338   -80.76720391     0.00000001    -0.00000003  0.15D-12  0.26D-12  6  3     1.17
  10      1.14902555    -0.37051338   -80.76720391     0.00000000     0.00000001  0.11D-13  0.23D-13  6  4     1.30
  11      1.14902554    -0.37051338   -80.76720391    -0.00000000     0.00000001  0.80D-15  0.19D-14  6  5     1.42
  12      1.14902554    -0.37051338   -80.76720391    -0.00000000     0.00000000  0.43D-16  0.23D-15  6  6     1.55
  13      1.14902554    -0.37051338   -80.76720391    -0.00000000     0.00000000  0.33D-17  0.28D-16  6  1     1.67
  14      1.14902554    -0.37051338   -80.76720391     0.00000000     0.00000000  0.59D-18  0.37D-17  6  2     1.80
  15      1.14902554    -0.37051338   -80.76720391     0.00000000     0.00000000  0.71D-19  0.37D-18  6  3     1.92
  16      1.14902554    -0.37051338   -80.76720391    -0.00000000     0.00000000  0.15D-20  0.20D-19  6  5     2.05
  17      1.14902554    -0.37051338   -80.76720391    -0.00000000     0.00000000  0.18D-21  0.56D-21  6  4     2.17
  18      1.14902554    -0.37051338   -80.76720391     0.00000000    -0.00000000  0.45D-22  0.51D-22  6  6     2.30

 Norm of t1 vector:      0.03062567      S-energy:     0.00000000      T1 diagnostic:  0.00541390
                                                                       D1 diagnostic:  0.00879221


 Total CPU time for triples:      0.85 sec


 RESULTS
 =======

  Reference energy                    -80.396690530250
  CCSD singlet pair energy             -0.281841075465
  CCSD triplet pair energy             -0.088672301773
  CCSD correlation energy              -0.370513377239

  Triples (T) contribution             -0.007535456684
  Total correlation energy             -0.378048833923

  CCSD total energy                   -80.767203907488
  CCSD[T] energy                      -80.774915554504
  CCSD-T energy                       -80.774644926750
 !CCSD(T) total energy                -80.774739364173

 Timing summary (sec):

 STEP                 CPU(USER)    SYS     CPU(TOT)    WALL
 Transformation          0.07      0.01      0.08      0.08
 CCSD iterations         2.23      0.12      2.35      2.38
 Triples                 0.85      0.01      0.86      0.86

 Program statistics:

 Available memory in ccsd:               999999644
 Min. memory needed in ccsd:                356281
 Max. memory used in ccsd:                  442401
 Max. memory used in cckext:                403930 (18 integral passes)



 **********************************************************************************************************************************
 DATASETS  * FILE   NREC   LENGTH (MB)   RECORD NAMES
              1      20       29.99       500      610      700      900      950      970     1000      129      960     1100   
                                          VAR    BASINP    GEOM    SYMINP    ZMAT    AOBASIS   BASIS     P2S    ABASIS      S 
                                         1400     1410     1200     1210     1080     1600     1650     1300     1700     1380   
                                           T        V       H0       H01     AOSYM     SMH    MOLCAS    ERIS     OPER     JKOP   

              2       3        0.51       700     1000     2100   
                                         GEOM     BASIS     RHF  

 PROGRAMS   *        TOTAL   CCSD(T)       RHF       INT
 CPU TIMES  *         3.89      3.15      0.35      0.35
 REAL TIME  *         4.36 SEC
 DISK USED  *        77.33 MB      
 GA USED    *         0.00 MB       (max)       0.00 MB       (current)
 **********************************************************************************************************************************

        CCSD(T)         RHF-SCF 
    -80.77473936    -80.39669053
 **********************************************************************************************************************************
 Variable memory released
