
 Primary working directories    : /tmp/1059987.65.gen6.q
 Secondary working directories  : /tmp/1059987.65.gen6.q
 Wavefunction directory         : /home/vulcan/jj04645/wfu/
 Main file repository           : /tmp/1059987.65.gen6.q/

 ARCHNAME  : Linux/x86_64
 FC        : /opt/intel/compilers_and_libraries_2016.1.150/linux/bin/intel64/ifort
 FCVERSION : 16.0.1
 BLASLIB   : -mkl
 id        : ccgc

 Nodes     nprocs
 n079         1
 ga_uses_ma=false, calling ma_init with nominal heap.
 GA-space will be limited to   8.0 MW (determined by -G option)

 Using customized tuning parameters: mindgm=10; mindgv=16; mindgc=4; mindgr=1; noblas=0; mincuda=1000; minvec=7
 default implementation of scratch files=df  

 ***,Optimization of 1_4_cyclohexadiene
 memory,1000,m
 gthresh,energy=1.0d-12,orbital=1.0d-10,oneint=1.0d-16,twoint=1.0d-16,optgrad=1.0d-6,compress=1.0d-13
 geomtyp=xyz
 
 bohr
 geometry = {
  H    4.0977559066   -0.0021152596   -1.6462983905
  C    2.8367782442   -0.0000000000   -0.0000000000
  C   -1.2630665013    2.3639533876    0.0030373444
  C   -1.2630665013   -2.3639533876   -0.0030373444
  C   -2.8367782442    0.0000000000   -0.0000000000
  C    1.2630665013   -2.3639533876    0.0030373444
  C    1.2630665013    2.3639533876   -0.0030373444
  H   -2.2663678117    4.1527032241    0.0106118537
  H    2.2663678117    4.1527032241   -0.0106118537
  H   -4.0977559066    0.0021152596   -1.6462983905
  H    2.2663678117   -4.1527032241    0.0106118537
  H   -2.2663678117   -4.1527032241   -0.0106118537
  H    4.0977559066    0.0021152596    1.6462983905
  H   -4.0977559066   -0.0021152596    1.6462983905
 }
 
 basis=VDZ
 {rhf;maxit,200}
 {ccsd(t);maxit,200}

 Variables initialized (661), CPU time= 0.01 sec
 Commands  initialized (458), CPU time= 0.00 sec, 486 directives.
 Default parameters read. Elapsed time= 0.05 sec

 Checking input...
 Passed
1


                                         ***  PROGRAM SYSTEM MOLPRO  ***
                         Copyright, University College Cardiff Consultants Limited, 2008

                                    Version 2010.1 linked May 16 2016 07:17:05


 **********************************************************************************************************************************
 LABEL *   Optimization of 1_4_cyclohexadiene                                            
 Linux-4.4.3/n079(x86_64) 64 bit mpp version                                             DATE: 06-May-24          TIME: 14:27:36  
 **********************************************************************************************************************************

 SHA1:             9e8077add272b0f3cad6f7df79ec5211205f459d
 **********************************************************************************************************************************

 THRESHOLDS:

 ZERO    =  1.00D-12  ONEINT  =  1.00D-16  TWOINT  =  1.00D-16  PREFAC  =  1.00D-14  LOCALI  =  1.00D-09  EORDER  =  1.00D-04
 ENERGY  =  1.00D-12  ETEST   =  0.00D+00  EDENS   =  0.00D+00  THRDEDEF=  1.00D-06  GRADIENT=  1.00D-02  STEP    =  1.00D-03
 ORBITAL =  1.00D-10  CIVEC   =  1.00D-05  COEFF   =  1.00D-04  PRINTCI =  5.00D-02  PUNCHCI =  9.90D+01  OPTGRAD =  1.00D-06
 OPTENERG=  1.00D-06  OPTSTEP =  3.00D-04  THRGRAD =  1.00D-10  COMPRESS=  1.00D-13  VARMIN  =  1.00D-07  VARMAX  =  1.00D-03
 THRDOUB =  0.00D+00  THRDIV  =  1.00D-05  THRRED  =  1.00D-07  THRPSP  =  1.00D+00  THRDC   =  1.00D-10  THRCS   =  1.00D-10
 THRNRM  =  1.00D-08  THREQ   =  0.00D+00  THRDE   =  1.00D+00  THRREF  =  1.00D-05  SPARFAC =  1.00D+00  THRDLP  =  1.00D-07
 THRDIA  =  1.00D-10  THRDLS  =  1.00D-07  THRGPS  =  0.00D+00  THRKEX  =  0.00D+00  THRDIS  =  2.00D-01  THRVAR  =  1.00D-10
 THRLOC  =  1.00D-06  THRGAP  =  1.00D-06  THRLOCT = -1.00D+00  THRGAPT = -1.00D+00  THRORB  =  1.00D-06  THRMLTP =  0.00D+00
 THRCPQCI=  1.00D-10  KEXTA   =  0.00D+00  THRCOARS=  0.00D+00  SYMTOL  =  1.00D-06  GRADTOL =  1.00D-06  THROVL  =  1.00D-08
 THRORTH =  1.00D-08  GRID    =  1.00D-06  GRIDMAX =  1.00D-03  DTMAX   =  0.00D+00

 SETTING GEOMTYP        =    XYZ
 ZUNIT=BOHR
 

 Variable memory set to 1000000000 words,  buffer space   230000 words

 SETTING BASIS          =    VDZ


 Recomputing integrals since basis changed


 Using spherical harmonics

 Library entry H      S cc-pVDZ              selected for orbital group  1
 Library entry H      P cc-pVDZ              selected for orbital group  1
 Library entry C      S cc-pVDZ              selected for orbital group  2
 Library entry C      P cc-pVDZ              selected for orbital group  2
 Library entry C      D cc-pVDZ              selected for orbital group  2

1PROGRAM * SEWARD (Integral evaluation for generally contracted gaussian basis sets)     Author: Roland Lindh, 1990

 Geometry written to block  1 of record 700


 Point group  D2  



 ATOMIC COORDINATES

 NR  ATOM    CHARGE       X              Y              Z

   1  H       1.00    4.097755907   -0.002115260   -1.646298390
   2  H       1.00   -4.097755907    0.002115260   -1.646298390
   3  H       1.00    4.097755907    0.002115260    1.646298390
   4  H       1.00   -4.097755907   -0.002115260    1.646298390
   5  C       6.00    2.836778244    0.000000000    0.000000000
   6  C       6.00   -2.836778244    0.000000000    0.000000000
   7  C       6.00   -1.263066501    2.363953388    0.003037344
   8  C       6.00   -1.263066501   -2.363953388   -0.003037344
   9  C       6.00    1.263066501   -2.363953388    0.003037344
  10  C       6.00    1.263066501    2.363953388   -0.003037344
  11  H       1.00   -2.266367812    4.152703224    0.010611854
  12  H       1.00    2.266367812    4.152703224   -0.010611854
  13  H       1.00    2.266367812   -4.152703224    0.010611854
  14  H       1.00   -2.266367812   -4.152703224   -0.010611854

 Bond lengths in Bohr (Angstrom)

 1-5  2.073732753  2-6  2.073732753  3-5  2.073732753  4-6  2.073732753  5-9  2.839868570
     ( 1.097372110)     ( 1.097372110)     ( 1.097372110)     ( 1.097372110)     ( 1.502793724)

  5-10  2.839868570   6- 7  2.839868570   6- 8  2.839868570   7-10  2.526140307   7-11  2.050925857
       ( 1.502793724)       ( 1.502793724)       ( 1.502793724)       ( 1.336775877)       ( 1.085303221)

  8- 9  2.526140307   8-14  2.050925857   9-13  2.050925857  10-12  2.050925857
       ( 1.336775877)       ( 1.085303221)       ( 1.085303221)       ( 1.085303221)

 Bond angles

  1- 5- 3  105.09962836   1- 5- 9  109.69191983   1- 5-10  109.69191983   2- 6- 4  105.09962836

  2- 6- 7  109.69191983   2- 6- 8  109.69191983   3- 5- 9  109.69191983   3- 5-10  109.69191983

  4- 6- 7  109.69191983   4- 6- 8  109.69191983   5- 9- 8  123.65186698   5- 9-13  117.06000122

  5-10- 7  123.65186698   5-10-12  117.06000122   6- 7-10  123.65186698   6- 7-11  117.06000122

  6- 8- 9  123.65186698   6- 8-14  117.06000122   7- 6- 8  112.69569142   7-10-12  119.28813180

  8- 9-13  119.28813180   9- 5-10  112.69569142   9- 8-14  119.28813180  10- 7-11  119.28813180

 NUCLEAR CHARGE:                   44
 NUMBER OF PRIMITIVE AOS:         218
 NUMBER OF SYMMETRY AOS:          212
 NUMBER OF CONTRACTIONS:          124   (  32A   +  32B3  +  30B2  +  30B1  )
 NUMBER OF CORE ORBITALS:           6   (   2A   +   2B3  +   1B2  +   1B1  )
 NUMBER OF VALENCE ORBITALS:       32   (   8A   +   8B3  +   8B2  +   8B1  )


 NUCLEAR REPULSION ENERGY  218.02275470


 Eigenvalues of metric

         1 0.343E-02 0.182E-01 0.273E-01 0.391E-01 0.436E-01 0.794E-01 0.988E-01 0.103E+00
         2 0.663E-03 0.312E-02 0.163E-01 0.259E-01 0.318E-01 0.453E-01 0.555E-01 0.641E-01
         3 0.559E-02 0.226E-01 0.256E-01 0.359E-01 0.366E-01 0.535E-01 0.766E-01 0.124E+00
         4 0.167E-02 0.428E-02 0.143E-01 0.311E-01 0.356E-01 0.381E-01 0.600E-01 0.859E-01


 Contracted 2-electron integrals neglected if value below      1.0D-16
 AO integral compression algorithm  1   Integral accuracy      1.0D-16

     86.770 MB (compressed) written to integral file (100.0%)

     Node minimum: 86.770 MB, node maximum: 86.770 MB


 NUMBER OF SORTED TWO-ELECTRON INTEGRALS:    7692069.     BUFFER LENGTH:  32768
 NUMBER OF SEGMENTS:   1  SEGMENT LENGTH:    7692069      RECORD LENGTH: 524288

 Memory used in sort:       8.25 MW

 SORT1 READ    10793040. AND WROTE     7681985. INTEGRALS IN     22 RECORDS. CPU TIME:     0.15 SEC, REAL TIME:     0.20 SEC
 SORT2 READ     7681985. AND WROTE     7692069. INTEGRALS IN    331 RECORDS. CPU TIME:     0.13 SEC, REAL TIME:     0.16 SEC

 FILE SIZES:   FILE 1:    65.0 MBYTE,  FILE 4:    92.3 MBYTE,   TOTAL:    157.3 MBYTE

 OPERATOR DM      FOR CENTER  0  COORDINATES:    0.000000    0.000000    0.000000


 **********************************************************************************************************************************
 DATASETS  * FILE   NREC   LENGTH (MB)   RECORD NAMES
              1      19       65.03       500      610      700      900      950      970     1000      129      960     1100   
                                          VAR    BASINP    GEOM    SYMINP    ZMAT    AOBASIS   BASIS     P2S    ABASIS      S 
                                         1400     1410     1200     1210     1080     1600     1650     1300     1700   
                                           T        V       H0       H01     AOSYM     SMH    MOLCAS    ERIS     OPER   

 PROGRAMS   *        TOTAL       INT
 CPU TIMES  *         2.23      2.19
 REAL TIME  *         2.52 SEC
 DISK USED  *       245.00 MB      
 GA USED    *         0.00 MB       (max)       0.00 MB       (current)
 **********************************************************************************************************************************

1PROGRAM * RHF-SCF (CLOSED SHELL)       Authors: W. Meyer, H.-J. Werner


 NUMBER OF ELECTRONS:      22+   22-
 CONVERGENCE THRESHOLDS:    1.00E-10 (Density)    1.00E-13 (Energy)
 MAX. NUMBER OF ITERATIONS:      200
 INTERPOLATION TYPE:            DIIS
 INTERPOLATION STEPS:              2 (START)      1 (STEP)
 LEVEL SHIFTS:                  0.00 (CLOSED)  0.00 (OPEN) 



 Orbital guess generated from atomic densities. Full valence occupancy:   10  10   9   9

 Molecular orbital dump at record        2100.2

 Initial alpha occupancy:   6   6   5   5
 Initial beta  occupancy:   6   6   5   5
 Wave function symmetry:    1

 ITERATION    DDIFF          GRAD             ENERGY        2-EL.EN.            DIPOLE MOMENTS         DIIS
    1      0.000D+00      0.000D+00      -231.78135433    591.050347    0.00000    0.00000    0.00000    0
    2      0.000D+00      0.898D-02      -231.84394202    586.123430    0.00000    0.00000    0.00000    1
    3      0.183D-01      0.354D-02      -231.85157774    588.471819    0.00000    0.00000    0.00000    2
    4      0.677D-02      0.120D-02      -231.85282945    587.861641    0.00000    0.00000    0.00000    3
    5      0.252D-02      0.122D-03      -231.85284783    587.866626    0.00000    0.00000    0.00000    4
    6      0.463D-03      0.265D-04      -231.85284843    587.863487    0.00000    0.00000    0.00000    5
    7      0.647D-04      0.870D-05      -231.85284850    587.864540    0.00000    0.00000    0.00000    6
    8      0.252D-04      0.169D-05      -231.85284850    587.864422    0.00000    0.00000    0.00000    7
    9      0.586D-05      0.346D-06      -231.85284850    587.864461    0.00000    0.00000    0.00000    6
   10      0.130D-05      0.725D-07      -231.85284850    587.864453    0.00000    0.00000    0.00000    6
   11      0.279D-06      0.106D-07      -231.85284850    587.864457    0.00000    0.00000    0.00000    6
   12      0.311D-07      0.277D-08      -231.85284850    587.864455    0.00000    0.00000    0.00000    6
   13      0.834D-08      0.975D-09      -231.85284850    587.864456    0.00000    0.00000    0.00000    6
   14      0.230D-08      0.276D-09      -231.85284850    587.864455    0.00000    0.00000    0.00000    6
   15      0.795D-09      0.765D-10      -231.85284850    587.864455    0.00000    0.00000    0.00000    6
   16      0.181D-09      0.333D-10      -231.85284850    587.864455    0.00000    0.00000    0.00000    7
   17      0.847D-10      0.105D-10      -231.85284850    587.864455    0.00000    0.00000    0.00000    7
   18      0.311D-10      0.198D-11      -231.85284850    587.864455    0.00000    0.00000    0.00000    0

 Final occupancy:   6   6   5   5

 !RHF STATE 1.1 Energy               -231.852848499909
 Nuclear energy                       218.02275470
 One-electron energy                 -743.80783091
 Two-electron energy                  293.93222771
 Virial quotient                       -1.00102046
 !RHF STATE 1.1 Dipole moment           0.00000000     0.00000000     0.00000000
 Dipole moment /Debye                   0.00000000     0.00000000     0.00000000

 Orbital energies:

         1.1          2.1          3.1          4.1          5.1          6.1          7.1          8.1
    -11.233301   -11.228630    -1.123376    -0.862230    -0.679009    -0.490911     0.174975     0.180704

         1.2          2.2          3.2          4.2          5.2          6.2          7.2          8.2
    -11.233302   -11.227009    -1.005513    -0.654043    -0.532055    -0.359255     0.217576     0.278929

         1.3          2.3          3.3          4.3          5.3          6.3          7.3
    -11.228690    -1.009122    -0.598199    -0.562024    -0.561798     0.193917     0.223591

         1.4          2.4          3.4          4.4          5.4          6.4          7.4
    -11.227043    -0.784831    -0.595692    -0.445760    -0.329897     0.256885     0.258194


 **********************************************************************************************************************************
 DATASETS  * FILE   NREC   LENGTH (MB)   RECORD NAMES
              1      19       65.03       500      610      700      900      950      970     1000      129      960     1100   
                                          VAR    BASINP    GEOM    SYMINP    ZMAT    AOBASIS   BASIS     P2S    ABASIS      S 
                                         1400     1410     1200     1210     1080     1600     1650     1300     1700   
                                           T        V       H0       H01     AOSYM     SMH    MOLCAS    ERIS     OPER   

              2       3        0.58       700     1000     2100   
                                         GEOM     BASIS     RHF  

 PROGRAMS   *        TOTAL       RHF       INT
 CPU TIMES  *         2.55      0.31      2.19
 REAL TIME  *         2.93 SEC
 DISK USED  *       245.00 MB      
 GA USED    *         0.00 MB       (max)       0.00 MB       (current)
 **********************************************************************************************************************************


1PROGRAM * CCSD (Closed-shell coupled cluster)     Authors: C. Hampel, H.-J. Werner, 1991, M. Deegan, P.J. Knowles, 1992


 Convergence thresholds:  THRVAR = 1.00D-08  THRDEN = 1.00D-12

 CCSD(T)     terms to be evaluated (factor= 1.000)


 Number of core orbitals:           6 (   2   2   1   1 )
 Number of closed-shell orbitals:  16 (   4   4   4   4 )
 Number of external orbitals:     102 (  26  26  25  25 )

 Molecular orbitals read from record     2100.2  Type=RHF/CANONICAL (state 1.1)

 Number of N-1 electron functions:              16
 Number of N-2 electron functions:             136
 Number of singly external CSFs:               408
 Number of doubly external CSFs:            333744
 Total number of CSFs:                      334153

 Length of J-op  integral file:               0.00 MB
 Length of K-op  integral file:               0.30 MB
 Length of 3-ext integral record:             0.00 MB

 Memory could be reduced to 6.04 Mwords without degradation in triples

 Integral transformation finished. Total CPU:   0.14 sec, npass=  1  Memory used:   2.01 MW

 Reference energy:                   -231.85284850

 MP2 singlet pair energy:              -0.50609545
 MP2 triplet pair energy:              -0.29375999
 MP2 correlation energy:               -0.79985544
 MP2 total energy:                   -232.65270394

 SCS-MP2 correlation energy:           -0.79009853   (PS=  1.200000  PT=  0.333333)
 SCS-MP2 total energy:               -232.64294703

 ITER.      SQ.NORM     CORR.ENERGY   TOTAL ENERGY   ENERGY CHANGE        DEN1      VAR(S)    VAR(P)  DIIS     TIME
   1      1.31773324    -0.85428409  -232.70713259    -0.05442865    -0.03138732  0.31D-02  0.53D-02  1  1     0.45
   2      1.34583417    -0.86009296  -232.71294146    -0.00580887    -0.02416540  0.68D-04  0.70D-03  2  2     0.79
   3      1.35416129    -0.86040121  -232.71324971    -0.00030825    -0.00384660  0.20D-04  0.68D-04  3  3     1.12
   4      1.35767279    -0.86052091  -232.71336941    -0.00011970    -0.00107076  0.10D-05  0.67D-05  4  4     1.45
   5      1.35849702    -0.86053271  -232.71338121    -0.00001180    -0.00017586  0.50D-07  0.65D-06  5  5     1.78
   6      1.35865196    -0.86052511  -232.71337361     0.00000760    -0.00002543  0.47D-08  0.35D-07  6  6     2.11
   7      1.35866709    -0.86052577  -232.71337427    -0.00000066     0.00000110  0.16D-08  0.31D-08  6  2     2.44
   8      1.35867169    -0.86052564  -232.71337414     0.00000013    -0.00000094  0.55D-10  0.34D-09  6  1     2.78
   9      1.35867173    -0.86052571  -232.71337421    -0.00000007     0.00000044  0.17D-10  0.51D-10  6  3     3.11
  10      1.35867166    -0.86052574  -232.71337424    -0.00000004     0.00000016  0.78D-12  0.81D-11  6  4     3.44
  11      1.35867110    -0.86052577  -232.71337427    -0.00000003     0.00000022  0.83D-13  0.11D-11  6  6     3.77
  12      1.35867100    -0.86052578  -232.71337428    -0.00000001     0.00000005  0.19D-13  0.95D-13  6  5     4.11
  13      1.35867100    -0.86052578  -232.71337428     0.00000000    -0.00000000  0.73D-14  0.15D-13  6  2     4.44
  14      1.35867102    -0.86052578  -232.71337428     0.00000000    -0.00000001  0.53D-15  0.13D-14  6  1     4.77
  15      1.35867102    -0.86052578  -232.71337428     0.00000000    -0.00000000  0.16D-15  0.14D-15  6  3     5.10
  16      1.35867102    -0.86052578  -232.71337428     0.00000000    -0.00000000  0.18D-16  0.23D-16  6  4     5.43
  17      1.35867102    -0.86052578  -232.71337428    -0.00000000     0.00000000  0.33D-17  0.37D-17  6  6     5.76
  18      1.35867102    -0.86052578  -232.71337428    -0.00000000     0.00000000  0.22D-18  0.62D-18  6  5     6.09
  19      1.35867102    -0.86052578  -232.71337428     0.00000000     0.00000000  0.27D-19  0.14D-18  6  2     6.43
  20      1.35867102    -0.86052578  -232.71337428     0.00000000    -0.00000000  0.64D-21  0.25D-19  6  1     6.76
  21      1.35867102    -0.86052578  -232.71337428     0.00000000    -0.00000000  0.13D-21  0.17D-20  6  4     7.09
  22      1.35867102    -0.86052578  -232.71337428     0.00000000    -0.00000000  0.15D-22  0.81D-22  6  3     7.43

 Norm of t1 vector:      0.07865101      S-energy:     0.00000000      T1 diagnostic:  0.00983138
                                                                       D1 diagnostic:  0.02870839

 Doubles amplitudes (print threshold =  0.500E-01):

         I         J         SYM. A    SYM. B    A         B      T(IJ, AB)

         8         8         1         1         1         1     -0.07429886
        16        16         3         3         1         1     -0.05782141
        16         8         3         1         1         1     -0.06066209


 Total CPU time for triples:      5.68 sec


 RESULTS
 =======

  Reference energy                   -231.852848499910
  CCSD singlet pair energy             -0.593133737576
  CCSD triplet pair energy             -0.267392041576
  CCSD correlation energy              -0.860525779151

  Triples (T) contribution             -0.032149473421
  Total correlation energy             -0.892675252572

  CCSD total energy                  -232.713374279061
  CCSD[T] energy                     -232.746252409250
  CCSD-T energy                      -232.745206976368
 !CCSD(T) total energy               -232.745523752482

 Timing summary (sec):

 STEP                 CPU(USER)    SYS     CPU(TOT)    WALL
 Transformation          0.14      0.05      0.19      0.18
 CCSD iterations         7.29      0.41      7.70      7.81
 Triples                 5.68      0.18      5.86      5.86

 Program statistics:

 Available memory in ccsd:               999998876
 Min. memory needed in ccsd:                895155
 Max. memory used in ccsd:                 1192763
 Max. memory used in cckext:               1196616 (22 integral passes)



 **********************************************************************************************************************************
 DATASETS  * FILE   NREC   LENGTH (MB)   RECORD NAMES
              1      20       88.81       500      610      700      900      950      970     1000      129      960     1100   
                                          VAR    BASINP    GEOM    SYMINP    ZMAT    AOBASIS   BASIS     P2S    ABASIS      S 
                                         1400     1410     1200     1210     1080     1600     1650     1300     1700     1380   
                                           T        V       H0       H01     AOSYM     SMH    MOLCAS    ERIS     OPER     JKOP   

              2       3        0.58       700     1000     2100   
                                         GEOM     BASIS     RHF  

 PROGRAMS   *        TOTAL   CCSD(T)       RHF       INT
 CPU TIMES  *        15.67     13.13      0.31      2.19
 REAL TIME  *        16.81 SEC
 DISK USED  *       245.00 MB      
 GA USED    *         0.00 MB       (max)       0.00 MB       (current)
 **********************************************************************************************************************************

        CCSD(T)         RHF-SCF 
   -232.74552375   -231.85284850
 **********************************************************************************************************************************
 Variable memory released
