
 Primary working directories    : /tmp/1049102.692.gen4.q
 Secondary working directories  : /tmp/1049102.692.gen4.q
 Wavefunction directory         : /home/vulcan/mel64643/wfu/
 Main file repository           : /tmp/1049102.692.gen4.q/

 ARCHNAME  : Linux/x86_64
 FC        : /opt/intel/compilers_and_libraries_2016.1.150/linux/bin/intel64/ifort
 FCVERSION : 16.0.1
 BLASLIB   : -mkl
 id        : ccgc

 Nodes     nprocs
 n021         1
 ga_uses_ma=false, calling ma_init with nominal heap.
 GA-space will be limited to   8.0 MW (determined by -G option)

 Using customized tuning parameters: mindgm=10; mindgv=16; mindgc=4; mindgr=1; noblas=0; mincuda=1000; minvec=7
 default implementation of scratch files=df  

 ***,Optimization of h2o_3
 memory,1000,m
 gthresh,energy=1.0d-12,orbital=1.0d-10,oneint=1.0d-16,twoint=1.0d-16,optgrad=1.0d-6,compress=1.0d-13
 geomtyp=xyz
 
 
 
 bohr
 geometry = {
  C    0.9169802446    1.4048839726   -2.2734536899
  C    0.7416363302    2.7087015345    0.0180565109
  C    1.0001906722    1.4052543673    2.3020481630
  C    1.4324907343   -1.2020622305    2.2945309734
  C    1.6085620493   -2.5053884681    0.0030628926
  C    1.3500662502   -1.2017176805   -2.2807246392
  H    0.7074834476    2.4141509601   -4.0432314948
  H    0.3902314256    4.7312404078    0.0239420855
  H    0.8587018090    2.4177502395    4.0827161075
  H    1.6302553302   -2.2123882326    4.0654693971
  H    1.9407908775   -4.5215106896   -0.0027848039
  H    1.4837912827   -2.2098945186   -4.0532062680
  N   -5.4471393872   -0.3572444195   -0.0712447257
  H   -5.5967165643   -1.5722303063   -1.5561414067
  H   -6.0756913065   -1.3181095981    1.4730961955
  H   -3.5607013284   -0.0732249358    0.1979423796
 }
 
 basis=aug-cc-pvdz, H=cc-pvdz
 {rhf;maxit,200}
 {ccsd(t)}

 Variables initialized (661), CPU time= 0.00 sec
 Commands  initialized (458), CPU time= 0.00 sec, 486 directives.
 Default parameters read. Elapsed time= 0.06 sec

 Checking input...
 Passed
1


                                         ***  PROGRAM SYSTEM MOLPRO  ***
                         Copyright, University College Cardiff Consultants Limited, 2008

                                    Version 2010.1 linked May 16 2016 07:17:05


 **********************************************************************************************************************************
 LABEL *   Optimization of h2o_3                                                         
 Linux-4.4.3/n021(x86_64) 64 bit mpp version                                             DATE: 19-Mar-24          TIME: 17:25:52  
 **********************************************************************************************************************************

 SHA1:             9e8077add272b0f3cad6f7df79ec5211205f459d
 **********************************************************************************************************************************

 THRESHOLDS:

 ZERO    =  1.00D-12  ONEINT  =  1.00D-16  TWOINT  =  1.00D-16  PREFAC  =  1.00D-14  LOCALI  =  1.00D-09  EORDER  =  1.00D-04
 ENERGY  =  1.00D-12  ETEST   =  0.00D+00  EDENS   =  0.00D+00  THRDEDEF=  1.00D-06  GRADIENT=  1.00D-02  STEP    =  1.00D-03
 ORBITAL =  1.00D-10  CIVEC   =  1.00D-05  COEFF   =  1.00D-04  PRINTCI =  5.00D-02  PUNCHCI =  9.90D+01  OPTGRAD =  1.00D-06
 OPTENERG=  1.00D-06  OPTSTEP =  3.00D-04  THRGRAD =  1.00D-10  COMPRESS=  1.00D-13  VARMIN  =  1.00D-07  VARMAX  =  1.00D-03
 THRDOUB =  0.00D+00  THRDIV  =  1.00D-05  THRRED  =  1.00D-07  THRPSP  =  1.00D+00  THRDC   =  1.00D-10  THRCS   =  1.00D-10
 THRNRM  =  1.00D-08  THREQ   =  0.00D+00  THRDE   =  1.00D+00  THRREF  =  1.00D-05  SPARFAC =  1.00D+00  THRDLP  =  1.00D-07
 THRDIA  =  1.00D-10  THRDLS  =  1.00D-07  THRGPS  =  0.00D+00  THRKEX  =  0.00D+00  THRDIS  =  2.00D-01  THRVAR  =  1.00D-10
 THRLOC  =  1.00D-06  THRGAP  =  1.00D-06  THRLOCT = -1.00D+00  THRGAPT = -1.00D+00  THRORB  =  1.00D-06  THRMLTP =  0.00D+00
 THRCPQCI=  1.00D-10  KEXTA   =  0.00D+00  THRCOARS=  0.00D+00  SYMTOL  =  1.00D-06  GRADTOL =  1.00D-06  THROVL  =  1.00D-08
 THRORTH =  1.00D-08  GRID    =  1.00D-06  GRIDMAX =  1.00D-03  DTMAX   =  0.00D+00

 SETTING GEOMTYP        =    XYZ
 ZUNIT=BOHR
 

 Variable memory set to 1000000000 words,  buffer space   230000 words

 SETTING BASIS          =    AUG-CC-PVDZ,H=CC-PVDZ


 Recomputing integrals since basis changed


 Using spherical harmonics

 Library entry C      S aug-cc-pVDZ          selected for orbital group  1
 Library entry C      P aug-cc-pVDZ          selected for orbital group  1
 Library entry C      D aug-cc-pVDZ          selected for orbital group  1
 Library entry H      S cc-pVDZ              selected for orbital group  2
 Library entry H      P cc-pVDZ              selected for orbital group  2
 Library entry N      S aug-cc-pVDZ          selected for orbital group  3
 Library entry N      P aug-cc-pVDZ          selected for orbital group  3
 Library entry N      D aug-cc-pVDZ          selected for orbital group  3

1PROGRAM * SEWARD (Integral evaluation for generally contracted gaussian basis sets)     Author: Roland Lindh, 1990

 Geometry written to block  1 of record 700


 Point group  C1  



 ATOMIC COORDINATES

 NR  ATOM    CHARGE       X              Y              Z

   1  C       6.00    0.916980245    1.404883973   -2.273453690
   2  C       6.00    0.741636330    2.708701534    0.018056511
   3  C       6.00    1.000190672    1.405254367    2.302048163
   4  C       6.00    1.432490734   -1.202062230    2.294530973
   5  C       6.00    1.608562049   -2.505388468    0.003062893
   6  C       6.00    1.350066250   -1.201717681   -2.280724639
   7  H       1.00    0.707483448    2.414150960   -4.043231495
   8  H       1.00    0.390231426    4.731240408    0.023942086
   9  H       1.00    0.858701809    2.417750240    4.082716107
  10  H       1.00    1.630255330   -2.212388233    4.065469397
  11  H       1.00    1.940790878   -4.521510690   -0.002784804
  12  H       1.00    1.483791283   -2.209894519   -4.053206268
  13  N       7.00   -5.447139387   -0.357244420   -0.071244726
  14  H       1.00   -5.596716564   -1.572230306   -1.556141407
  15  H       1.00   -6.075691307   -1.318109598    1.473096195
  16  H       1.00   -3.560701328   -0.073224936    0.197942380

 Bond lengths in Bohr (Angstrom)

 1-2  2.642291567  1-6  2.642345271  1-7  2.048077694  2-3  2.642431216  2-8  2.052847666
     ( 1.398240477)     ( 1.398268896)     ( 1.083796038)     ( 1.398314376)     ( 1.086320199)

  3- 4  2.642922567   3- 9  2.053276727   4- 5  2.642061005   4-10  2.048436566   5- 6  2.642359380
       ( 1.398574387)       ( 1.086547248)       ( 1.398118469)       ( 1.083985945)       ( 1.398276362)

  5-11  2.043320582   6-12  2.043524907  13-14  1.924443346  13-15  1.924403359  13-16  1.926597341
       ( 1.081278683)       ( 1.081386807)       ( 1.018371558)       ( 1.018350398)       ( 1.019511404)

 Bond angles

  1- 2- 3  119.98067230   1- 2- 8  120.00017357   1- 6- 5  120.02353218   1- 6-12  119.98613476

  2-1-6  120.00199137   2-1-7  119.96358307   2-3-4  120.01167894   2-3-9  119.97429899

  3- 2- 8  120.01747712   3- 4- 5  120.00136290   3- 4-10  119.99378378   4- 3- 9  120.01369035

  4- 5- 6  119.98073436   4- 5-11  120.00333280   5- 4-10  120.00484861   5- 6-12  119.99031852

  6- 1- 7  120.03368566   6- 5-11  120.01581883  14-13-15  106.17607580  14-13-16  106.08043224

 15-13-16  106.33745552

 NUCLEAR CHARGE:                   52
 NUMBER OF PRIMITIVE AOS:         322
 NUMBER OF SYMMETRY AOS:          308
 NUMBER OF CONTRACTIONS:          206   ( 206A   )
 NUMBER OF CORE ORBITALS:           7   (   7A   )
 NUMBER OF VALENCE ORBITALS:       37   (  37A   )


 NUCLEAR REPULSION ENERGY  273.63509399


 Eigenvalues of metric

         1 0.861E-05 0.184E-04 0.228E-04 0.532E-04 0.643E-04 0.644E-04 0.107E-03 0.107E-03


 Contracted 2-electron integrals neglected if value below      1.0D-16
 AO integral compression algorithm  1   Integral accuracy      1.0D-16

     1891.893 MB (compressed) written to integral file ( 94.5%)

     Node minimum: 1891.893 MB, node maximum: 1891.893 MB


 NUMBER OF SORTED TWO-ELECTRON INTEGRALS:  227303181.     BUFFER LENGTH:  32768
 NUMBER OF SEGMENTS:  15  SEGMENT LENGTH:   15999503      RECORD LENGTH: 524288

 Memory used in sort:      16.56 MW

 SORT1 READ   250229806. AND WROTE   226401710. INTEGRALS IN    654 RECORDS. CPU TIME:     2.60 SEC, REAL TIME:     5.33 SEC
 SORT2 READ   226401710. AND WROTE   227303181. INTEGRALS IN   7217 RECORDS. CPU TIME:     1.52 SEC, REAL TIME:     2.48 SEC

 FILE SIZES:   FILE 1:  1742.7 MBYTE,  FILE 4:  2743.1 MBYTE,   TOTAL:   4485.9 MBYTE

 OPERATOR DM      FOR CENTER  0  COORDINATES:    0.000000    0.000000    0.000000


 **********************************************************************************************************************************
 DATASETS  * FILE   NREC   LENGTH (MB)   RECORD NAMES
              1      19     1743.26       500      610      700      900      950      970     1000      129      960     1100   
                                          VAR    BASINP    GEOM    SYMINP    ZMAT    AOBASIS   BASIS     P2S    ABASIS      S 
                                         1400     1410     1200     1210     1080     1600     1650     1300     1700   
                                           T        V       H0       H01     AOSYM     SMH    MOLCAS    ERIS     OPER   

 PROGRAMS   *        TOTAL       INT
 CPU TIMES  *        15.69     15.63
 REAL TIME  *        22.72 SEC
 DISK USED  *         6.38 GB      
 GA USED    *         0.01 MB       (max)       0.00 MB       (current)
 **********************************************************************************************************************************

1PROGRAM * RHF-SCF (CLOSED SHELL)       Authors: W. Meyer, H.-J. Werner


 NUMBER OF ELECTRONS:      26+   26-    SPACE SYMMETRY=1    SPIN SYMMETRY: Singlet 
 CONVERGENCE THRESHOLDS:    1.00E-10 (Density)    1.00E-13 (Energy)
 MAX. NUMBER OF ITERATIONS:      200
 INTERPOLATION TYPE:            DIIS
 INTERPOLATION STEPS:              2 (START)      1 (STEP)
 LEVEL SHIFTS:                  0.00 (CLOSED)  0.00 (OPEN) 



 Orbital guess generated from atomic densities. Full valence occupancy:   44

 Molecular orbital dump at record        2100.2

 ITERATION    DDIFF          GRAD             ENERGY        2-EL.EN.            DIPOLE MOMENTS         DIIS
    1      0.000D+00      0.000D+00      -286.85316786    740.737108    0.51913   -0.76211    0.14058    0
    2      0.000D+00      0.321D-02      -286.92062065    734.954871    0.43615   -0.38736    0.06028    1
    3      0.825D-02      0.133D-02      -286.92993427    737.587135    0.45224   -0.52307    0.09230    2
    4      0.218D-02      0.382D-03      -286.93115416    737.066481    0.45098   -0.49767    0.08352    3
    5      0.782D-03      0.528D-04      -286.93117812    737.054471    0.45676   -0.50728    0.08775    4
    6      0.134D-03      0.176D-04      -286.93118053    737.069744    0.45565   -0.50205    0.08549    5
    7      0.513D-04      0.549D-05      -286.93118081    737.066540    0.45630   -0.50421    0.08632    6
    8      0.148D-04      0.131D-05      -286.93118083    737.065564    0.45645   -0.50384    0.08615    7
    9      0.417D-05      0.550D-06      -286.93118083    737.066019    0.45648   -0.50394    0.08619    7
   10      0.150D-05      0.145D-06      -286.93118083    737.065969    0.45649   -0.50394    0.08619    7
   11      0.520D-06      0.414D-07      -286.93118083    737.065954    0.45650   -0.50394    0.08619    7
   12      0.143D-06      0.175D-07      -286.93118083    737.065968    0.45649   -0.50394    0.08619    8
   13      0.611D-07      0.761D-08      -286.93118083    737.065963    0.45649   -0.50394    0.08619    8
   14      0.335D-07      0.364D-08      -286.93118083    737.065965    0.45649   -0.50394    0.08619    8
   15      0.201D-07      0.140D-08      -286.93118083    737.065964    0.45649   -0.50394    0.08619    8
   16      0.728D-08      0.460D-09      -286.93118083    737.065964    0.45649   -0.50394    0.08619    9
   17      0.220D-08      0.125D-09      -286.93118083    737.065964    0.45649   -0.50394    0.08619    9
   18      0.443D-09      0.391D-10      -286.93118083    737.065964    0.45649   -0.50394    0.08619    8
   19      0.242D-09      0.172D-10      -286.93118083    737.065964    0.45649   -0.50394    0.08619    9
   20      0.127D-09      0.883D-11      -286.93118083    737.065964    0.45649   -0.50394    0.08619    9
   21      0.185D-09      0.413D-11      -286.93118083    737.065964    0.45649   -0.50394    0.08619    9
   22      0.199D-09      0.145D-11      -286.93118083    737.065964    0.45649   -0.50394    0.08619    9
   23      0.212D-09      0.762D-12      -286.93118083    737.065964    0.45649   -0.50394    0.08619    9
   24      0.915D-10      0.676D-12      -286.93118083    737.065964    0.45649   -0.50394    0.08619    0

 Final occupancy:  26

 !RHF STATE 1.1 Energy               -286.931180830289
 Nuclear energy                       273.63509399
 One-electron energy                 -929.09925703
 Two-electron energy                  368.53298221
 Virial quotient                       -1.00151973
 !RHF STATE 1.1 Dipole moment           0.45649321    -0.50394283     0.08618537
 Dipole moment /Debye                   1.16021402    -1.28081101     0.21904701

 Orbital energies:

         1.1          2.1          3.1          4.1          5.1          6.1          7.1          8.1          9.1         10.1
    -15.536015   -11.250583   -11.249948   -11.249762   -11.248797   -11.248634   -11.247952    -1.157501    -1.123979    -1.022065

        11.1         12.1         13.1         14.1         15.1         16.1         17.1         18.1         19.1         20.1
     -1.021961    -0.830646    -0.830551    -0.714515    -0.650463    -0.623929    -0.610466    -0.608564    -0.593587    -0.593458

        21.1         22.1         23.1         24.1         25.1         26.1         27.1         28.1
     -0.504874    -0.500105    -0.500024    -0.413285    -0.342982    -0.342003     0.063879     0.066420


 **********************************************************************************************************************************
 DATASETS  * FILE   NREC   LENGTH (MB)   RECORD NAMES
              1      19     1743.26       500      610      700      900      950      970     1000      129      960     1100   
                                          VAR    BASINP    GEOM    SYMINP    ZMAT    AOBASIS   BASIS     P2S    ABASIS      S 
                                         1400     1410     1200     1210     1080     1600     1650     1300     1700   
                                           T        V       H0       H01     AOSYM     SMH    MOLCAS    ERIS     OPER   

              2       3        1.40       700     1000     2100   
                                         GEOM     BASIS     RHF  

 PROGRAMS   *        TOTAL       RHF       INT
 CPU TIMES  *        59.27     43.58     15.63
 REAL TIME  *        71.24 SEC
 DISK USED  *         6.38 GB      
 GA USED    *         0.01 MB       (max)       0.00 MB       (current)
 **********************************************************************************************************************************


1PROGRAM * CCSD (Closed-shell coupled cluster)     Authors: C. Hampel, H.-J. Werner, 1991, M. Deegan, P.J. Knowles, 1992


 Convergence thresholds:  THRVAR = 1.00D-08  THRDEN = 1.00D-12

 CCSD(T)     terms to be evaluated (factor= 1.000)


 Number of core orbitals:           7 (   7 )
 Number of closed-shell orbitals:  19 (  19 )
 Number of external orbitals:     180 ( 180 )

 Molecular orbitals read from record     2100.2  Type=RHF/CANONICAL (state 1.1)

 Number of N-1 electron functions:              19
 Number of N-2 electron functions:             190
 Number of singly external CSFs:              3420
 Number of doubly external CSFs:           5849910
 Total number of CSFs:                     5853331

 Length of J-op  integral file:               0.00 MB
 Length of K-op  integral file:               2.96 MB
 Length of 3-ext integral record:             0.00 MB

 Memory could be reduced to 140.12 Mwords without degradation in triples

 Integral transformation finished. Total CPU:  16.82 sec, npass=  1  Memory used: 101.90 MW

 Reference energy:                   -286.93118083

 MP2 singlet pair energy:              -0.62080818
 MP2 triplet pair energy:              -0.38989306
 MP2 correlation energy:               -1.01070124
 MP2 total energy:                   -287.94188207

 SCS-MP2 correlation energy:           -0.98756994   (PS=  1.200000  PT=  0.333333)
 SCS-MP2 total energy:               -287.91875077

 ITER.      SQ.NORM     CORR.ENERGY   TOTAL ENERGY   ENERGY CHANGE        DEN1      VAR(S)    VAR(P)  DIIS     TIME
   1      1.38513197    -1.05499497  -287.98617580    -0.04429374    -0.01718902  0.36D-02  0.80D-02  1  1    69.36
   2      1.41468674    -1.06086772  -287.99204855    -0.00587275    -0.02707812  0.63D-04  0.10D-02  2  2   122.26
   3      1.42384051    -1.06096493  -287.99214576    -0.00009721    -0.00465437  0.27D-04  0.85D-04  3  3   175.14
   4      1.42778271    -1.06113409  -287.99231492    -0.00016916    -0.00121580  0.22D-05  0.11D-04  4  4   228.03
   5      1.42899689    -1.06116504  -287.99234587    -0.00003095    -0.00027340  0.27D-06  0.13D-05  5  5   280.88
   6      1.42929989    -1.06115478  -287.99233561     0.00001025    -0.00004358  0.24D-07  0.80D-07  6  6   333.79
   7      1.42934078    -1.06115641  -287.99233724    -0.00000163    -0.00000104  0.36D-08  0.82D-08  6  2   386.67
   8      1.42935006    -1.06115627  -287.99233710     0.00000015    -0.00000119  0.79D-09  0.77D-09  6  1   439.57
   9      1.42934991    -1.06115640  -287.99233723    -0.00000013     0.00000123  0.22D-09  0.94D-10  6  4   492.45
  10      1.42935114    -1.06115641  -287.99233724    -0.00000001    -0.00000019  0.59D-10  0.15D-10  6  3   545.32
  11      1.42935109    -1.06115643  -287.99233726    -0.00000002     0.00000013  0.14D-10  0.38D-11  6  5   598.36
  12      1.42935105    -1.06115643  -287.99233726    -0.00000000     0.00000003  0.15D-11  0.11D-11  6  6   651.29
  13      1.42935087    -1.06115643  -287.99233726    -0.00000000     0.00000006  0.69D-13  0.21D-12  6  2   704.18
  14      1.42935076    -1.06115643  -287.99233726    -0.00000000     0.00000003  0.83D-14  0.42D-13  6  1   757.07
  15      1.42935070    -1.06115644  -287.99233727    -0.00000000     0.00000001  0.90D-15  0.56D-14  6  3   809.94
  16      1.42935068    -1.06115644  -287.99233727    -0.00000000     0.00000000  0.12D-15  0.38D-15  6  4   862.79
  17      1.42935068    -1.06115644  -287.99233727    -0.00000000     0.00000000  0.32D-16  0.45D-16  6  5   915.73
  18      1.42935068    -1.06115644  -287.99233727    -0.00000000     0.00000000  0.84D-17  0.72D-17  6  6   968.58
  19      1.42935067    -1.06115644  -287.99233727    -0.00000000     0.00000000  0.24D-17  0.78D-18  6  2  1021.56
  20      1.42935067    -1.06115644  -287.99233727    -0.00000000     0.00000000  0.79D-18  0.19D-18  6  1  1074.42
  21      1.42935067    -1.06115644  -287.99233727    -0.00000000     0.00000000  0.34D-18  0.82D-19  6  2  1127.38
  22      1.42935067    -1.06115644  -287.99233727    -0.00000000     0.00000000  0.13D-18  0.39D-19  6  3  1180.27
  23      1.42935067    -1.06115644  -287.99233727    -0.00000000     0.00000000  0.48D-19  0.18D-19  6  4  1233.14

 Norm of t1 vector:      0.08392994      S-energy:    -0.00000000      T1 diagnostic:  0.00962742
                                                                       D1 diagnostic:  0.02624770

 Doubles amplitudes (print threshold =  0.500E-01):

         I         J         SYM. A    SYM. B    A         B      T(IJ, AB)

        18        18         1         1         6         6     -0.05127266
        19        19         1         1         7         7     -0.05465479


 Total CPU time for triples:   1022.52 sec


 RESULTS
 =======

  Reference energy                   -286.931180830291
  CCSD singlet pair energy             -0.711399850551
  CCSD triplet pair energy             -0.349756584812
  CCSD correlation energy              -1.061156435363

  Triples (T) contribution             -0.045627764512
  Total correlation energy             -1.106784199875

  CCSD total energy                  -287.992337265654
  CCSD[T] energy                     -288.038836481429
  CCSD-T energy                      -288.037575942354
 !CCSD(T) total energy               -288.037965030166

 Timing summary (sec):

 STEP                 CPU(USER)    SYS     CPU(TOT)    WALL
 Transformation         17.45      0.96     18.41     18.40
 CCSD iterations      1215.71     12.72   1228.43   1228.53
 Triples              1022.52     11.18   1033.70   1033.73

 Program statistics:

 Available memory in ccsd:               999998456
 Min. memory needed in ccsd:              14392275
 Max. memory used in ccsd:                19775697
 Max. memory used in cckext:              16737545 (23 integral passes)



 **********************************************************************************************************************************
 DATASETS  * FILE   NREC   LENGTH (MB)   RECORD NAMES
              1      20     2286.86       500      610      700      900      950      970     1000      129      960     1100   
                                          VAR    BASINP    GEOM    SYMINP    ZMAT    AOBASIS   BASIS     P2S    ABASIS      S 
                                         1400     1410     1200     1210     1080     1600     1650     1300     1700     1380   
                                           T        V       H0       H01     AOSYM     SMH    MOLCAS    ERIS     OPER     JKOP   

              2       3        1.40       700     1000     2100   
                                         GEOM     BASIS     RHF  

 PROGRAMS   *        TOTAL   CCSD(T)       RHF       INT
 CPU TIMES  *      2314.98   2255.70     43.58     15.63
 REAL TIME  *      2352.02 SEC
 DISK USED  *         6.38 GB      
 GA USED    *         0.01 MB       (max)       0.00 MB       (current)
 **********************************************************************************************************************************

        CCSD(T)         RHF-SCF 
   -288.03796503   -286.93118083
 **********************************************************************************************************************************
 Variable memory released
