
 Primary working directories    : /tmp/1051568.77.gen6.q
 Secondary working directories  : /tmp/1051568.77.gen6.q
 Wavefunction directory         : /home/vulcan/mel64643/wfu/
 Main file repository           : /tmp/1051568.77.gen6.q/

 ARCHNAME  : Linux/x86_64
 FC        : /opt/intel/compilers_and_libraries_2016.1.150/linux/bin/intel64/ifort
 FCVERSION : 16.0.1
 BLASLIB   : -mkl
 id        : ccgc

 Nodes     nprocs
 n084         1
 ga_uses_ma=false, calling ma_init with nominal heap.
 GA-space will be limited to   8.0 MW (determined by -G option)

 Using customized tuning parameters: mindgm=10; mindgv=16; mindgc=4; mindgr=1; noblas=0; mincuda=1000; minvec=7
 default implementation of scratch files=df  

 ***,Optimization of min3
 memory,1000,m
 gthresh,energy=1.0d-12,orbital=1.0d-10,oneint=1.0d-16,twoint=1.0d-16,optgrad=1.0d-6,compress=1.0d-13
 geomtyp=xyz
 
 
 
  bohr
  geometry = {
  C    0.0000000000    0.0000000000   -2.6832641466
  C    0.0000000000    2.2598071494   -1.3267770775
  C    0.0000000000   -2.2598071494   -1.3267770775
  C    0.0000000000    2.1538327240    1.3105241310
  C    0.0000000000   -2.1538327240    1.3105241310
  N   -0.0000000000    0.0000000000    2.6494309709
  H    0.0000000000    0.0000000000   -4.7297291666
  H    0.0000000000    4.0631977683   -2.2763233799
  H    0.0000000000   -4.0631977683   -2.2763233799
  H    0.0000000000    3.8849003425    2.4080505976
  H    0.0000000000   -3.8849003425    2.4080505976
 }
 
 basis=cc-pvdz
 {rhf;maxit,200}
 {mp4}

 Variables initialized (661), CPU time= 0.01 sec
 Commands  initialized (458), CPU time= 0.00 sec, 486 directives.
 Default parameters read. Elapsed time= 0.05 sec

 Checking input...
 Passed
1


                                         ***  PROGRAM SYSTEM MOLPRO  ***
                         Copyright, University College Cardiff Consultants Limited, 2008

                                    Version 2010.1 linked May 16 2016 07:17:05


 **********************************************************************************************************************************
 LABEL *   Optimization of min3                                                          
 Linux-4.4.3/n084(x86_64) 64 bit mpp version                                             DATE: 14-Apr-24          TIME: 15:22:07  
 **********************************************************************************************************************************

 SHA1:             9e8077add272b0f3cad6f7df79ec5211205f459d
 **********************************************************************************************************************************

 THRESHOLDS:

 ZERO    =  1.00D-12  ONEINT  =  1.00D-16  TWOINT  =  1.00D-16  PREFAC  =  1.00D-14  LOCALI  =  1.00D-09  EORDER  =  1.00D-04
 ENERGY  =  1.00D-12  ETEST   =  0.00D+00  EDENS   =  0.00D+00  THRDEDEF=  1.00D-06  GRADIENT=  1.00D-02  STEP    =  1.00D-03
 ORBITAL =  1.00D-10  CIVEC   =  1.00D-05  COEFF   =  1.00D-04  PRINTCI =  5.00D-02  PUNCHCI =  9.90D+01  OPTGRAD =  1.00D-06
 OPTENERG=  1.00D-06  OPTSTEP =  3.00D-04  THRGRAD =  1.00D-10  COMPRESS=  1.00D-13  VARMIN  =  1.00D-07  VARMAX  =  1.00D-03
 THRDOUB =  0.00D+00  THRDIV  =  1.00D-05  THRRED  =  1.00D-07  THRPSP  =  1.00D+00  THRDC   =  1.00D-10  THRCS   =  1.00D-10
 THRNRM  =  1.00D-08  THREQ   =  0.00D+00  THRDE   =  1.00D+00  THRREF  =  1.00D-05  SPARFAC =  1.00D+00  THRDLP  =  1.00D-07
 THRDIA  =  1.00D-10  THRDLS  =  1.00D-07  THRGPS  =  0.00D+00  THRKEX  =  0.00D+00  THRDIS  =  2.00D-01  THRVAR  =  1.00D-10
 THRLOC  =  1.00D-06  THRGAP  =  1.00D-06  THRLOCT = -1.00D+00  THRGAPT = -1.00D+00  THRORB  =  1.00D-06  THRMLTP =  0.00D+00
 THRCPQCI=  1.00D-10  KEXTA   =  0.00D+00  THRCOARS=  0.00D+00  SYMTOL  =  1.00D-06  GRADTOL =  1.00D-06  THROVL  =  1.00D-08
 THRORTH =  1.00D-08  GRID    =  1.00D-06  GRIDMAX =  1.00D-03  DTMAX   =  0.00D+00

 SETTING GEOMTYP        =    XYZ
 ZUNIT=BOHR
 

 Variable memory set to 1000000000 words,  buffer space   230000 words

 SETTING BASIS          =    CC-PVDZ


 Recomputing integrals since basis changed


 Using spherical harmonics

 Library entry C      S cc-pVDZ              selected for orbital group  1
 Library entry C      P cc-pVDZ              selected for orbital group  1
 Library entry C      D cc-pVDZ              selected for orbital group  1
 Library entry N      S cc-pVDZ              selected for orbital group  2
 Library entry N      P cc-pVDZ              selected for orbital group  2
 Library entry N      D cc-pVDZ              selected for orbital group  2
 Library entry H      S cc-pVDZ              selected for orbital group  3
 Library entry H      P cc-pVDZ              selected for orbital group  3

1PROGRAM * SEWARD (Integral evaluation for generally contracted gaussian basis sets)     Author: Roland Lindh, 1990

 Geometry written to block  1 of record 700


 Point group  C2v 



 ATOMIC COORDINATES

 NR  ATOM    CHARGE       X              Y              Z

   1  C       6.00    0.000000000    0.000000000   -2.683264147
   2  C       6.00    0.000000000    2.259807149   -1.326777078
   3  C       6.00    0.000000000   -2.259807149   -1.326777078
   4  C       6.00    0.000000000    2.153832724    1.310524131
   5  C       6.00    0.000000000   -2.153832724    1.310524131
   6  N       7.00    0.000000000    0.000000000    2.649430971
   7  H       1.00    0.000000000    0.000000000   -4.729729167
   8  H       1.00    0.000000000    4.063197768   -2.276323380
   9  H       1.00    0.000000000   -4.063197768   -2.276323380
  10  H       1.00    0.000000000    3.884900342    2.408050598
  11  H       1.00    0.000000000   -3.884900342    2.408050598

 Bond lengths in Bohr (Angstrom)

 1-2  2.635675534  1-3  2.635675534  1-7  2.046465020  2-4  2.639429530  2-8  2.038101054
     ( 1.394739423)     ( 1.394739423)     ( 1.082942648)     ( 1.396725952)     ( 1.078516627)

  3- 5  2.639429530   3- 9  2.038101054   4- 6  2.536073132   4-10  2.049673009   5- 6  2.536073132
       ( 1.396725952)       ( 1.078516627)       ( 1.342032102)       ( 1.084640242)       ( 1.342032102)

  5-11  2.049673009
       ( 1.084640242)

 Bond angles

  1-2-4  118.67391980   1-2-8  121.25668137   1-3-5  118.67391980   1-3-9  121.25668137

  2- 1- 3  118.05001452   2- 1- 7  120.97499274   2- 4- 6  124.16777686   2- 4-10  120.07432314

  3- 1- 7  120.97499274   3- 5- 6  124.16777686   3- 5-11  120.07432314   4- 2- 8  120.06939884

  4- 6- 5  116.26659216   5- 3- 9  120.06939884   6- 4-10  115.75789999   6- 5-11  115.75789999

 NUCLEAR CHARGE:                   42
 NUMBER OF PRIMITIVE AOS:         197
 NUMBER OF SYMMETRY AOS:          191
 NUMBER OF CONTRACTIONS:          109   (  45A1  +  17B1  +  35B2  +  12A2  )
 NUMBER OF CORE ORBITALS:           6   (   4A1  +   0B1  +   2B2  +   0A2  )
 NUMBER OF VALENCE ORBITALS:       29   (  13A1  +   4B1  +  10B2  +   2A2  )


 NUCLEAR REPULSION ENERGY  205.82255869


 Eigenvalues of metric

         1 0.713E-03 0.378E-02 0.585E-02 0.153E-01 0.188E-01 0.244E-01 0.256E-01 0.287E-01
         2 0.543E-01 0.113E+00 0.174E+00 0.209E+00 0.296E+00 0.398E+00 0.423E+00 0.428E+00
         3 0.239E-02 0.280E-02 0.728E-02 0.151E-01 0.232E-01 0.303E-01 0.335E-01 0.516E-01
         4 0.102E+00 0.170E+00 0.298E+00 0.371E+00 0.440E+00 0.515E+00 0.537E+00 0.141E+01


 Contracted 2-electron integrals neglected if value below      1.0D-16
 AO integral compression algorithm  1   Integral accuracy      1.0D-16

     45.613 MB (compressed) written to integral file (100.0%)

     Node minimum: 45.613 MB, node maximum: 45.613 MB


 NUMBER OF SORTED TWO-ELECTRON INTEGRALS:    4859454.     BUFFER LENGTH:  32768
 NUMBER OF SEGMENTS:   1  SEGMENT LENGTH:    4859454      RECORD LENGTH: 524288

 Memory used in sort:       5.42 MW

 SORT1 READ     5684777. AND WROTE     4830485. INTEGRALS IN     14 RECORDS. CPU TIME:     0.10 SEC, REAL TIME:     0.13 SEC
 SORT2 READ     4830485. AND WROTE     4859454. INTEGRALS IN    174 RECORDS. CPU TIME:     0.08 SEC, REAL TIME:     0.10 SEC

 FILE SIZES:   FILE 1:    41.8 MBYTE,  FILE 4:    58.8 MBYTE,   TOTAL:    100.6 MBYTE

 OPERATOR DM      FOR CENTER  0  COORDINATES:    0.000000    0.000000    0.000000


 **********************************************************************************************************************************
 DATASETS  * FILE   NREC   LENGTH (MB)   RECORD NAMES
              1      19       41.87       500      610      700      900      950      970     1000      129      960     1100   
                                          VAR    BASINP    GEOM    SYMINP    ZMAT    AOBASIS   BASIS     P2S    ABASIS      S 
                                         1400     1410     1200     1210     1080     1600     1650     1300     1700   
                                           T        V       H0       H01     AOSYM     SMH    MOLCAS    ERIS     OPER   

 PROGRAMS   *        TOTAL       INT
 CPU TIMES  *         1.27      1.23
 REAL TIME  *         1.53 SEC
 DISK USED  *       147.02 MB      
 GA USED    *         0.00 MB       (max)       0.00 MB       (current)
 **********************************************************************************************************************************

1PROGRAM * RHF-SCF (CLOSED SHELL)       Authors: W. Meyer, H.-J. Werner


 NUMBER OF ELECTRONS:      21+   21-
 CONVERGENCE THRESHOLDS:    1.00E-10 (Density)    1.00E-13 (Energy)
 MAX. NUMBER OF ITERATIONS:      200
 INTERPOLATION TYPE:            DIIS
 INTERPOLATION STEPS:              2 (START)      1 (STEP)
 LEVEL SHIFTS:                  0.00 (CLOSED)  0.00 (OPEN) 



 Orbital guess generated from atomic densities. Full valence occupancy:   17   4  12   2

 Molecular orbital dump at record        2100.2

 Initial alpha occupancy:  11   2   7   1
 Initial beta  occupancy:  11   2   7   1
 Wave function symmetry:    1

 ITERATION    DDIFF          GRAD             ENERGY        2-EL.EN.            DIPOLE MOMENTS         DIIS
    1      0.000D+00      0.000D+00      -246.66530826    576.511190    0.00000    0.00000   -1.02443    0
    2      0.000D+00      0.816D-02      -246.70992920    575.112786    0.00000    0.00000   -0.90608    1
    3      0.167D-01      0.255D-02      -246.71382481    575.911567    0.00000    0.00000   -0.85608    2
    4      0.532D-02      0.106D-02      -246.71446064    575.680261    0.00000    0.00000   -0.88706    3
    5      0.203D-02      0.149D-03      -246.71447706    575.667553    0.00000    0.00000   -0.87847    4
    6      0.328D-03      0.502D-04      -246.71447928    575.676847    0.00000    0.00000   -0.87971    5
    7      0.106D-03      0.176D-04      -246.71447972    575.675043    0.00000    0.00000   -0.87921    6
    8      0.475D-04      0.691D-05      -246.71447984    575.674718    0.00000    0.00000   -0.87900    7
    9      0.285D-04      0.273D-05      -246.71447985    575.674946    0.00000    0.00000   -0.87888    7
   10      0.993D-05      0.107D-05      -246.71447986    575.674819    0.00000    0.00000   -0.87895    8
   11      0.379D-05      0.594D-06      -246.71447986    575.674788    0.00000    0.00000   -0.87891    8
   12      0.173D-05      0.150D-06      -246.71447986    575.674847    0.00000    0.00000   -0.87892    8
   13      0.453D-06      0.560D-07      -246.71447986    575.674832    0.00000    0.00000   -0.87892    9
   14      0.162D-06      0.915D-08      -246.71447986    575.674833    0.00000    0.00000   -0.87892    9
   15      0.301D-07      0.320D-08      -246.71447986    575.674833    0.00000    0.00000   -0.87892    8
   16      0.115D-07      0.838D-09      -246.71447986    575.674833    0.00000    0.00000   -0.87892    8
   17      0.207D-08      0.272D-09      -246.71447986    575.674833    0.00000    0.00000   -0.87892    8
   18      0.648D-09      0.759D-10      -246.71447986    575.674833    0.00000    0.00000   -0.87892    7
   19      0.293D-09      0.215D-10      -246.71447986    575.674833    0.00000    0.00000   -0.87892    7
   20      0.574D-10      0.794D-11      -246.71447986    575.674833    0.00000    0.00000   -0.87892    7
   21      0.175D-10      0.333D-11      -246.71447986    575.674833    0.00000    0.00000   -0.87892    8
   22      0.812D-11      0.825D-12      -246.71447986    575.674833    0.00000    0.00000   -0.87892    8
   23      0.223D-11      0.285D-12      -246.71447986    575.674833    0.00000    0.00000   -0.87892    8
   24      0.957D-12      0.760D-13      -246.71447986    575.674833    0.00000    0.00000   -0.87892    8
   25      0.629D-12      0.460D-13      -246.71447986    575.674833    0.00000    0.00000   -0.87892    8
   26      0.371D-12      0.455D-13      -246.71447986    575.674833    0.00000    0.00000   -0.87892    9
   27      0.267D-12      0.374D-13      -246.71447986    575.674833    0.00000    0.00000   -0.87892    9
   28      0.127D-12      0.396D-13      -246.71447986    575.674833    0.00000    0.00000   -0.87892    9
   29      0.720D-13      0.297D-13      -246.71447986    575.674833    0.00000    0.00000   -0.87892    0

 Final occupancy:  11   2   7   1

 !RHF STATE 1.1 Energy               -246.714479856730
 Nuclear energy                       205.82255869
 One-electron energy                 -740.37445501
 Two-electron energy                  287.83741646
 Virial quotient                       -1.00132022
 !RHF STATE 1.1 Dipole moment           0.00000000     0.00000000    -0.87892262
 Dipole moment /Debye                   0.00000000     0.00000000    -2.23385216

 Orbital energies:

         1.1          2.1          3.1          4.1          5.1          6.1          7.1          8.1          9.1         10.1
    -15.567865   -11.278170   -11.264263   -11.245775    -1.254129    -1.087877    -0.856715    -0.717739    -0.652693    -0.574308

        11.1         12.1         13.1
     -0.416437     0.183038     0.228860

         1.2          2.2          3.2          4.2
     -0.536242    -0.379917     0.115335     0.338839

         1.3          2.3          3.3          4.3          5.3          6.3          7.3          8.3          9.3
    -11.278185   -11.245820    -1.030870    -0.853215    -0.655487    -0.594283    -0.515647     0.214659     0.253024

         1.4          2.4          3.4
     -0.344174     0.130520     0.719249


 **********************************************************************************************************************************
 DATASETS  * FILE   NREC   LENGTH (MB)   RECORD NAMES
              1      19       41.87       500      610      700      900      950      970     1000      129      960     1100   
                                          VAR    BASINP    GEOM    SYMINP    ZMAT    AOBASIS   BASIS     P2S    ABASIS      S 
                                         1400     1410     1200     1210     1080     1600     1650     1300     1700   
                                           T        V       H0       H01     AOSYM     SMH    MOLCAS    ERIS     OPER   

              2       3        0.52       700     1000     2100   
                                         GEOM     BASIS     RHF  

 PROGRAMS   *        TOTAL       RHF       INT
 CPU TIMES  *         1.69      0.42      1.23
 REAL TIME  *         2.07 SEC
 DISK USED  *       147.02 MB      
 GA USED    *         0.00 MB       (max)       0.00 MB       (current)
 **********************************************************************************************************************************


1PROGRAM * MP4 (Closed-shell)     Authors: C. Hampel, H.-J. Werner, 1991, M. Deegan, P.J. Knowles, 1992


 Convergence thresholds:  THRVAR = 1.00D-08  THRDEN = 1.00D-12

 MP4(T)     terms to be evaluated (factor= 0.000)


 Number of core orbitals:           6 (   4   0   2   0 )
 Number of closed-shell orbitals:  15 (   7   2   5   1 )
 Number of external orbitals:      88 (  34  15  28  11 )

 Molecular orbitals read from record     2100.2  Type=RHF/CANONICAL (state 1.1)

 Number of N-1 electron functions:              15
 Number of N-2 electron functions:             120
 Number of singly external CSFs:               419
 Number of doubly external CSFs:            231695
 Total number of CSFs:                      232115

 Length of J-op  integral file:               0.00 MB
 Length of K-op  integral file:               0.28 MB

 Memory could be reduced to 3.95 Mwords without degradation in triples

 Integral transformation finished. Total CPU:   0.10 sec, npass=  1  Memory used:   1.54 MW

 Reference energy:                   -246.71447986

                        CORR.ENERGY   TOTAL ENERGY   ENERGY CHANGE
 MP2:                   -0.80892000  -247.52339985    -0.80892000

 SCS-MP2 correlation energy:           -0.78366985   (PS=  1.200000  PT=  0.333333)
 SCS-MP2 total energy:               -247.49814971

 MP3(D):                -0.83534871  -247.54982856    -0.02642871
 MP4(DQ):               -0.83401100  -247.54849086     0.00133771
 MP4(SDQ):              -0.84088369  -247.55536355    -0.00687269

 Norm of t1 vector:      0.07224594      S-energy:    -0.00687269      T1 diagnostic:  0.00932691


 Total CPU time for triples:      2.92 sec


 RESULTS
 =======

  Reference energy                   -246.714479856730
  MP4(SDQ) singlet pair energy         -0.537932249931
  MP4(SDQ) triplet pair energy         -0.296078749921
  MP4(SDQ) correlation energy          -0.840883690539

  Triples (T) contribution             -0.040803190630
  Total correlation energy             -0.881686881170

  MP4(SDTQ) total energy             -247.555363547269
 !MP4(SDTQ(T) total energy           -247.596166737899

 Timing summary (sec):

 STEP                 CPU(USER)    SYS     CPU(TOT)    WALL
 Transformation          0.11      0.03      0.14      0.14
 CCSD iterations         0.28      0.01      0.29      0.30
 Triples                 2.92      0.09      3.01      3.02

 Program statistics:

 Available memory in ccsd:               999999000
 Min. memory needed in ccsd:                653198
 Max. memory used in ccsd:                  857076
 Max. memory used in cckext:                910149 ( 1 integral passes)



 **********************************************************************************************************************************
 DATASETS  * FILE   NREC   LENGTH (MB)   RECORD NAMES
              1      20       57.61       500      610      700      900      950      970     1000      129      960     1100   
                                          VAR    BASINP    GEOM    SYMINP    ZMAT    AOBASIS   BASIS     P2S    ABASIS      S 
                                         1400     1410     1200     1210     1080     1600     1650     1300     1700     1380   
                                           T        V       H0       H01     AOSYM     SMH    MOLCAS    ERIS     OPER     JKOP   

              2       3        0.52       700     1000     2100   
                                         GEOM     BASIS     RHF  

 PROGRAMS   *        TOTAL       MP4       RHF       INT
 CPU TIMES  *         5.02      3.32      0.42      1.23
 REAL TIME  *         5.55 SEC
 DISK USED  *       147.02 MB      
 GA USED    *         0.00 MB       (max)       0.00 MB       (current)
 **********************************************************************************************************************************

        MP4             RHF-SCF 
   -247.59616674   -246.71447986
 **********************************************************************************************************************************
 Variable memory released
