
 Primary working directories    : /tmp/1011018.30.gen4.q
 Secondary working directories  : /tmp/1011018.30.gen4.q
 Wavefunction directory         : /home/vulcan/mel64643/wfu/
 Main file repository           : /tmp/1011018.30.gen4.q/

 ARCHNAME  : Linux/x86_64
 FC        : /opt/intel/compilers_and_libraries_2016.1.150/linux/bin/intel64/ifort
 FCVERSION : 16.0.1
 BLASLIB   : -mkl
 id        : ccgc

 Nodes     nprocs
 n065         1
 ga_uses_ma=false, calling ma_init with nominal heap.
 GA-space will be limited to   8.0 MW (determined by -G option)

 Using customized tuning parameters: mindgm=10; mindgv=16; mindgc=4; mindgr=1; noblas=0; mincuda=1000; minvec=7
 default implementation of scratch files=df  

 ***,Optimization of ethene_ethyne
 memory,1000,m
 gthresh,energy=1.0d-12,orbital=1.0d-10,oneint=1.0d-16,twoint=1.0d-16,optgrad=1.0d-6,compress=1.0d-13
 geomtyp=xyz
 
 
 
 bohr
 geometry = {
  C   -0.0000013267   -1.2698809110   -3.9718488984
  C    0.0000013267    1.2698809110   -3.9718488984
  H    1.7478730204   -2.3383241121   -3.9691473830
  H   -1.7478695653   -2.3383204599   -3.9778867577
  H   -1.7478730204    2.3383241121   -3.9691473830
  H    1.7478695653    2.3383204599   -3.9778867577
  C    0.0000000000   -0.0000000000    5.4004221736
  C   -0.0000000000   -0.0000000000    3.1120297976
  H   -0.0000000000   -0.0000000000    1.0966513256
  H    0.0000000000   -0.0000000000    7.4116142326
  X    2.0000000000    0.0000000000    5.4004221540
  X    0.0000000000    2.0000000000    5.4004221540
  X    2.0000000000    0.0000000000    3.1120297780
  X    0.0000000000    2.0000000000    3.1120297780
 }
 
 basis=aug-cc-pvdz, H=cc-pvdz
 {rhf;maxit,200}
 {mp2}

 Variables initialized (661), CPU time= 0.01 sec
 Commands  initialized (458), CPU time= 0.00 sec, 486 directives.
 Default parameters read. Elapsed time= 0.05 sec

 Checking input...
 Passed
1


                                         ***  PROGRAM SYSTEM MOLPRO  ***
                         Copyright, University College Cardiff Consultants Limited, 2008

                                    Version 2010.1 linked May 16 2016 07:17:05


 **********************************************************************************************************************************
 LABEL *   Optimization of ethene_ethyne                                                 
 Linux-4.4.3/n065(x86_64) 64 bit mpp version                                             DATE: 25-Feb-24          TIME: 03:05:22  
 **********************************************************************************************************************************

 SHA1:             9e8077add272b0f3cad6f7df79ec5211205f459d
 **********************************************************************************************************************************

 THRESHOLDS:

 ZERO    =  1.00D-12  ONEINT  =  1.00D-16  TWOINT  =  1.00D-16  PREFAC  =  1.00D-14  LOCALI  =  1.00D-09  EORDER  =  1.00D-04
 ENERGY  =  1.00D-12  ETEST   =  0.00D+00  EDENS   =  0.00D+00  THRDEDEF=  1.00D-06  GRADIENT=  1.00D-02  STEP    =  1.00D-03
 ORBITAL =  1.00D-10  CIVEC   =  1.00D-05  COEFF   =  1.00D-04  PRINTCI =  5.00D-02  PUNCHCI =  9.90D+01  OPTGRAD =  1.00D-06
 OPTENERG=  1.00D-06  OPTSTEP =  3.00D-04  THRGRAD =  1.00D-10  COMPRESS=  1.00D-13  VARMIN  =  1.00D-07  VARMAX  =  1.00D-03
 THRDOUB =  0.00D+00  THRDIV  =  1.00D-05  THRRED  =  1.00D-07  THRPSP  =  1.00D+00  THRDC   =  1.00D-10  THRCS   =  1.00D-10
 THRNRM  =  1.00D-08  THREQ   =  0.00D+00  THRDE   =  1.00D+00  THRREF  =  1.00D-05  SPARFAC =  1.00D+00  THRDLP  =  1.00D-07
 THRDIA  =  1.00D-10  THRDLS  =  1.00D-07  THRGPS  =  0.00D+00  THRKEX  =  0.00D+00  THRDIS  =  2.00D-01  THRVAR  =  1.00D-10
 THRLOC  =  1.00D-06  THRGAP  =  1.00D-06  THRLOCT = -1.00D+00  THRGAPT = -1.00D+00  THRORB  =  1.00D-06  THRMLTP =  0.00D+00
 THRCPQCI=  1.00D-10  KEXTA   =  0.00D+00  THRCOARS=  0.00D+00  SYMTOL  =  1.00D-06  GRADTOL =  1.00D-06  THROVL  =  1.00D-08
 THRORTH =  1.00D-08  GRID    =  1.00D-06  GRIDMAX =  1.00D-03  DTMAX   =  0.00D+00

 SETTING GEOMTYP        =    XYZ
 ZUNIT=BOHR
 

 Variable memory set to 1000000000 words,  buffer space   230000 words

 SETTING BASIS          =    AUG-CC-PVDZ,H=CC-PVDZ


 Recomputing integrals since basis changed


 Using spherical harmonics

 Library entry C      S aug-cc-pVDZ          selected for orbital group  1
 Library entry C      P aug-cc-pVDZ          selected for orbital group  1
 Library entry C      D aug-cc-pVDZ          selected for orbital group  1
 Library entry H      S cc-pVDZ              selected for orbital group  2
 Library entry H      P cc-pVDZ              selected for orbital group  2

1PROGRAM * SEWARD (Integral evaluation for generally contracted gaussian basis sets)     Author: Roland Lindh, 1990

 Geometry written to block  1 of record 700


 Point group  C2  



 ATOMIC COORDINATES

 NR  ATOM    CHARGE       X              Y              Z

   1  C       6.00   -0.000001327   -1.269880911   -3.971848898
   2  C       6.00    0.000001327    1.269880911   -3.971848898
   3  H       1.00    1.747873020   -2.338324112   -3.969147383
   4  H       1.00   -1.747873020    2.338324112   -3.969147383
   5  H       1.00   -1.747869565   -2.338320460   -3.977886758
   6  H       1.00    1.747869565    2.338320460   -3.977886758
   7  C       6.00    0.000000000    0.000000000    5.400422174
   8  C       6.00    0.000000000    0.000000000    3.112029798
   9  H       1.00    0.000000000    0.000000000    1.096651326
  10  H       1.00    0.000000000    0.000000000    7.411614233

 Bond lengths in Bohr (Angstrom)

 1-2  2.539761822  1-3  2.048570942  1-5  2.048570942  2-4  2.048570942  2-6  2.048570942
     ( 1.343984072)     ( 1.084057054)     ( 1.084057054)     ( 1.084057054)     ( 1.084057054)

  7- 8  2.288392376   7-10  2.011192059   8- 9  2.015378472
       ( 1.210965091)       ( 1.064277001)       ( 1.066492355)

 Bond angles

  1-2-4  121.43658156   1-2-6  121.43658156   2-1-3  121.43658156   2-1-5  121.43658156

  3- 1- 5  117.12675151   4- 2- 6  117.12675151   7- 8- 9  180.00000000   8- 7-10  180.00000000

 NUCLEAR CHARGE:                   30
 NUMBER OF PRIMITIVE AOS:         190
 NUMBER OF SYMMETRY AOS:          182
 NUMBER OF CONTRACTIONS:          122   (  65A   +  57B   )
 NUMBER OF CORE ORBITALS:           4   (   3A   +   1B   )
 NUMBER OF VALENCE ORBITALS:       22   (  12A   +  10B   )


 NUCLEAR REPULSION ENERGY   85.42007236


 Eigenvalues of metric

         1 0.820E-04 0.227E-03 0.292E-02 0.484E-02 0.665E-02 0.692E-02 0.852E-02 0.102E-01
         2 0.175E-03 0.272E-03 0.499E-02 0.575E-02 0.853E-02 0.963E-02 0.114E-01 0.183E-01


 Contracted 2-electron integrals neglected if value below      1.0D-16
 AO integral compression algorithm  1   Integral accuracy      1.0D-16

     103.023 MB (compressed) written to integral file ( 73.4%)

     Node minimum: 103.023 MB, node maximum: 103.023 MB


 NUMBER OF SORTED TWO-ELECTRON INTEGRALS:   14305671.     BUFFER LENGTH:  32768
 NUMBER OF SEGMENTS:   1  SEGMENT LENGTH:   14305671      RECORD LENGTH: 524288

 Memory used in sort:      14.86 MW

 SORT1 READ    17552419. AND WROTE    13308046. INTEGRALS IN     39 RECORDS. CPU TIME:     0.18 SEC, REAL TIME:     0.26 SEC
 SORT2 READ    13308046. AND WROTE    14305671. INTEGRALS IN    393 RECORDS. CPU TIME:     0.18 SEC, REAL TIME:     0.25 SEC

 FILE SIZES:   FILE 1:    90.7 MBYTE,  FILE 4:   163.6 MBYTE,   TOTAL:    254.3 MBYTE

 OPERATOR DM      FOR CENTER  0  COORDINATES:    0.000000    0.000000    0.000000


 **********************************************************************************************************************************
 DATASETS  * FILE   NREC   LENGTH (MB)   RECORD NAMES
              1      19       90.83       500      610      700      900      950      970     1000      129      960     1100   
                                          VAR    BASINP    GEOM    SYMINP    ZMAT    AOBASIS   BASIS     P2S    ABASIS      S 
                                         1400     1410     1200     1210     1080     1600     1650     1300     1700   
                                           T        V       H0       H01     AOSYM     SMH    MOLCAS    ERIS     OPER   

 PROGRAMS   *        TOTAL       INT
 CPU TIMES  *         1.43      1.38
 REAL TIME  *         1.79 SEC
 DISK USED  *       358.29 MB      
 GA USED    *         0.00 MB       (max)       0.00 MB       (current)
 **********************************************************************************************************************************

1PROGRAM * RHF-SCF (CLOSED SHELL)       Authors: W. Meyer, H.-J. Werner


 NUMBER OF ELECTRONS:      15+   15-
 CONVERGENCE THRESHOLDS:    1.00E-10 (Density)    1.00E-13 (Energy)
 MAX. NUMBER OF ITERATIONS:      200
 INTERPOLATION TYPE:            DIIS
 INTERPOLATION STEPS:              2 (START)      1 (STEP)
 LEVEL SHIFTS:                  0.00 (CLOSED)  0.00 (OPEN) 



 Orbital guess generated from atomic densities. Full valence occupancy:   15  11

 Molecular orbital dump at record        2100.2

 Initial alpha occupancy:  10   5
 Initial beta  occupancy:  10   5
 Wave function symmetry:    1

 ITERATION    DDIFF          GRAD             ENERGY        2-EL.EN.            DIPOLE MOMENTS         DIIS
    1      0.000D+00      0.000D+00      -154.83506674    273.214076    0.00000    0.00000   -0.05937    0
    2      0.000D+00      0.485D-02      -154.86697743    270.896210    0.00000    0.00000   -0.14670    1
    3      0.120D-01      0.151D-02      -154.86988989    271.783747    0.00000    0.00000   -0.12275    2
    4      0.296D-02      0.436D-03      -154.87027812    271.572011    0.00000    0.00000   -0.14273    3
    5      0.124D-02      0.907D-04      -154.87029040    271.589062    0.00000    0.00000   -0.13542    4
    6      0.219D-03      0.409D-04      -154.87029249    271.589572    0.00000    0.00000   -0.14048    5
    7      0.701D-04      0.887D-05      -154.87029263    271.588958    0.00000    0.00000   -0.14021    6
    8      0.220D-04      0.205D-05      -154.87029264    271.588885    0.00000    0.00000   -0.14042    7
    9      0.555D-05      0.500D-06      -154.87029264    271.588921    0.00000    0.00000   -0.14046    7
   10      0.172D-05      0.719D-07      -154.87029264    271.588919    0.00000    0.00000   -0.14047    7
   11      0.304D-06      0.176D-07      -154.87029264    271.588922    0.00000    0.00000   -0.14047    6
   12      0.616D-07      0.780D-08      -154.87029264    271.588920    0.00000    0.00000   -0.14047    6
   13      0.235D-07      0.432D-08      -154.87029264    271.588921    0.00000    0.00000   -0.14047    7
   14      0.190D-07      0.178D-08      -154.87029264    271.588921    0.00000    0.00000   -0.14047    7
   15      0.805D-08      0.637D-09      -154.87029264    271.588921    0.00000    0.00000   -0.14047    8
   16      0.217D-08      0.144D-09      -154.87029264    271.588921    0.00000    0.00000   -0.14047    8
   17      0.372D-09      0.268D-10      -154.87029264    271.588921    0.00000    0.00000   -0.14047    8
   18      0.939D-10      0.776D-11      -154.87029264    271.588921    0.00000    0.00000   -0.14047    8
   19      0.241D-10      0.170D-11      -154.87029264    271.588921    0.00000    0.00000   -0.14047    8
   20      0.595D-11      0.571D-12      -154.87029264    271.588921    0.00000    0.00000   -0.14047    0

 Final occupancy:  10   5

 !RHF STATE 1.1 Energy               -154.870292641067
 Nuclear energy                        85.42007236
 One-electron energy                 -376.08482556
 Two-electron energy                  135.79446056
 Virial quotient                       -1.00231669
 !RHF STATE 1.1 Dipole moment           0.00000000     0.00000000    -0.14046774
 Dipole moment /Debye                   0.00000000     0.00000000    -0.35701000

 Orbital energies:

         1.1          2.1          3.1          4.1          5.1          6.1          7.1          8.1          9.1         10.1
    -11.251358   -11.248249   -11.244605    -1.042982    -1.024240    -0.760377    -0.671683    -0.594334    -0.516752    -0.385276

        11.1         12.1
      0.065114     0.080439

         1.2          2.2          3.2          4.2          5.2          6.2          7.2
    -11.249787    -0.803438    -0.650862    -0.402007    -0.402003     0.065106     0.092623


 **********************************************************************************************************************************
 DATASETS  * FILE   NREC   LENGTH (MB)   RECORD NAMES
              1      19       90.83       500      610      700      900      950      970     1000      129      960     1100   
                                          VAR    BASINP    GEOM    SYMINP    ZMAT    AOBASIS   BASIS     P2S    ABASIS      S 
                                         1400     1410     1200     1210     1080     1600     1650     1300     1700   
                                           T        V       H0       H01     AOSYM     SMH    MOLCAS    ERIS     OPER   

              2       3        0.64       700     1000     2100   
                                         GEOM     BASIS     RHF  

 PROGRAMS   *        TOTAL       RHF       INT
 CPU TIMES  *         3.18      1.75      1.38
 REAL TIME  *         3.76 SEC
 DISK USED  *       358.29 MB      
 GA USED    *         0.00 MB       (max)       0.00 MB       (current)
 **********************************************************************************************************************************


1PROGRAM * MP2 (Closed-shell)     Authors: C. Hampel, H.-J. Werner, 1991, M. Deegan, P.J. Knowles, 1992


 Convergence thresholds:  THRVAR = 1.00D-08  THRDEN = 1.00D-12

 Number of core orbitals:           4 (   3   1 )
 Number of closed-shell orbitals:  11 (   7   4 )
 Number of external orbitals:     107 (  55  52 )

 Molecular orbitals read from record     2100.2  Type=RHF/CANONICAL (state 1.1)

 Number of N-1 electron functions:              11
 Number of N-2 electron functions:              66
 Number of singly external CSFs:               593
 Number of doubly external CSFs:            346941
 Total number of CSFs:                      347535

 Length of J-op  integral file:               0.00 MB
 Length of K-op  integral file:               0.54 MB

 Integral transformation finished. Total CPU:   0.20 sec, npass=  1  Memory used:   0.66 MW

 Memory needed for MP2:                      0.04 MW

 SCS-MP2 correlation energy:           -0.548355340642   (PS=  1.200000  PT=  0.333333)
 SCS-MP2 total energy:               -155.418647981709


  Reference energy                   -154.870292641067
  MP2 singlet pair energy              -0.358058157597
  MP2 triplet pair energy              -0.190744636381
  MP2 correlation energy               -0.548802793978

 !MP2 total energy                   -155.419095435045


 **********************************************************************************************************************************
 DATASETS  * FILE   NREC   LENGTH (MB)   RECORD NAMES
              1      20       96.87       500      610      700      900      950      970     1000      129      960     1100   
                                          VAR    BASINP    GEOM    SYMINP    ZMAT    AOBASIS   BASIS     P2S    ABASIS      S 
                                         1400     1410     1200     1210     1080     1600     1650     1300     1700     1380   
                                           T        V       H0       H01     AOSYM     SMH    MOLCAS    ERIS     OPER     JKOP   

              2       3        0.64       700     1000     2100   
                                         GEOM     BASIS     RHF  

 PROGRAMS   *        TOTAL       MP2       RHF       INT
 CPU TIMES  *         3.41      0.23      1.75      1.38
 REAL TIME  *         4.03 SEC
 DISK USED  *       358.29 MB      
 GA USED    *         0.00 MB       (max)       0.00 MB       (current)
 **********************************************************************************************************************************

        MP2             RHF-SCF 
   -155.41909544   -154.87029264
 **********************************************************************************************************************************
 Variable memory released
