
 Primary working directories    : /tmp/917057.368.gen4.q
 Secondary working directories  : /tmp/917057.368.gen4.q
 Wavefunction directory         : /home/vulcan/lo21740/wfu/
 Main file repository           : /tmp/917057.368.gen4.q/

 ARCHNAME  : Linux/x86_64
 FC        : /opt/intel/compilers_and_libraries_2016.1.150/linux/bin/intel64/ifort
 FCVERSION : 16.0.1
 BLASLIB   : -mkl
 id        : ccgc

 Nodes     nprocs
 n067         1
 ga_uses_ma=false, calling ma_init with nominal heap.
 GA-space will be limited to   8.0 MW (determined by -G option)

 Using customized tuning parameters: mindgm=10; mindgv=16; mindgc=4; mindgr=1; noblas=0; mincuda=1000; minvec=7
 default implementation of scratch files=df  

 ***,Optimization of h2o_2
 memory,1000,m
 gthresh,energy=1.0d-12,orbital=1.0d-10,oneint=1.0d-16,twoint=1.0d-16,optgrad=1.0d-6,compress=1.0d-13
 geomtyp=xyz
 
 bohr
 geometry = {
  C    0.0011502528   -3.4217431318   -0.0012081765
  H   -0.9750153892   -2.7345276831   -1.6798657731
  H   -0.9628166688   -2.7283700262    1.6819606046
  H    1.9425118284   -2.7331948816   -0.0095137743
  H   -0.0000733911   -5.4815511653    0.0025691301
  C   -0.0011502200    3.4217431319    0.0012081904
  H    0.0001096954    5.4815511720   -0.0025535140
  H    0.9750008463    2.7283712004   -1.6749242912
  H    0.9628069991    2.7345180914    1.6869020848
  H   -1.9425239530    2.7332032924   -0.0045744808
 }
 
 basis=AVDZ
 {rhf;maxit,200}
 {ccsd(t);maxit,200}

 Variables initialized (661), CPU time= 0.00 sec
 Commands  initialized (458), CPU time= 0.00 sec, 486 directives.
 Default parameters read. Elapsed time= 0.04 sec

 Checking input...
 Passed
1


                                         ***  PROGRAM SYSTEM MOLPRO  ***
                         Copyright, University College Cardiff Consultants Limited, 2008

                                    Version 2010.1 linked May 16 2016 07:17:05


 **********************************************************************************************************************************
 LABEL *   Optimization of h2o_2                                                         
 Linux-4.4.3/n067(x86_64) 64 bit mpp version                                             DATE: 20-Jul-23          TIME: 14:24:11  
 **********************************************************************************************************************************

 SHA1:             9e8077add272b0f3cad6f7df79ec5211205f459d
 **********************************************************************************************************************************

 THRESHOLDS:

 ZERO    =  1.00D-12  ONEINT  =  1.00D-16  TWOINT  =  1.00D-16  PREFAC  =  1.00D-14  LOCALI  =  1.00D-09  EORDER  =  1.00D-04
 ENERGY  =  1.00D-12  ETEST   =  0.00D+00  EDENS   =  0.00D+00  THRDEDEF=  1.00D-06  GRADIENT=  1.00D-02  STEP    =  1.00D-03
 ORBITAL =  1.00D-10  CIVEC   =  1.00D-05  COEFF   =  1.00D-04  PRINTCI =  5.00D-02  PUNCHCI =  9.90D+01  OPTGRAD =  1.00D-06
 OPTENERG=  1.00D-06  OPTSTEP =  3.00D-04  THRGRAD =  1.00D-10  COMPRESS=  1.00D-13  VARMIN  =  1.00D-07  VARMAX  =  1.00D-03
 THRDOUB =  0.00D+00  THRDIV  =  1.00D-05  THRRED  =  1.00D-07  THRPSP  =  1.00D+00  THRDC   =  1.00D-10  THRCS   =  1.00D-10
 THRNRM  =  1.00D-08  THREQ   =  0.00D+00  THRDE   =  1.00D+00  THRREF  =  1.00D-05  SPARFAC =  1.00D+00  THRDLP  =  1.00D-07
 THRDIA  =  1.00D-10  THRDLS  =  1.00D-07  THRGPS  =  0.00D+00  THRKEX  =  0.00D+00  THRDIS  =  2.00D-01  THRVAR  =  1.00D-10
 THRLOC  =  1.00D-06  THRGAP  =  1.00D-06  THRLOCT = -1.00D+00  THRGAPT = -1.00D+00  THRORB  =  1.00D-06  THRMLTP =  0.00D+00
 THRCPQCI=  1.00D-10  KEXTA   =  0.00D+00  THRCOARS=  0.00D+00  SYMTOL  =  1.00D-06  GRADTOL =  1.00D-06  THROVL  =  1.00D-08
 THRORTH =  1.00D-08  GRID    =  1.00D-06  GRIDMAX =  1.00D-03  DTMAX   =  0.00D+00

 SETTING GEOMTYP        =    XYZ
 ZUNIT=BOHR
 

 Variable memory set to 1000000000 words,  buffer space   230000 words

 SETTING BASIS          =    AVDZ


 Recomputing integrals since basis changed


 Using spherical harmonics

 Library entry C      S aug-cc-pVDZ          selected for orbital group  1
 Library entry C      P aug-cc-pVDZ          selected for orbital group  1
 Library entry C      D aug-cc-pVDZ          selected for orbital group  1
 Library entry H      S aug-cc-pVDZ          selected for orbital group  2
 Library entry H      P aug-cc-pVDZ          selected for orbital group  2

1PROGRAM * SEWARD (Integral evaluation for generally contracted gaussian basis sets)     Author: Roland Lindh, 1990

 Geometry written to block  1 of record 700


 Point group  C1  



 ATOMIC COORDINATES

 NR  ATOM    CHARGE       X              Y              Z

   1  C       6.00    0.001150253   -3.421743132   -0.001208176
   2  H       1.00   -0.975015389   -2.734527683   -1.679865773
   3  H       1.00   -0.962816669   -2.728370026    1.681960605
   4  H       1.00    1.942511828   -2.733194882   -0.009513774
   5  H       1.00   -0.000073391   -5.481551165    0.002569130
   6  C       6.00   -0.001150220    3.421743132    0.001208190
   7  H       1.00    0.000109695    5.481551172   -0.002553514
   8  H       1.00    0.975000846    2.728371200   -1.674924291
   9  H       1.00    0.962806999    2.734518091    1.686902085
  10  H       1.00   -1.942523953    2.733203292   -0.004574481

 Bond lengths in Bohr (Angstrom)

 1-2  2.059867899  1-3  2.059867868  1-4  2.059867094  1-5  2.059811860  6-7  2.059811860
     ( 1.090035146)     ( 1.090035129)     ( 1.090034719)     ( 1.090005491)     ( 1.090005491)

  6- 8  2.059867868   6- 9  2.059867880   6-10  2.059867112
       ( 1.090035130)       ( 1.090035136)       ( 1.090034729)

 Bond angles

  2-1-3  109.37992667   2-1-4  109.37980910   2-1-5  109.56240871   3-1-4  109.37980950

  3-1-5  109.56240713   4-1-5  109.56250119   7-6-8  109.56240714   7-6-9  109.56240910

  7- 6-10  109.56250081   8- 6- 9  109.37992553   8- 6-10  109.37981063   9- 6-10  109.37980910

 NUCLEAR CHARGE:                   20
 NUMBER OF PRIMITIVE AOS:         162
 NUMBER OF SYMMETRY AOS:          158
 NUMBER OF CONTRACTIONS:          118   ( 118A   )
 NUMBER OF CORE ORBITALS:           2   (   2A   )
 NUMBER OF VALENCE ORBITALS:       16   (  16A   )


 NUCLEAR REPULSION ENERGY   41.34198198


 Eigenvalues of metric

         1 0.370E-03 0.572E-03 0.573E-03 0.611E-03 0.728E-03 0.729E-03 0.778E-03 0.101E-02


 Contracted 2-electron integrals neglected if value below      1.0D-16
 AO integral compression algorithm  1   Integral accuracy      1.0D-16

     212.861 MB (compressed) written to integral file ( 93.2%)

     Node minimum: 212.861 MB, node maximum: 212.861 MB


 NUMBER OF SORTED TWO-ELECTRON INTEGRALS:   24650731.     BUFFER LENGTH:  32768
 NUMBER OF SEGMENTS:   2  SEGMENT LENGTH:   15997996      RECORD LENGTH: 524288

 Memory used in sort:      16.56 MW

 SORT1 READ    28594353. AND WROTE    24447725. INTEGRALS IN     71 RECORDS. CPU TIME:     0.27 SEC, REAL TIME:     0.41 SEC
 SORT2 READ    24447725. AND WROTE    24650731. INTEGRALS IN    812 RECORDS. CPU TIME:     0.23 SEC, REAL TIME:     0.32 SEC

 FILE SIZES:   FILE 1:   189.8 MBYTE,  FILE 4:   297.8 MBYTE,   TOTAL:    487.6 MBYTE

 OPERATOR DM      FOR CENTER  0  COORDINATES:    0.000000    0.000000    0.000000


 **********************************************************************************************************************************
 DATASETS  * FILE   NREC   LENGTH (MB)   RECORD NAMES
              1      19      189.94       500      610      700      900      950      970     1000      129      960     1100   
                                          VAR    BASINP    GEOM    SYMINP    ZMAT    AOBASIS   BASIS     P2S    ABASIS      S 
                                         1400     1410     1200     1210     1080     1600     1650     1300     1700   
                                           T        V       H0       H01     AOSYM     SMH    MOLCAS    ERIS     OPER   

 PROGRAMS   *        TOTAL       INT
 CPU TIMES  *         1.61      1.57
 REAL TIME  *         2.11 SEC
 DISK USED  *       701.24 MB      
 GA USED    *         0.00 MB       (max)       0.00 MB       (current)
 **********************************************************************************************************************************

1PROGRAM * RHF-SCF (CLOSED SHELL)       Authors: W. Meyer, H.-J. Werner


 NUMBER OF ELECTRONS:      10+   10-    SPACE SYMMETRY=1    SPIN SYMMETRY: Singlet 
 CONVERGENCE THRESHOLDS:    1.00E-10 (Density)    1.00E-13 (Energy)
 MAX. NUMBER OF ITERATIONS:      200
 INTERPOLATION TYPE:            DIIS
 INTERPOLATION STEPS:              2 (START)      1 (STEP)
 LEVEL SHIFTS:                  0.00 (CLOSED)  0.00 (OPEN) 



 Orbital guess generated from atomic densities. Full valence occupancy:   18

 Molecular orbital dump at record        2100.2

 ITERATION    DDIFF          GRAD             ENERGY        2-EL.EN.            DIPOLE MOMENTS         DIIS
    1      0.000D+00      0.000D+00       -80.36234094    134.794005   -0.00000   -0.00000   -0.00000    0
    2      0.000D+00      0.368D-02       -80.39423128    132.489375   -0.00000   -0.00000   -0.00000    1
    3      0.809D-02      0.137D-02       -80.39820552    133.316708   -0.00000   -0.00000   -0.00000    2
    4      0.256D-02      0.371D-03       -80.39879241    133.185944   -0.00000   -0.00000   -0.00000    3
    5      0.868D-03      0.457D-04       -80.39880114    133.192842   -0.00000   -0.00000   -0.00000    4
    6      0.876D-04      0.295D-05       -80.39880118    133.192678   -0.00000   -0.00000   -0.00000    5
    7      0.107D-04      0.222D-06       -80.39880119    133.192660   -0.00000   -0.00000   -0.00000    5
    8      0.155D-05      0.347D-07       -80.39880119    133.192660   -0.00000   -0.00000   -0.00000    4
    9      0.290D-06      0.559D-08       -80.39880119    133.192661   -0.00000   -0.00000   -0.00000    4
   10      0.199D-07      0.912D-09       -80.39880119    133.192661   -0.00000   -0.00000   -0.00000    5
   11      0.201D-08      0.190D-09       -80.39880119    133.192661   -0.00000   -0.00000   -0.00000    5
   12      0.108D-08      0.554D-10       -80.39880119    133.192661   -0.00000   -0.00000   -0.00000    6
   13      0.190D-09      0.107D-10       -80.39880119    133.192661   -0.00000   -0.00000   -0.00000    6
   14      0.412D-10      0.229D-11       -80.39880119    133.192661   -0.00000   -0.00000   -0.00000    6
   15      0.691D-11      0.239D-12       -80.39880119    133.192661   -0.00000   -0.00000   -0.00000    6
   16      0.179D-11      0.818D-13       -80.39880119    133.192661   -0.00000   -0.00000   -0.00000    0

 Final occupancy:  10

 !RHF STATE 1.1 Energy                -80.398801185018
 Nuclear energy                        41.34198198
 One-electron energy                 -188.33711367
 Two-electron energy                   66.59633051
 Virial quotient                       -1.00196238
 !RHF STATE 1.1 Dipole moment          -0.00000019    -0.00000000    -0.00000008
 Dipole moment /Debye                  -0.00000048    -0.00000000    -0.00000021

 Orbital energies:

         1.1          2.1          3.1          4.1          5.1          6.1          7.1          8.1          9.1         10.1
    -11.214645   -11.214644    -0.945575    -0.939611    -0.550906    -0.546540    -0.546517    -0.539067    -0.539043    -0.535678

        11.1         12.1
      0.035477     0.045876


 **********************************************************************************************************************************
 DATASETS  * FILE   NREC   LENGTH (MB)   RECORD NAMES
              1      19      189.94       500      610      700      900      950      970     1000      129      960     1100   
                                          VAR    BASINP    GEOM    SYMINP    ZMAT    AOBASIS   BASIS     P2S    ABASIS      S 
                                         1400     1410     1200     1210     1080     1600     1650     1300     1700   
                                           T        V       H0       H01     AOSYM     SMH    MOLCAS    ERIS     OPER   

              2       3        0.70       700     1000     2100   
                                         GEOM     BASIS     RHF  

 PROGRAMS   *        TOTAL       RHF       INT
 CPU TIMES  *         4.64      3.03      1.57
 REAL TIME  *         5.53 SEC
 DISK USED  *       701.24 MB      
 GA USED    *         0.00 MB       (max)       0.00 MB       (current)
 **********************************************************************************************************************************


1PROGRAM * CCSD (Closed-shell coupled cluster)     Authors: C. Hampel, H.-J. Werner, 1991, M. Deegan, P.J. Knowles, 1992


 Convergence thresholds:  THRVAR = 1.00D-08  THRDEN = 1.00D-12

 CCSD(T)     terms to be evaluated (factor= 1.000)


 Number of core orbitals:           2 (   2 )
 Number of closed-shell orbitals:   8 (   8 )
 Number of external orbitals:     108 ( 108 )

 Molecular orbitals read from record     2100.2  Type=RHF/CANONICAL (state 1.1)

 Number of N-1 electron functions:               8
 Number of N-2 electron functions:              36
 Number of singly external CSFs:               864
 Number of doubly external CSFs:            373680
 Total number of CSFs:                      374545

 Length of J-op  integral file:               0.00 MB
 Length of K-op  integral file:               1.00 MB
 Length of 3-ext integral record:             0.00 MB

 Memory could be reduced to 14.62 Mwords without degradation in triples

 Integral transformation finished. Total CPU:   0.71 sec, npass=  1  Memory used:   8.61 MW

 Reference energy:                    -80.39880119

 MP2 singlet pair energy:              -0.24106677
 MP2 triplet pair energy:              -0.09676005
 MP2 correlation energy:               -0.33782682
 MP2 total energy:                    -80.73662800

 SCS-MP2 correlation energy:           -0.34948637   (PS=  1.200000  PT=  0.333333)
 SCS-MP2 total energy:                -80.74828756

 ITER.      SQ.NORM     CORR.ENERGY   TOTAL ENERGY   ENERGY CHANGE        DEN1      VAR(S)    VAR(P)  DIIS     TIME
   1      1.14044019    -0.38147860   -80.78027978    -0.04365178    -0.03251904  0.70D-03  0.24D-02  1  1     1.55
   2      1.15348963    -0.38423421   -80.78303540    -0.00275562    -0.01269431  0.16D-04  0.11D-03  2  2     2.45
   3      1.15560241    -0.38436696   -80.78316814    -0.00013274    -0.00113072  0.25D-05  0.71D-05  3  3     3.35
   4      1.15604944    -0.38438511   -80.78318630    -0.00001816    -0.00017664  0.10D-06  0.45D-06  4  4     4.26
   5      1.15612043    -0.38438181   -80.78318299     0.00000330    -0.00003209  0.39D-08  0.31D-07  5  5     5.16
   6      1.15612432    -0.38438080   -80.78318199     0.00000101    -0.00000142  0.28D-09  0.20D-08  6  6     6.08
   7      1.15612471    -0.38438102   -80.78318221    -0.00000022    -0.00000002  0.24D-10  0.13D-09  6  1     6.99
   8      1.15612477    -0.38438104   -80.78318222    -0.00000002    -0.00000007  0.24D-11  0.96D-11  6  2     7.89
   9      1.15612472    -0.38438104   -80.78318223    -0.00000000     0.00000003  0.45D-12  0.75D-12  6  3     8.80
  10      1.15612468    -0.38438104   -80.78318223    -0.00000000     0.00000002  0.35D-13  0.66D-13  6  4     9.69
  11      1.15612465    -0.38438105   -80.78318223    -0.00000000     0.00000002  0.33D-14  0.71D-14  6  5    10.60
  12      1.15612464    -0.38438105   -80.78318223    -0.00000000     0.00000001  0.28D-15  0.85D-15  6  6    11.51
  13      1.15612463    -0.38438105   -80.78318223    -0.00000000     0.00000000  0.22D-16  0.10D-15  6  1    12.41
  14      1.15612463    -0.38438105   -80.78318223    -0.00000000     0.00000000  0.26D-17  0.11D-16  6  3    13.32
  15      1.15612463    -0.38438105   -80.78318223    -0.00000000     0.00000000  0.19D-18  0.60D-18  6  2    14.23
  16      1.15612463    -0.38438105   -80.78318223    -0.00000000     0.00000000  0.26D-19  0.47D-19  6  4    15.14
  17      1.15612463    -0.38438105   -80.78318223    -0.00000000     0.00000000  0.32D-20  0.59D-20  6  5    16.05
  18      1.15612463    -0.38438105   -80.78318223    -0.00000000     0.00000000  0.35D-21  0.49D-21  6  6    16.95

 Norm of t1 vector:      0.03916325      S-energy:     0.00000000      T1 diagnostic:  0.00692315
                                                                       D1 diagnostic:  0.01253209


 Total CPU time for triples:     10.69 sec


 RESULTS
 =======

  Reference energy                    -80.398801185018
  CCSD singlet pair energy             -0.290158092393
  CCSD triplet pair energy             -0.094222954079
  CCSD correlation energy              -0.384381046472

  Triples (T) contribution             -0.009219762727
  Total correlation energy             -0.393600809199

  CCSD total energy                   -80.783182231489
  CCSD[T] energy                      -80.792622916407
  CCSD-T energy                       -80.792284766297
 !CCSD(T) total energy                -80.792401994217

 Timing summary (sec):

 STEP                 CPU(USER)    SYS     CPU(TOT)    WALL
 Transformation          0.72      0.09      0.81      0.82
 CCSD iterations        16.23      0.74     16.97     17.01
 Triples                10.69      0.19     10.88     10.87

 Program statistics:

 Available memory in ccsd:               999999644
 Min. memory needed in ccsd:               1156281
 Max. memory used in ccsd:                 1468601
 Max. memory used in cckext:               1135046 (18 integral passes)



 **********************************************************************************************************************************
 DATASETS  * FILE   NREC   LENGTH (MB)   RECORD NAMES
              1      20      236.91       500      610      700      900      950      970     1000      129      960     1100   
                                          VAR    BASINP    GEOM    SYMINP    ZMAT    AOBASIS   BASIS     P2S    ABASIS      S 
                                         1400     1410     1200     1210     1080     1600     1650     1300     1700     1380   
                                           T        V       H0       H01     AOSYM     SMH    MOLCAS    ERIS     OPER     JKOP   

              2       3        0.70       700     1000     2100   
                                         GEOM     BASIS     RHF  

 PROGRAMS   *        TOTAL   CCSD(T)       RHF       INT
 CPU TIMES  *        32.30     27.66      3.03      1.57
 REAL TIME  *        34.27 SEC
 DISK USED  *       701.24 MB      
 GA USED    *         0.00 MB       (max)       0.00 MB       (current)
 **********************************************************************************************************************************

        CCSD(T)         RHF-SCF 
    -80.79240199    -80.39880119
 **********************************************************************************************************************************
 Variable memory released
