
 Primary working directories    : /tmp/1049502.1089.gen4.q
 Secondary working directories  : /tmp/1049502.1089.gen4.q
 Wavefunction directory         : /home/vulcan/jj04645/wfu/
 Main file repository           : /tmp/1049502.1089.gen4.q/

 ARCHNAME  : Linux/x86_64
 FC        : /opt/intel/compilers_and_libraries_2016.1.150/linux/bin/intel64/ifort
 FCVERSION : 16.0.1
 BLASLIB   : -mkl
 id        : ccgc

 Nodes     nprocs
 n061         1
 ga_uses_ma=false, calling ma_init with nominal heap.
 GA-space will be limited to   8.0 MW (determined by -G option)

 Using customized tuning parameters: mindgm=10; mindgv=16; mindgc=4; mindgr=1; noblas=0; mincuda=1000; minvec=7
 default implementation of scratch files=df  

 ***,Optimization of neopentane
 memory,1000,m
 gthresh,energy=1.0d-12,orbital=1.0d-10,oneint=1.0d-16,twoint=1.0d-16,optgrad=1.0d-6,compress=1.0d-13
 geomtyp=xyz
 
 bohr
 geometry = {
  C    0.0073033419   -0.0059522364   -0.0000017039
  C    2.3695582767    0.0039579397   -1.6770903273
  C   -0.0005048685   -2.3686447540    1.6764815016
  C   -0.0022008202    2.3622175362    1.6687266857
  C   -2.3613018779    0.0023062625   -1.6681185912
  H    2.4059027484    1.6792310228   -2.8875857859
  H   -1.6754402826   -2.4064852039    2.8873983187
  H    1.6643443824    2.4082253840    2.8908847954
  H   -2.4147950643   -1.6723150159   -2.8788795635
  H    4.0850711077    0.0066694040   -0.5301099832
  H   -0.0023045301   -4.0897413345    0.5251288422
  H    0.0031375967    4.0736777593    0.5157171713
  H   -4.0782884696    0.0121736599   -0.5106863885
  H    2.4155120228   -1.6693340746   -2.8960126842
  H    1.6674176349   -2.4135746051    2.8908008028
  H   -1.6842101382    2.4070742221    2.8756327121
  H   -2.3992010601    1.6705140339   -2.8822858024
 }
 
 basis=VDZ
 {rhf;maxit,200}
 {ccsd(t);maxit,200}

 Variables initialized (661), CPU time= 0.00 sec
 Commands  initialized (458), CPU time= 0.00 sec, 486 directives.
 Default parameters read. Elapsed time= 0.04 sec

 Checking input...
 Passed
1


                                         ***  PROGRAM SYSTEM MOLPRO  ***
                         Copyright, University College Cardiff Consultants Limited, 2008

                                    Version 2010.1 linked May 16 2016 07:17:05


 **********************************************************************************************************************************
 LABEL *   Optimization of neopentane                                                    
 Linux-4.4.3/n061(x86_64) 64 bit mpp version                                             DATE: 30-Mar-24          TIME: 23:36:06  
 **********************************************************************************************************************************

 SHA1:             9e8077add272b0f3cad6f7df79ec5211205f459d
 **********************************************************************************************************************************

 THRESHOLDS:

 ZERO    =  1.00D-12  ONEINT  =  1.00D-16  TWOINT  =  1.00D-16  PREFAC  =  1.00D-14  LOCALI  =  1.00D-09  EORDER  =  1.00D-04
 ENERGY  =  1.00D-12  ETEST   =  0.00D+00  EDENS   =  0.00D+00  THRDEDEF=  1.00D-06  GRADIENT=  1.00D-02  STEP    =  1.00D-03
 ORBITAL =  1.00D-10  CIVEC   =  1.00D-05  COEFF   =  1.00D-04  PRINTCI =  5.00D-02  PUNCHCI =  9.90D+01  OPTGRAD =  1.00D-06
 OPTENERG=  1.00D-06  OPTSTEP =  3.00D-04  THRGRAD =  1.00D-10  COMPRESS=  1.00D-13  VARMIN  =  1.00D-07  VARMAX  =  1.00D-03
 THRDOUB =  0.00D+00  THRDIV  =  1.00D-05  THRRED  =  1.00D-07  THRPSP  =  1.00D+00  THRDC   =  1.00D-10  THRCS   =  1.00D-10
 THRNRM  =  1.00D-08  THREQ   =  0.00D+00  THRDE   =  1.00D+00  THRREF  =  1.00D-05  SPARFAC =  1.00D+00  THRDLP  =  1.00D-07
 THRDIA  =  1.00D-10  THRDLS  =  1.00D-07  THRGPS  =  0.00D+00  THRKEX  =  0.00D+00  THRDIS  =  2.00D-01  THRVAR  =  1.00D-10
 THRLOC  =  1.00D-06  THRGAP  =  1.00D-06  THRLOCT = -1.00D+00  THRGAPT = -1.00D+00  THRORB  =  1.00D-06  THRMLTP =  0.00D+00
 THRCPQCI=  1.00D-10  KEXTA   =  0.00D+00  THRCOARS=  0.00D+00  SYMTOL  =  1.00D-06  GRADTOL =  1.00D-06  THROVL  =  1.00D-08
 THRORTH =  1.00D-08  GRID    =  1.00D-06  GRIDMAX =  1.00D-03  DTMAX   =  0.00D+00

 SETTING GEOMTYP        =    XYZ
 ZUNIT=BOHR
 

 Variable memory set to 1000000000 words,  buffer space   230000 words

 SETTING BASIS          =    VDZ


 Recomputing integrals since basis changed


 Using spherical harmonics

 Library entry C      S cc-pVDZ              selected for orbital group  1
 Library entry C      P cc-pVDZ              selected for orbital group  1
 Library entry C      D cc-pVDZ              selected for orbital group  1
 Library entry H      S cc-pVDZ              selected for orbital group  2
 Library entry H      P cc-pVDZ              selected for orbital group  2

1PROGRAM * SEWARD (Integral evaluation for generally contracted gaussian basis sets)     Author: Roland Lindh, 1990

 Geometry written to block  1 of record 700


 Point group  C1  



 ATOMIC COORDINATES

 NR  ATOM    CHARGE       X              Y              Z

   1  C       6.00    0.007303342   -0.005952236   -0.000001704
   2  C       6.00    2.369558277    0.003957940   -1.677090327
   3  C       6.00   -0.000504868   -2.368644754    1.676481502
   4  C       6.00   -0.002200820    2.362217536    1.668726686
   5  C       6.00   -2.361301878    0.002306263   -1.668118591
   6  H       1.00    2.405902748    1.679231023   -2.887585786
   7  H       1.00   -1.675440283   -2.406485204    2.887398319
   8  H       1.00    1.664344382    2.408225384    2.890884795
   9  H       1.00   -2.414795064   -1.672315016   -2.878879563
  10  H       1.00    4.085071108    0.006669404   -0.530109983
  11  H       1.00   -0.002304530   -4.089741335    0.525128842
  12  H       1.00    0.003137597    4.073677759    0.515717171
  13  H       1.00   -4.078288470    0.012173660   -0.510686389
  14  H       1.00    2.415512023   -1.669334075   -2.896012684
  15  H       1.00    1.667417635   -2.413574605    2.890800803
  16  H       1.00   -1.684210138    2.407074222    2.875632712
  17  H       1.00   -2.399201060    1.670514034   -2.882285802

 Bond lengths in Bohr (Angstrom)

 1-2  2.897062795  1-3  2.897062795  1-4  2.897062795  1-5  2.897062795  2-6  2.067162325
     ( 1.533059604)     ( 1.533059604)     ( 1.533059604)     ( 1.533059604)     ( 1.093895190)

  2-10  2.063626792   2-14  2.070697859   3- 7  2.067162325   3-11  2.070697859   3-15  2.063626791
       ( 1.092024266)       ( 1.095766114)       ( 1.093895190)       ( 1.095766114)       ( 1.092024266)

  4- 8  2.067162325   4-12  2.063626791   4-16  2.070697859   5- 9  2.067162325   5-13  2.070697860
       ( 1.093895190)       ( 1.092024266)       ( 1.095766114)       ( 1.093895190)       ( 1.095766114)

  5-17  2.063626791
       ( 1.092024266)

 Bond angles

  1- 2- 6  110.86076926   1- 2-10  110.86076833   1- 2-14  110.86076872   1- 3- 7  110.86076908

  1- 3-11  110.86076877   1- 3-15  110.86076846   1- 4- 8  110.86076815   1- 4-12  110.86076920

  1- 4-16  110.86076896   1- 5- 9  110.86076809   1- 5-13  110.86076900   1- 5-17  110.86076922

  2-1-3  109.87585655   2-1-4  109.47071421   2-1-5  109.47071421   3-1-4  109.47071421

  3- 1- 5  109.47071421   4- 1- 5  109.06557187   6- 2-10  108.04663885   6- 2-14  108.04663959

  7- 3-11  108.04663934   7- 3-15  108.04663875   8- 4-12  108.04663838   8- 4-16  108.04663794

  9- 5-13  108.04663789   9- 5-17  108.04663832  10- 2-14  108.04663779  11- 3-15  108.04663815

 12- 4-16  108.04663991  13- 5-17  108.04664003

 NUCLEAR CHARGE:                   42
 NUMBER OF PRIMITIVE AOS:         219
 NUMBER OF SYMMETRY AOS:          214
 NUMBER OF CONTRACTIONS:          130   ( 130A   )
 NUMBER OF CORE ORBITALS:           5   (   5A   )
 NUMBER OF VALENCE ORBITALS:       32   (  32A   )


 NUCLEAR REPULSION ENERGY  198.59980175


 Eigenvalues of metric

         1 0.280E-02 0.500E-02 0.504E-02 0.507E-02 0.171E-01 0.189E-01 0.189E-01 0.190E-01


 Contracted 2-electron integrals neglected if value below      1.0D-16
 AO integral compression algorithm  1   Integral accuracy      1.0D-16

     303.563 MB (compressed) written to integral file ( 97.3%)

     Node minimum: 303.563 MB, node maximum: 303.563 MB


 NUMBER OF SORTED TWO-ELECTRON INTEGRALS:   36256870.     BUFFER LENGTH:  32768
 NUMBER OF SEGMENTS:   3  SEGMENT LENGTH:   15998004      RECORD LENGTH: 524288

 Memory used in sort:      16.56 MW

 SORT1 READ    38983374. AND WROTE    36209530. INTEGRALS IN    105 RECORDS. CPU TIME:     0.38 SEC, REAL TIME:     0.59 SEC
 SORT2 READ    36209530. AND WROTE    36256870. INTEGRALS IN   1158 RECORDS. CPU TIME:     0.29 SEC, REAL TIME:     0.44 SEC

 FILE SIZES:   FILE 1:   283.8 MBYTE,  FILE 4:   440.4 MBYTE,   TOTAL:    724.3 MBYTE

 OPERATOR DM      FOR CENTER  0  COORDINATES:    0.000000    0.000000    0.000000


 **********************************************************************************************************************************
 DATASETS  * FILE   NREC   LENGTH (MB)   RECORD NAMES
              1      19      284.04       500      610      700      900      950      970     1000      129      960     1100   
                                          VAR    BASINP    GEOM    SYMINP    ZMAT    AOBASIS   BASIS     P2S    ABASIS      S 
                                         1400     1410     1200     1210     1080     1600     1650     1300     1700   
                                           T        V       H0       H01     AOSYM     SMH    MOLCAS    ERIS     OPER   

 PROGRAMS   *        TOTAL       INT
 CPU TIMES  *         4.19      4.15
 REAL TIME  *         4.89 SEC
 DISK USED  *         1.03 GB      
 GA USED    *         0.01 MB       (max)       0.00 MB       (current)
 **********************************************************************************************************************************

1PROGRAM * RHF-SCF (CLOSED SHELL)       Authors: W. Meyer, H.-J. Werner


 NUMBER OF ELECTRONS:      21+   21-    SPACE SYMMETRY=1    SPIN SYMMETRY: Singlet 
 CONVERGENCE THRESHOLDS:    1.00E-10 (Density)    1.00E-13 (Energy)
 MAX. NUMBER OF ITERATIONS:      200
 INTERPOLATION TYPE:            DIIS
 INTERPOLATION STEPS:              2 (START)      1 (STEP)
 LEVEL SHIFTS:                  0.00 (CLOSED)  0.00 (OPEN) 



 Orbital guess generated from atomic densities. Full valence occupancy:   37

 Molecular orbital dump at record        2100.2

 ITERATION    DDIFF          GRAD             ENERGY        2-EL.EN.            DIPOLE MOMENTS         DIIS
    1      0.000D+00      0.000D+00      -196.27087148    527.678454   -0.00209   -0.00238   -0.00001    0
    2      0.000D+00      0.467D-02      -196.33873058    521.944967    0.00286    0.00164   -0.00001    1
    3      0.930D-02      0.177D-02      -196.34652118    524.515096    0.00246    0.00082   -0.00000    2
    4      0.346D-02      0.571D-03      -196.34766795    523.813769    0.00287    0.00129   -0.00000    3
    5      0.114D-02      0.118D-03      -196.34770253    523.880279    0.00286    0.00135   -0.00000    4
    6      0.198D-03      0.238D-04      -196.34770420    523.876519    0.00289    0.00134   -0.00000    5
    7      0.659D-04      0.226D-05      -196.34770423    523.876286    0.00288    0.00135   -0.00000    6
    8      0.684D-05      0.490D-06      -196.34770423    523.876244    0.00289    0.00134   -0.00000    6
    9      0.138D-05      0.772D-07      -196.34770423    523.876237    0.00288    0.00134   -0.00000    5
   10      0.242D-06      0.204D-07      -196.34770423    523.876240    0.00288    0.00134   -0.00000    6
   11      0.466D-07      0.425D-08      -196.34770423    523.876242    0.00288    0.00134   -0.00000    6
   12      0.107D-07      0.733D-09      -196.34770423    523.876241    0.00288    0.00134   -0.00000    6
   13      0.159D-08      0.321D-09      -196.34770423    523.876241    0.00288    0.00134   -0.00000    6
   14      0.638D-09      0.519D-10      -196.34770423    523.876241    0.00288    0.00134   -0.00000    6
   15      0.130D-09      0.183D-10      -196.34770423    523.876241    0.00288    0.00134   -0.00000    7
   16      0.514D-10      0.383D-11      -196.34770423    523.876241    0.00288    0.00134   -0.00000    7
   17      0.109D-10      0.826D-12      -196.34770423    523.876241    0.00288    0.00134   -0.00000    7
   18      0.253D-11      0.209D-12      -196.34770423    523.876241    0.00288    0.00134   -0.00000    7
   19      0.627D-12      0.557D-13      -196.34770423    523.876241    0.00288    0.00134   -0.00000    6
   20      0.254D-12      0.412D-13      -196.34770423    523.876241    0.00288    0.00134   -0.00000    7
   21      0.161D-12      0.260D-13      -196.34770423    523.876241    0.00288    0.00134   -0.00000    8
   22      0.100D-12      0.291D-13      -196.34770423    523.876241    0.00288    0.00134   -0.00000    9
   23      0.687D-13      0.250D-13      -196.34770423    523.876241    0.00288    0.00134   -0.00000    9
   24      0.505D-13      0.206D-13      -196.34770423    523.876241    0.00288    0.00134   -0.00000    9
   25      0.324D-13      0.236D-13      -196.34770423    523.876241    0.00288    0.00134   -0.00000    9
   26      0.267D-13      0.229D-13      -196.34770423    523.876241    0.00288    0.00134   -0.00000    9
   27      0.169D-13      0.233D-13      -196.34770423    523.876241    0.00288    0.00134   -0.00000    9
   28      0.171D-13      0.228D-13      -196.34770423    523.876241    0.00288    0.00134   -0.00000    9
   29      0.134D-13      0.263D-13      -196.34770423    523.876241    0.00288    0.00134   -0.00000    9
   30      0.139D-13      0.211D-13      -196.34770423    523.876241    0.00288    0.00134   -0.00000    0

 Final occupancy:  21

 !RHF STATE 1.1 Energy               -196.347704228094
 Nuclear energy                       198.59980175
 One-electron energy                 -656.88562663
 Two-electron energy                  261.93812065
 Virial quotient                       -1.00118084
 !RHF STATE 1.1 Dipole moment           0.00288384     0.00134302    -0.00000228
 Dipole moment /Debye                   0.00732951     0.00341339    -0.00000580

 Orbital energies:

         1.1          2.1          3.1          4.1          5.1          6.1          7.1          8.1          9.1         10.1
    -11.230714   -11.214306   -11.214223   -11.213962   -11.213879    -1.103752    -0.927985    -0.927565    -0.927135    -0.728616

        11.1         12.1         13.1         14.1         15.1         16.1         17.1         18.1         19.1         20.1
     -0.609378    -0.609076    -0.608777    -0.550492    -0.550487    -0.508173    -0.507787    -0.507393    -0.451073    -0.450334

        21.1         22.1         23.1
     -0.449587     0.170676     0.231055


 **********************************************************************************************************************************
 DATASETS  * FILE   NREC   LENGTH (MB)   RECORD NAMES
              1      19      284.04       500      610      700      900      950      970     1000      129      960     1100   
                                          VAR    BASINP    GEOM    SYMINP    ZMAT    AOBASIS   BASIS     P2S    ABASIS      S 
                                         1400     1410     1200     1210     1080     1600     1650     1300     1700   
                                           T        V       H0       H01     AOSYM     SMH    MOLCAS    ERIS     OPER   

              2       3        0.89       700     1000     2100   
                                         GEOM     BASIS     RHF  

 PROGRAMS   *        TOTAL       RHF       INT
 CPU TIMES  *        12.23      8.03      4.15
 REAL TIME  *        13.92 SEC
 DISK USED  *         1.03 GB      
 GA USED    *         0.01 MB       (max)       0.00 MB       (current)
 **********************************************************************************************************************************


1PROGRAM * CCSD (Closed-shell coupled cluster)     Authors: C. Hampel, H.-J. Werner, 1991, M. Deegan, P.J. Knowles, 1992


 Convergence thresholds:  THRVAR = 1.00D-08  THRDEN = 1.00D-12

 CCSD(T)     terms to be evaluated (factor= 1.000)


 Number of core orbitals:           5 (   5 )
 Number of closed-shell orbitals:  16 (  16 )
 Number of external orbitals:     109 ( 109 )

 Molecular orbitals read from record     2100.2  Type=RHF/CANONICAL (state 1.1)

 Number of N-1 electron functions:              16
 Number of N-2 electron functions:             136
 Number of singly external CSFs:              1744
 Number of doubly external CSFs:           1521640
 Total number of CSFs:                     1523385

 Length of J-op  integral file:               0.00 MB
 Length of K-op  integral file:               1.20 MB
 Length of 3-ext integral record:             0.00 MB

 Memory could be reduced to 28.13 Mwords without degradation in triples

 Integral transformation finished. Total CPU:   1.89 sec, npass=  1  Memory used:  22.98 MW

 Reference energy:                   -196.34770423

 MP2 singlet pair energy:              -0.48845340
 MP2 triplet pair energy:              -0.25007833
 MP2 correlation energy:               -0.73853173
 MP2 total energy:                   -197.08623595

 SCS-MP2 correlation energy:           -0.74174837   (PS=  1.200000  PT=  0.333333)
 SCS-MP2 total energy:               -197.08945260

 ITER.      SQ.NORM     CORR.ENERGY   TOTAL ENERGY   ENERGY CHANGE        DEN1      VAR(S)    VAR(P)  DIIS     TIME
   1      1.28821669    -0.80655673  -197.15426096    -0.06802500    -0.04667732  0.17D-02  0.47D-02  1  1     6.94
   2      1.31153513    -0.81149015  -197.15919438    -0.00493342    -0.02354332  0.47D-04  0.32D-03  2  2    12.06
   3      1.31554013    -0.81164011  -197.15934434    -0.00014997    -0.00243009  0.53D-05  0.22D-04  3  3    17.19
   4      1.31658428    -0.81170237  -197.15940660    -0.00006226    -0.00046382  0.25D-06  0.12D-05  4  4    22.32
   5      1.31671027    -0.81170674  -197.15941097    -0.00000437    -0.00005132  0.15D-07  0.93D-07  5  5    27.45
   6      1.31672278    -0.81170432  -197.15940854     0.00000242    -0.00000850  0.68D-09  0.61D-08  6  6    32.60
   7      1.31672136    -0.81170459  -197.15940882    -0.00000028     0.00000062  0.16D-09  0.52D-09  6  1    37.74
   8      1.31672107    -0.81170474  -197.15940897    -0.00000015     0.00000027  0.78D-11  0.30D-10  6  2    42.89
   9      1.31672078    -0.81170479  -197.15940902    -0.00000005     0.00000025  0.11D-11  0.25D-11  6  3    48.04
  10      1.31672067    -0.81170480  -197.15940902    -0.00000001     0.00000009  0.90D-13  0.22D-12  6  4    53.17
  11      1.31672061    -0.81170480  -197.15940903    -0.00000000     0.00000004  0.96D-14  0.24D-13  6  5    58.30
  12      1.31672058    -0.81170480  -197.15940903    -0.00000000     0.00000002  0.91D-15  0.12D-14  6  1    63.45
  13      1.31672057    -0.81170480  -197.15940903    -0.00000000     0.00000000  0.81D-16  0.70D-16  6  6    68.58
  14      1.31672057    -0.81170480  -197.15940903    -0.00000000     0.00000000  0.15D-16  0.97D-17  6  2    73.72
  15      1.31672057    -0.81170480  -197.15940903    -0.00000000     0.00000000  0.13D-17  0.11D-17  6  3    78.87
  16      1.31672057    -0.81170480  -197.15940903     0.00000000    -0.00000000  0.77D-19  0.94D-19  6  4    84.01
  17      1.31672057    -0.81170480  -197.15940903     0.00000000    -0.00000000  0.46D-20  0.89D-20  6  5    89.13
  18      1.31672057    -0.81170480  -197.15940903     0.00000000    -0.00000000  0.65D-21  0.13D-20  6  1    94.27
  19      1.31672057    -0.81170480  -197.15940903     0.00000000    -0.00000000  0.74D-22  0.18D-21  6  6    99.40

 Norm of t1 vector:      0.05469845      S-energy:    -0.00000000      T1 diagnostic:  0.00683731
                                                                       D1 diagnostic:  0.01260690


 Total CPU time for triples:     81.41 sec


 RESULTS
 =======

  Reference energy                   -196.347704228094
  CCSD singlet pair energy             -0.577588218640
  CCSD triplet pair energy             -0.234116582606
  CCSD correlation energy              -0.811704801246

  Triples (T) contribution             -0.023942542948
  Total correlation energy             -0.835647344194

  CCSD total energy                  -197.159409029340
  CCSD[T] energy                     -197.183810921334
  CCSD-T energy                      -197.183102906723
 !CCSD(T) total energy               -197.183351572288

 Timing summary (sec):

 STEP                 CPU(USER)    SYS     CPU(TOT)    WALL
 Transformation          1.98      0.18      2.16      2.16
 CCSD iterations        97.43      2.02     99.45    100.08
 Triples                81.41      1.52     82.93     82.95

 Program statistics:

 Available memory in ccsd:               999998876
 Min. memory needed in ccsd:               3966807
 Max. memory used in ccsd:                 5311887
 Max. memory used in cckext:               4858018 (19 integral passes)



 **********************************************************************************************************************************
 DATASETS  * FILE   NREC   LENGTH (MB)   RECORD NAMES
              1      20      395.75       500      610      700      900      950      970     1000      129      960     1100   
                                          VAR    BASINP    GEOM    SYMINP    ZMAT    AOBASIS   BASIS     P2S    ABASIS      S 
                                         1400     1410     1200     1210     1080     1600     1650     1300     1700     1380   
                                           T        V       H0       H01     AOSYM     SMH    MOLCAS    ERIS     OPER     JKOP   

              2       3        0.89       700     1000     2100   
                                         GEOM     BASIS     RHF  

 PROGRAMS   *        TOTAL   CCSD(T)       RHF       INT
 CPU TIMES  *       193.06    180.83      8.03      4.15
 REAL TIME  *       199.15 SEC
 DISK USED  *         1.03 GB      
 GA USED    *         0.01 MB       (max)       0.00 MB       (current)
 **********************************************************************************************************************************

        CCSD(T)         RHF-SCF 
   -197.18335157   -196.34770423
 **********************************************************************************************************************************
 Variable memory released
