
 Primary working directories    : /tmp/856074.9.gen4.q
 Secondary working directories  : /tmp/856074.9.gen4.q
 Wavefunction directory         : /home/vulcan/lo21740/wfu/
 Main file repository           : /tmp/856074.9.gen4.q/

 ARCHNAME  : Linux/x86_64
 FC        : /opt/intel/compilers_and_libraries_2016.1.150/linux/bin/intel64/ifort
 FCVERSION : 16.0.1
 BLASLIB   : -mkl
 id        : ccgc

 Nodes     nprocs
 n023         1
 ga_uses_ma=false, calling ma_init with nominal heap.
 GA-space will be limited to   8.0 MW (determined by -G option)

 Using customized tuning parameters: mindgm=10; mindgv=16; mindgc=4; mindgr=1; noblas=0; mincuda=1000; minvec=7
 default implementation of scratch files=df  

 ***,Optimization of h2o_2
 memory,1000,m
 gthresh,energy=1.0d-12,orbital=1.0d-10,oneint=1.0d-16,twoint=1.0d-16,optgrad=1.0d-6,compress=1.0d-13
 geomtyp=xyz
 
 bohr
 geometry = {
  C    0.0019079397   -3.4230586341    0.0000000000
  H   -0.9707834620   -2.7320660739   -1.6806291699
  H   -0.9707834620   -2.7320660739    1.6806291699
  H    1.9407518575   -2.7304527422   -0.0000000000
  H    0.0009915078   -5.4814892924   -0.0000000000
  C   -0.0019079397    3.4230586341   -0.0000000000
  H   -0.0009915078    5.4814892924    0.0000000000
  H    0.9707834620    2.7320660739   -1.6806291699
  H    0.9707834620    2.7320660739    1.6806291699
  H   -1.9407518575    2.7304527422    0.0000000000
 }
 
 basis=VDZ
 {rhf;maxit,200}
 {ccsd(t);maxit,200}

 Variables initialized (661), CPU time= 0.00 sec
 Commands  initialized (458), CPU time= 0.01 sec, 486 directives.
 Default parameters read. Elapsed time= 0.06 sec

 Checking input...
 Passed
1


                                         ***  PROGRAM SYSTEM MOLPRO  ***
                         Copyright, University College Cardiff Consultants Limited, 2008

                                    Version 2010.1 linked May 16 2016 07:17:05


 **********************************************************************************************************************************
 LABEL *   Optimization of h2o_2                                                         
 Linux-4.4.3/n023(x86_64) 64 bit mpp version                                             DATE: 12-Apr-23          TIME: 13:40:51  
 **********************************************************************************************************************************

 SHA1:             9e8077add272b0f3cad6f7df79ec5211205f459d
 **********************************************************************************************************************************

 THRESHOLDS:

 ZERO    =  1.00D-12  ONEINT  =  1.00D-16  TWOINT  =  1.00D-16  PREFAC  =  1.00D-14  LOCALI  =  1.00D-09  EORDER  =  1.00D-04
 ENERGY  =  1.00D-12  ETEST   =  0.00D+00  EDENS   =  0.00D+00  THRDEDEF=  1.00D-06  GRADIENT=  1.00D-02  STEP    =  1.00D-03
 ORBITAL =  1.00D-10  CIVEC   =  1.00D-05  COEFF   =  1.00D-04  PRINTCI =  5.00D-02  PUNCHCI =  9.90D+01  OPTGRAD =  1.00D-06
 OPTENERG=  1.00D-06  OPTSTEP =  3.00D-04  THRGRAD =  1.00D-10  COMPRESS=  1.00D-13  VARMIN  =  1.00D-07  VARMAX  =  1.00D-03
 THRDOUB =  0.00D+00  THRDIV  =  1.00D-05  THRRED  =  1.00D-07  THRPSP  =  1.00D+00  THRDC   =  1.00D-10  THRCS   =  1.00D-10
 THRNRM  =  1.00D-08  THREQ   =  0.00D+00  THRDE   =  1.00D+00  THRREF  =  1.00D-05  SPARFAC =  1.00D+00  THRDLP  =  1.00D-07
 THRDIA  =  1.00D-10  THRDLS  =  1.00D-07  THRGPS  =  0.00D+00  THRKEX  =  0.00D+00  THRDIS  =  2.00D-01  THRVAR  =  1.00D-10
 THRLOC  =  1.00D-06  THRGAP  =  1.00D-06  THRLOCT = -1.00D+00  THRGAPT = -1.00D+00  THRORB  =  1.00D-06  THRMLTP =  0.00D+00
 THRCPQCI=  1.00D-10  KEXTA   =  0.00D+00  THRCOARS=  0.00D+00  SYMTOL  =  1.00D-06  GRADTOL =  1.00D-06  THROVL  =  1.00D-08
 THRORTH =  1.00D-08  GRID    =  1.00D-06  GRIDMAX =  1.00D-03  DTMAX   =  0.00D+00

 SETTING GEOMTYP        =    XYZ
 ZUNIT=BOHR
 

 Variable memory set to 1000000000 words,  buffer space   230000 words

 SETTING BASIS          =    VDZ


 Recomputing integrals since basis changed


 Using spherical harmonics

 Library entry C      S cc-pVDZ              selected for orbital group  1
 Library entry C      P cc-pVDZ              selected for orbital group  1
 Library entry C      D cc-pVDZ              selected for orbital group  1
 Library entry H      S cc-pVDZ              selected for orbital group  2
 Library entry H      P cc-pVDZ              selected for orbital group  2

1PROGRAM * SEWARD (Integral evaluation for generally contracted gaussian basis sets)     Author: Roland Lindh, 1990

 Geometry written to block  1 of record 700


 Point group  C2h 



 ATOMIC COORDINATES

 NR  ATOM    CHARGE       X              Y              Z

   1  C       6.00    0.001907940   -3.423058634    0.000000000
   2  C       6.00   -0.001907940    3.423058634    0.000000000
   3  H       1.00   -0.970783462   -2.732066074   -1.680629170
   4  H       1.00   -0.970783462   -2.732066074    1.680629170
   5  H       1.00    0.970783462    2.732066074   -1.680629170
   6  H       1.00    0.970783462    2.732066074    1.680629170
   7  H       1.00    1.940751858   -2.730452742    0.000000000
   8  H       1.00   -1.940751858    2.730452742    0.000000000
   9  H       1.00    0.000991508   -5.481489292    0.000000000
  10  H       1.00   -0.000991508    5.481489292    0.000000000

 Bond lengths in Bohr (Angstrom)

 1-3  2.061095264  1-4  2.061095264  1-7  2.058839153  1-9  2.058430862  2-5  2.061095264
     ( 1.090684639)     ( 1.090684639)     ( 1.089490757)     ( 1.089274699)     ( 1.090684639)

  2- 6  2.061095264   2- 8  2.058839153   2-10  2.058430862
       ( 1.090684639)       ( 1.089490757)       ( 1.089274699)

 Bond angles

  3-1-4  109.25502568   3-1-7  109.36847606   3-1-9  109.57526784   4-1-7  109.36847606

  4- 1- 9  109.57526784   5- 2- 6  109.25502568   5- 2- 8  109.36847606   5- 2-10  109.57526784

  6- 2- 8  109.36847606   6- 2-10  109.57526784   7- 1- 9  109.68356878   8- 2-10  109.68356878

 NUCLEAR CHARGE:                   20
 NUMBER OF PRIMITIVE AOS:         110
 NUMBER OF SYMMETRY AOS:          108
 NUMBER OF CONTRACTIONS:           68   (  23Ag  +  11Au  +  23Bu  +  11Bg  )
 NUMBER OF CORE ORBITALS:           2   (   1Ag  +   0Au  +   1Bu  +   0Bg  )
 NUMBER OF VALENCE ORBITALS:       16   (   6Ag  +   2Au  +   6Bu  +   2Bg  )


 NUCLEAR REPULSION ENERGY   41.33929337


 Eigenvalues of metric

         1 0.127E-01 0.348E-01 0.374E-01 0.510E-01 0.558E-01 0.665E-01 0.127E+00 0.131E+00
         2 0.384E-01 0.581E-01 0.144E+00 0.291E+00 0.416E+00 0.916E+00 0.916E+00 0.112E+01
         3 0.113E-01 0.355E-01 0.383E-01 0.414E-01 0.510E-01 0.579E-01 0.964E-01 0.132E+00
         4 0.349E-01 0.560E-01 0.127E+00 0.291E+00 0.412E+00 0.916E+00 0.916E+00 0.110E+01


 Contracted 2-electron integrals neglected if value below      1.0D-16
 AO integral compression algorithm  1   Integral accuracy      1.0D-16

     8.126 MB (compressed) written to integral file (100.0%)

     Node minimum: 8.126 MB, node maximum: 8.126 MB


 NUMBER OF SORTED TWO-ELECTRON INTEGRALS:     733089.     BUFFER LENGTH:  32768
 NUMBER OF SEGMENTS:   1  SEGMENT LENGTH:     733089      RECORD LENGTH: 524288

 Memory used in sort:       1.29 MW

 SORT1 READ      983360. AND WROTE      733089. INTEGRALS IN      3 RECORDS. CPU TIME:     0.02 SEC, REAL TIME:     0.03 SEC
 SORT2 READ      733089. AND WROTE      733089. INTEGRALS IN     31 RECORDS. CPU TIME:     0.03 SEC, REAL TIME:     0.03 SEC

 FILE SIZES:   FILE 1:     8.8 MBYTE,  FILE 4:    12.6 MBYTE,   TOTAL:     21.4 MBYTE

 OPERATOR DM      FOR CENTER  0  COORDINATES:    0.000000    0.000000    0.000000


 **********************************************************************************************************************************
 DATASETS  * FILE   NREC   LENGTH (MB)   RECORD NAMES
              1      19        8.77       500      610      700      900      950      970     1000      129      960     1100   
                                          VAR    BASINP    GEOM    SYMINP    ZMAT    AOBASIS   BASIS     P2S    ABASIS      S 
                                         1400     1410     1200     1210     1080     1600     1650     1300     1700   
                                           T        V       H0       H01     AOSYM     SMH    MOLCAS    ERIS     OPER   

 PROGRAMS   *        TOTAL       INT
 CPU TIMES  *         0.48      0.43
 REAL TIME  *         0.66 SEC
 DISK USED  *        30.27 MB      
 GA USED    *         0.00 MB       (max)       0.00 MB       (current)
 **********************************************************************************************************************************

1PROGRAM * RHF-SCF (CLOSED SHELL)       Authors: W. Meyer, H.-J. Werner


 NUMBER OF ELECTRONS:      10+   10-
 CONVERGENCE THRESHOLDS:    1.00E-10 (Density)    1.00E-13 (Energy)
 MAX. NUMBER OF ITERATIONS:      200
 INTERPOLATION TYPE:            DIIS
 INTERPOLATION STEPS:              2 (START)      1 (STEP)
 LEVEL SHIFTS:                  0.00 (CLOSED)  0.00 (OPEN) 



 Orbital guess generated from atomic densities. Full valence occupancy:    7   2   7   2

 Molecular orbital dump at record        2100.2

 Initial alpha occupancy:   4   1   4   1
 Initial beta  occupancy:   4   1   4   1
 Wave function symmetry:    1

 ITERATION    DDIFF          GRAD             ENERGY        2-EL.EN.            DIPOLE MOMENTS         DIIS
    1      0.000D+00      0.000D+00       -80.35963182    134.822598    0.00000    0.00000    0.00000    0
    2      0.000D+00      0.118D-01       -80.39229786    132.544287    0.00000    0.00000    0.00000    1
    3      0.245D-01      0.433D-02       -80.39615904    133.345473    0.00000    0.00000    0.00000    2
    4      0.853D-02      0.117D-02       -80.39668770    133.208736    0.00000    0.00000    0.00000    3
    5      0.307D-02      0.123D-03       -80.39669222    133.214770    0.00000    0.00000    0.00000    4
    6      0.433D-03      0.727D-05       -80.39669224    133.214632    0.00000    0.00000    0.00000    5
    7      0.381D-04      0.428D-06       -80.39669224    133.214630    0.00000    0.00000    0.00000    5
    8      0.138D-05      0.769D-07       -80.39669224    133.214632    0.00000    0.00000    0.00000    4
    9      0.214D-06      0.212D-07       -80.39669224    133.214632    0.00000    0.00000    0.00000    4
   10      0.733D-07      0.385D-08       -80.39669224    133.214632    0.00000    0.00000    0.00000    5
   11      0.128D-07      0.498D-09       -80.39669224    133.214632    0.00000    0.00000    0.00000    5
   12      0.147D-08      0.107D-09       -80.39669224    133.214632    0.00000    0.00000    0.00000    6
   13      0.406D-09      0.171D-10       -80.39669224    133.214632    0.00000    0.00000    0.00000    6
   14      0.358D-10      0.642D-11       -80.39669224    133.214632    0.00000    0.00000    0.00000    6
   15      0.187D-10      0.543D-12       -80.39669224    133.214632    0.00000    0.00000    0.00000    6
   16      0.161D-11      0.114D-12       -80.39669224    133.214632    0.00000    0.00000    0.00000    6
   17      0.339D-12      0.230D-13       -80.39669224    133.214632    0.00000    0.00000    0.00000    0

 Final occupancy:   4   1   4   1

 !RHF STATE 1.1 Energy                -80.396692241037
 Nuclear energy                        41.33929337
 One-electron energy                 -188.34330176
 Two-electron energy                   66.60731615
 Virial quotient                       -1.00230002
 !RHF STATE 1.1 Dipole moment           0.00000000     0.00000000     0.00000000
 Dipole moment /Debye                   0.00000000     0.00000000     0.00000000

 Orbital energies:

         1.1          2.1          3.1          4.1          5.1          6.1
    -11.215312    -0.944263    -0.550048    -0.538143     0.172430     0.263916

         1.2          2.2          3.2
     -0.544912     0.257108     0.584700

         1.3          2.3          3.3          4.3          5.3          6.3
    -11.215315    -0.938402    -0.545468    -0.534889     0.229282     0.257045

         1.4          2.4          3.4
     -0.537583     0.296819     0.601764


 **********************************************************************************************************************************
 DATASETS  * FILE   NREC   LENGTH (MB)   RECORD NAMES
              1      19        8.77       500      610      700      900      950      970     1000      129      960     1100   
                                          VAR    BASINP    GEOM    SYMINP    ZMAT    AOBASIS   BASIS     P2S    ABASIS      S 
                                         1400     1410     1200     1210     1080     1600     1650     1300     1700   
                                           T        V       H0       H01     AOSYM     SMH    MOLCAS    ERIS     OPER   

              2       3        0.44       700     1000     2100   
                                         GEOM     BASIS     RHF  

 PROGRAMS   *        TOTAL       RHF       INT
 CPU TIMES  *         0.54      0.06      0.43
 REAL TIME  *         0.75 SEC
 DISK USED  *        30.27 MB      
 GA USED    *         0.00 MB       (max)       0.00 MB       (current)
 **********************************************************************************************************************************


1PROGRAM * CCSD (Closed-shell coupled cluster)     Authors: C. Hampel, H.-J. Werner, 1991, M. Deegan, P.J. Knowles, 1992


 Convergence thresholds:  THRVAR = 1.00D-08  THRDEN = 1.00D-12

 CCSD(T)     terms to be evaluated (factor= 1.000)


 Number of core orbitals:           2 (   1   0   1   0 )
 Number of closed-shell orbitals:   8 (   3   1   3   1 )
 Number of external orbitals:      58 (  19  10  19  10 )

 Molecular orbitals read from record     2100.2  Type=RHF/CANONICAL (state 1.1)

 Number of N-1 electron functions:               8
 Number of N-2 electron functions:              36
 Number of singly external CSFs:               134
 Number of doubly external CSFs:             27792
 Total number of CSFs:                       27927

 Length of J-op  integral file:               0.00 MB
 Length of K-op  integral file:               0.12 MB
 Length of 3-ext integral record:             0.00 MB

 Memory could be reduced to 0.90 Mwords without degradation in triples

 Integral transformation finished. Total CPU:   0.02 sec, npass=  1  Memory used:   0.22 MW

 Reference energy:                    -80.39669224

 MP2 singlet pair energy:              -0.23207813
 MP2 triplet pair energy:              -0.09154911
 MP2 correlation energy:               -0.32362725
 MP2 total energy:                    -80.72031949

 SCS-MP2 correlation energy:           -0.33545765   (PS=  1.200000  PT=  0.333333)
 SCS-MP2 total energy:                -80.73214990

 ITER.      SQ.NORM     CORR.ENERGY   TOTAL ENERGY   ENERGY CHANGE        DEN1      VAR(S)    VAR(P)  DIIS     TIME
   1      1.13421167    -0.36752903   -80.76422128    -0.04390179    -0.03297787  0.50D-03  0.24D-02  1  1     0.05
   2      1.14682016    -0.37032646   -80.76701870    -0.00279743    -0.01276495  0.15D-04  0.96D-04  2  2     0.08
   3      1.14861242    -0.37049746   -80.76718970    -0.00017100    -0.00095554  0.17D-05  0.56D-05  3  3     0.11
   4      1.14898019    -0.37051777   -80.76721001    -0.00002031    -0.00016581  0.25D-07  0.35D-06  4  4     0.14
   5      1.14902612    -0.37051529   -80.76720753     0.00000248    -0.00002392  0.18D-08  0.18D-07  5  5     0.17
   6      1.14902743    -0.37051523   -80.76720747     0.00000006    -0.00000011  0.19D-09  0.12D-08  6  6     0.20
   7      1.14902752    -0.37051549   -80.76720773    -0.00000026     0.00000013  0.13D-10  0.71D-10  6  1     0.23
   8      1.14902770    -0.37051548   -80.76720772     0.00000001    -0.00000013  0.15D-11  0.41D-11  6  2     0.26
   9      1.14902773    -0.37051547   -80.76720771     0.00000001    -0.00000003  0.15D-12  0.26D-12  6  3     0.29
  10      1.14902772    -0.37051547   -80.76720771     0.00000000     0.00000001  0.11D-13  0.23D-13  6  4     0.32
  11      1.14902771    -0.37051547   -80.76720771    -0.00000000     0.00000001  0.80D-15  0.19D-14  6  5     0.35
  12      1.14902771    -0.37051547   -80.76720771    -0.00000000     0.00000000  0.43D-16  0.23D-15  6  6     0.38
  13      1.14902771    -0.37051547   -80.76720771    -0.00000000     0.00000000  0.34D-17  0.28D-16  6  1     0.41
  14      1.14902770    -0.37051547   -80.76720771     0.00000000     0.00000000  0.60D-18  0.37D-17  6  2     0.44
  15      1.14902770    -0.37051547   -80.76720771     0.00000000     0.00000000  0.72D-19  0.37D-18  6  3     0.47
  16      1.14902770    -0.37051547   -80.76720771    -0.00000000     0.00000000  0.16D-20  0.20D-19  6  5     0.49
  17      1.14902770    -0.37051547   -80.76720771    -0.00000000     0.00000000  0.18D-21  0.56D-21  6  4     0.52
  18      1.14902770    -0.37051547   -80.76720771     0.00000000    -0.00000000  0.45D-22  0.51D-22  6  6     0.55

 Norm of t1 vector:      0.03062707      S-energy:     0.00000000      T1 diagnostic:  0.00541415
                                                                       D1 diagnostic:  0.00877250


 Total CPU time for triples:      0.23 sec


 RESULTS
 =======

  Reference energy                    -80.396692241037
  CCSD singlet pair energy             -0.281841834743
  CCSD triplet pair energy             -0.088673634764
  CCSD correlation energy              -0.370515469506

  Triples (T) contribution             -0.007535717665
  Total correlation energy             -0.378051187171

  CCSD total energy                   -80.767207710543
  CCSD[T] energy                      -80.774919617249
  CCSD-T energy                       -80.774648989861
 !CCSD(T) total energy                -80.774743428208

 Timing summary (sec):

 STEP                 CPU(USER)    SYS     CPU(TOT)    WALL
 Transformation          0.02      0.00      0.02      0.02
 CCSD iterations         0.53      0.04      0.57      0.61
 Triples                 0.23      0.01      0.24      0.24

 Program statistics:

 Available memory in ccsd:               999999644
 Min. memory needed in ccsd:                 94603
 Max. memory used in ccsd:                  117097
 Max. memory used in cckext:                139739 (18 integral passes)



 **********************************************************************************************************************************
 DATASETS  * FILE   NREC   LENGTH (MB)   RECORD NAMES
              1      20       10.99       500      610      700      900      950      970     1000      129      960     1100   
                                          VAR    BASINP    GEOM    SYMINP    ZMAT    AOBASIS   BASIS     P2S    ABASIS      S 
                                         1400     1410     1200     1210     1080     1600     1650     1300     1700     1380   
                                           T        V       H0       H01     AOSYM     SMH    MOLCAS    ERIS     OPER     JKOP   

              2       3        0.44       700     1000     2100   
                                         GEOM     BASIS     RHF  

 PROGRAMS   *        TOTAL   CCSD(T)       RHF       INT
 CPU TIMES  *         1.33      0.79      0.06      0.43
 REAL TIME  *         1.64 SEC
 DISK USED  *        30.27 MB      
 GA USED    *         0.00 MB       (max)       0.00 MB       (current)
 **********************************************************************************************************************************

        CCSD(T)         RHF-SCF 
    -80.77474343    -80.39669224
 **********************************************************************************************************************************
 Variable memory released
