
 Primary working directories    : /tmp/943420.149.gen4.q
 Secondary working directories  : /tmp/943420.149.gen4.q
 Wavefunction directory         : /home/vulcan/mel64643/wfu/
 Main file repository           : /tmp/943420.149.gen4.q/

 ARCHNAME  : Linux/x86_64
 FC        : /opt/intel/compilers_and_libraries_2016.1.150/linux/bin/intel64/ifort
 FCVERSION : 16.0.1
 BLASLIB   : -mkl
 id        : ccgc

 Nodes     nprocs
 n027         1
 ga_uses_ma=false, calling ma_init with nominal heap.
 GA-space will be limited to   8.0 MW (determined by -G option)

 Using customized tuning parameters: mindgm=10; mindgv=16; mindgc=4; mindgr=1; noblas=0; mincuda=1000; minvec=7
 default implementation of scratch files=df  

 ***,Optimization of nh3_nitrosmethane
 memory,1000,m
 gthresh,energy=1.0d-12,orbital=1.0d-10,oneint=1.0d-16,twoint=1.0d-16,optgrad=1.0d-6,compress=1.0d-13
 geomtyp=xyz
 
 bohr
 geometry = {
  N   -5.2215011988   -0.1867226336    0.0008966060
  H   -6.2969489144    0.2248773629   -1.5335524244
  H   -3.7578800640    1.0572067798   -0.0022967277
  H   -6.2951884547    0.2306834117    1.5350100446
  H   -0.9279360541   -2.3954633945   -0.0039424800
  H    1.8769827659   -3.4273679673   -1.6637248910
  H    1.8797444670   -3.4364688504    1.6696521391
  C    1.1325296403   -2.4671486499   -0.0025460446
  N    2.2649740590    0.0998002377    0.0001715452
  O    0.7093422436    1.7776607126    0.0003322328
 }
 
 basis=aug-cc-pvdz, H=cc-pvdz
 {rhf;maxit,200}
 {ccsd(t);maxit,200}

 Variables initialized (661), CPU time= 0.01 sec
 Commands  initialized (458), CPU time= 0.00 sec, 486 directives.
 Default parameters read. Elapsed time= 0.06 sec

 Checking input...
 Passed
1


                                         ***  PROGRAM SYSTEM MOLPRO  ***
                         Copyright, University College Cardiff Consultants Limited, 2008

                                    Version 2010.1 linked May 16 2016 07:17:05


 **********************************************************************************************************************************
 LABEL *   Optimization of nh3_nitrosmethane                                             
 Linux-4.4.3/n027(x86_64) 64 bit mpp version                                             DATE: 26-Oct-23          TIME: 07:34:19  
 **********************************************************************************************************************************

 SHA1:             9e8077add272b0f3cad6f7df79ec5211205f459d
 **********************************************************************************************************************************

 THRESHOLDS:

 ZERO    =  1.00D-12  ONEINT  =  1.00D-16  TWOINT  =  1.00D-16  PREFAC  =  1.00D-14  LOCALI  =  1.00D-09  EORDER  =  1.00D-04
 ENERGY  =  1.00D-12  ETEST   =  0.00D+00  EDENS   =  0.00D+00  THRDEDEF=  1.00D-06  GRADIENT=  1.00D-02  STEP    =  1.00D-03
 ORBITAL =  1.00D-10  CIVEC   =  1.00D-05  COEFF   =  1.00D-04  PRINTCI =  5.00D-02  PUNCHCI =  9.90D+01  OPTGRAD =  1.00D-06
 OPTENERG=  1.00D-06  OPTSTEP =  3.00D-04  THRGRAD =  1.00D-10  COMPRESS=  1.00D-13  VARMIN  =  1.00D-07  VARMAX  =  1.00D-03
 THRDOUB =  0.00D+00  THRDIV  =  1.00D-05  THRRED  =  1.00D-07  THRPSP  =  1.00D+00  THRDC   =  1.00D-10  THRCS   =  1.00D-10
 THRNRM  =  1.00D-08  THREQ   =  0.00D+00  THRDE   =  1.00D+00  THRREF  =  1.00D-05  SPARFAC =  1.00D+00  THRDLP  =  1.00D-07
 THRDIA  =  1.00D-10  THRDLS  =  1.00D-07  THRGPS  =  0.00D+00  THRKEX  =  0.00D+00  THRDIS  =  2.00D-01  THRVAR  =  1.00D-10
 THRLOC  =  1.00D-06  THRGAP  =  1.00D-06  THRLOCT = -1.00D+00  THRGAPT = -1.00D+00  THRORB  =  1.00D-06  THRMLTP =  0.00D+00
 THRCPQCI=  1.00D-10  KEXTA   =  0.00D+00  THRCOARS=  0.00D+00  SYMTOL  =  1.00D-06  GRADTOL =  1.00D-06  THROVL  =  1.00D-08
 THRORTH =  1.00D-08  GRID    =  1.00D-06  GRIDMAX =  1.00D-03  DTMAX   =  0.00D+00

 SETTING GEOMTYP        =    XYZ
 ZUNIT=BOHR
 

 Variable memory set to 1000000000 words,  buffer space   230000 words

 SETTING BASIS          =    AUG-CC-PVDZ,H=CC-PVDZ


 Recomputing integrals since basis changed


 Using spherical harmonics

 Library entry N      S aug-cc-pVDZ          selected for orbital group  1
 Library entry N      P aug-cc-pVDZ          selected for orbital group  1
 Library entry N      D aug-cc-pVDZ          selected for orbital group  1
 Library entry H      S cc-pVDZ              selected for orbital group  2
 Library entry H      P cc-pVDZ              selected for orbital group  2
 Library entry C      S aug-cc-pVDZ          selected for orbital group  3
 Library entry C      P aug-cc-pVDZ          selected for orbital group  3
 Library entry C      D aug-cc-pVDZ          selected for orbital group  3
 Library entry O      S aug-cc-pVDZ          selected for orbital group  5
 Library entry O      P aug-cc-pVDZ          selected for orbital group  5
 Library entry O      D aug-cc-pVDZ          selected for orbital group  5

1PROGRAM * SEWARD (Integral evaluation for generally contracted gaussian basis sets)     Author: Roland Lindh, 1990

 Geometry written to block  1 of record 700


 Point group  C1  



 ATOMIC COORDINATES

 NR  ATOM    CHARGE       X              Y              Z

   1  N       7.00   -5.221501199   -0.186722634    0.000896606
   2  H       1.00   -6.296948914    0.224877363   -1.533552424
   3  H       1.00   -3.757880064    1.057206780   -0.002296728
   4  H       1.00   -6.295188455    0.230683412    1.535010045
   5  H       1.00   -0.927936054   -2.395463395   -0.003942480
   6  H       1.00    1.876982766   -3.427367967   -1.663724891
   7  H       1.00    1.879744467   -3.436468850    1.669652139
   8  C       6.00    1.132529640   -2.467148650   -0.002546045
   9  N       7.00    2.264974059    0.099800238    0.000171545
  10  O       8.00    0.709342244    1.777660713    0.000332233

 Bond lengths in Bohr (Angstrom)

 1-2  1.918472354  1-3  1.920822066  1-4  1.918472354  5-8  2.061712784  6-8  2.058092990
     ( 1.015211846)     ( 1.016455260)     ( 1.015211846)     ( 1.091011417)     ( 1.089095904)

  7- 8  2.072235125   8- 9  2.805648648   9-10  2.288057286
       ( 1.096579600)       ( 1.484685321)       ( 1.210787769)

 Bond angles

  2-1-3  106.67095331   2-1-4  106.21107540   3-1-4  106.67095304   5-8-6  112.15889657

  5-8-7  112.15890081   5-8-9  111.81278834   6-8-7  107.61734855   6-8-9  106.35838522

  7- 8- 9  106.35838748   8- 9-10  113.35946296

 NUCLEAR CHARGE:                   34
 NUMBER OF PRIMITIVE AOS:         190
 NUMBER OF SYMMETRY AOS:          182
 NUMBER OF CONTRACTIONS:          122   ( 122A   )
 NUMBER OF CORE ORBITALS:           4   (   4A   )
 NUMBER OF VALENCE ORBITALS:       22   (  22A   )


 NUCLEAR REPULSION ENERGY  117.53199136


 Eigenvalues of metric

         1 0.460E-03 0.141E-02 0.195E-02 0.431E-02 0.524E-02 0.748E-02 0.798E-02 0.856E-02


 Contracted 2-electron integrals neglected if value below      1.0D-16
 AO integral compression algorithm  1   Integral accuracy      1.0D-16

     232.522 MB (compressed) written to integral file ( 86.5%)

     Node minimum: 232.522 MB, node maximum: 232.522 MB


 NUMBER OF SORTED TWO-ELECTRON INTEGRALS:   28151256.     BUFFER LENGTH:  32768
 NUMBER OF SEGMENTS:   2  SEGMENT LENGTH:   15997996      RECORD LENGTH: 524288

 Memory used in sort:      16.56 MW

 SORT1 READ    33603451. AND WROTE    27857809. INTEGRALS IN     81 RECORDS. CPU TIME:     0.34 SEC, REAL TIME:     0.53 SEC
 SORT2 READ    27857809. AND WROTE    28151256. INTEGRALS IN    887 RECORDS. CPU TIME:     0.31 SEC, REAL TIME:     0.42 SEC

 FILE SIZES:   FILE 1:   200.2 MBYTE,  FILE 4:   339.8 MBYTE,   TOTAL:    540.0 MBYTE

 OPERATOR DM      FOR CENTER  0  COORDINATES:    0.000000    0.000000    0.000000


 **********************************************************************************************************************************
 DATASETS  * FILE   NREC   LENGTH (MB)   RECORD NAMES
              1      19      200.42       500      610      700      900      950      970     1000      129      960     1100   
                                          VAR    BASINP    GEOM    SYMINP    ZMAT    AOBASIS   BASIS     P2S    ABASIS      S 
                                         1400     1410     1200     1210     1080     1600     1650     1300     1700   
                                           T        V       H0       H01     AOSYM     SMH    MOLCAS    ERIS     OPER   

 PROGRAMS   *        TOTAL       INT
 CPU TIMES  *         2.37      2.30
 REAL TIME  *         2.97 SEC
 DISK USED  *       773.32 MB      
 GA USED    *         0.00 MB       (max)       0.00 MB       (current)
 **********************************************************************************************************************************

1PROGRAM * RHF-SCF (CLOSED SHELL)       Authors: W. Meyer, H.-J. Werner


 NUMBER OF ELECTRONS:      17+   17-    SPACE SYMMETRY=1    SPIN SYMMETRY: Singlet 
 CONVERGENCE THRESHOLDS:    1.00E-10 (Density)    1.00E-13 (Energy)
 MAX. NUMBER OF ITERATIONS:      200
 INTERPOLATION TYPE:            DIIS
 INTERPOLATION STEPS:              2 (START)      1 (STEP)
 LEVEL SHIFTS:                  0.00 (CLOSED)  0.00 (OPEN) 



 Orbital guess generated from atomic densities. Full valence occupancy:   26

 Molecular orbital dump at record        2100.2

 ITERATION    DDIFF          GRAD             ENERGY        2-EL.EN.            DIPOLE MOMENTS         DIIS
    1      0.000D+00      0.000D+00      -224.96648265    393.349665    0.05818   -0.55400    0.00130    0
    2      0.000D+00      0.707D-02      -225.02753931    392.990411   -0.57950   -0.37252   -0.00186    1
    3      0.131D-01      0.488D-02      -225.06037214    393.527462   -0.24294   -0.54222   -0.00210    2
    4      0.566D-02      0.983D-03      -225.06260268    393.362057   -0.31996   -0.44711   -0.00237    3
    5      0.145D-02      0.390D-03      -225.06301932    393.375135   -0.31765   -0.47653   -0.00257    4
    6      0.632D-03      0.948D-04      -225.06306120    393.401840   -0.32299   -0.47375   -0.00263    5
    7      0.217D-03      0.362D-04      -225.06306719    393.385950   -0.32461   -0.47387   -0.00263    6
    8      0.863D-04      0.146D-04      -225.06306816    393.392423   -0.32561   -0.47380   -0.00263    7
    9      0.328D-04      0.618D-05      -225.06306836    393.391267   -0.32588   -0.47351   -0.00263    8
   10      0.178D-04      0.187D-05      -225.06306838    393.390988   -0.32596   -0.47334   -0.00263    8
   11      0.537D-05      0.632D-06      -225.06306838    393.391092   -0.32597   -0.47325   -0.00262    8
   12      0.177D-05      0.193D-06      -225.06306838    393.391058   -0.32597   -0.47323   -0.00262    8
   13      0.665D-06      0.605D-07      -225.06306838    393.391052   -0.32597   -0.47322   -0.00262    8
   14      0.161D-06      0.321D-07      -225.06306838    393.391054   -0.32597   -0.47322   -0.00262    9
   15      0.801D-07      0.906D-08      -225.06306838    393.391054   -0.32597   -0.47322   -0.00262    8
   16      0.251D-07      0.679D-08      -225.06306838    393.391054   -0.32597   -0.47322   -0.00262    7
   17      0.462D-07      0.330D-08      -225.06306838    393.391055   -0.32597   -0.47322   -0.00262    8
   18      0.313D-07      0.102D-08      -225.06306838    393.391054   -0.32597   -0.47322   -0.00262    9
   19      0.695D-08      0.245D-09      -225.06306838    393.391054   -0.32597   -0.47322   -0.00262    9
   20      0.851D-09      0.801D-10      -225.06306838    393.391054   -0.32597   -0.47322   -0.00262    9
   21      0.221D-09      0.244D-10      -225.06306838    393.391054   -0.32597   -0.47322   -0.00262    9
   22      0.633D-10      0.727D-11      -225.06306838    393.391054   -0.32597   -0.47322   -0.00262    8
   23      0.196D-10      0.288D-11      -225.06306838    393.391054   -0.32597   -0.47322   -0.00262    8
   24      0.683D-11      0.126D-11      -225.06306838    393.391054   -0.32597   -0.47322   -0.00262    8
   25      0.275D-11      0.790D-12      -225.06306838    393.391054   -0.32597   -0.47322   -0.00262    8
   26      0.235D-11      0.273D-12      -225.06306838    393.391054   -0.32597   -0.47322   -0.00262    8
   27      0.118D-11      0.122D-12      -225.06306838    393.391054   -0.32597   -0.47322   -0.00262    9
   28      0.117D-11      0.844D-13      -225.06306838    393.391054   -0.32597   -0.47322   -0.00262    9
   29      0.866D-12      0.632D-13      -225.06306838    393.391054   -0.32597   -0.47322   -0.00262    9
   30      0.768D-12      0.549D-13      -225.06306838    393.391054   -0.32597   -0.47322   -0.00262    9
   31      0.420D-12      0.439D-13      -225.06306838    393.391054   -0.32597   -0.47322   -0.00262    9
   32      0.320D-12      0.375D-13      -225.06306838    393.391054   -0.32597   -0.47322   -0.00262    9
   33      0.190D-12      0.309D-13      -225.06306838    393.391054   -0.32597   -0.47322   -0.00262    9
   34      0.174D-12      0.312D-13      -225.06306838    393.391054   -0.32597   -0.47322   -0.00262    0

 Final occupancy:  17

 !RHF STATE 1.1 Energy               -225.063068379241
 Nuclear energy                       117.53199136
 One-electron energy                 -539.29058692
 Two-electron energy                  196.69552718
 Virial quotient                       -1.00210227
 !RHF STATE 1.1 Dipole moment          -0.32597287    -0.47322245    -0.00262304
 Dipole moment /Debye                  -0.82848614    -1.20273271    -0.00666667

 Orbital energies:

         1.1          2.1          3.1          4.1          5.1          6.1          7.1          8.1          9.1         10.1
    -20.640175   -15.713879   -15.549007   -11.270570    -1.519529    -1.140172    -1.075446    -0.862136    -0.692824    -0.676900

        11.1         12.1         13.1         14.1         15.1         16.1         17.1         18.1         19.1
     -0.637205    -0.624006    -0.623479    -0.555811    -0.535662    -0.428229    -0.404737     0.077700     0.085683


 **********************************************************************************************************************************
 DATASETS  * FILE   NREC   LENGTH (MB)   RECORD NAMES
              1      19      200.42       500      610      700      900      950      970     1000      129      960     1100   
                                          VAR    BASINP    GEOM    SYMINP    ZMAT    AOBASIS   BASIS     P2S    ABASIS      S 
                                         1400     1410     1200     1210     1080     1600     1650     1300     1700   
                                           T        V       H0       H01     AOSYM     SMH    MOLCAS    ERIS     OPER   

              2       3        0.72       700     1000     2100   
                                         GEOM     BASIS     RHF  

 PROGRAMS   *        TOTAL       RHF       INT
 CPU TIMES  *        10.37      8.00      2.30
 REAL TIME  *        11.77 SEC
 DISK USED  *       773.32 MB      
 GA USED    *         0.00 MB       (max)       0.00 MB       (current)
 **********************************************************************************************************************************


1PROGRAM * CCSD (Closed-shell coupled cluster)     Authors: C. Hampel, H.-J. Werner, 1991, M. Deegan, P.J. Knowles, 1992


 Convergence thresholds:  THRVAR = 1.00D-08  THRDEN = 1.00D-12

 CCSD(T)     terms to be evaluated (factor= 1.000)


 Number of core orbitals:           4 (   4 )
 Number of closed-shell orbitals:  13 (  13 )
 Number of external orbitals:     105 ( 105 )

 Molecular orbitals read from record     2100.2  Type=RHF/CANONICAL (state 1.1)

 Number of N-1 electron functions:              13
 Number of N-2 electron functions:              91
 Number of singly external CSFs:              1365
 Number of doubly external CSFs:            932295
 Total number of CSFs:                      933661

 Length of J-op  integral file:               0.00 MB
 Length of K-op  integral file:               1.06 MB
 Length of 3-ext integral record:             0.00 MB

 Memory could be reduced to 20.68 Mwords without degradation in triples

 Integral transformation finished. Total CPU:   1.53 sec, npass=  1  Memory used:  15.40 MW

 Reference energy:                   -225.06306838

 MP2 singlet pair energy:              -0.44805461
 MP2 triplet pair energy:              -0.26425051
 MP2 correlation energy:               -0.71230512
 MP2 total energy:                   -225.77537350

 SCS-MP2 correlation energy:           -0.70208807   (PS=  1.200000  PT=  0.333333)
 SCS-MP2 total energy:               -225.76515645

 ITER.      SQ.NORM     CORR.ENERGY   TOTAL ENERGY   ENERGY CHANGE        DEN1      VAR(S)    VAR(P)  DIIS     TIME
   1      1.24104180    -0.74647880  -225.80954718    -0.03417368    -0.01061093  0.52D-02  0.49D-02  1  1     5.16
   2      1.26270496    -0.74959951  -225.81266789    -0.00312071    -0.02100698  0.16D-03  0.85D-03  2  2     8.83
   3      1.27256145    -0.75028816  -225.81335653    -0.00068865    -0.00455957  0.12D-03  0.61D-04  3  3    12.50
   4      1.27663729    -0.75025440  -225.81332278     0.00003375    -0.00135298  0.11D-04  0.11D-04  4  4    16.18
   5      1.27824290    -0.75027142  -225.81333980    -0.00001702    -0.00035147  0.19D-05  0.16D-05  5  5    19.86
   6      1.27869087    -0.75024169  -225.81331007     0.00002973    -0.00005357  0.15D-06  0.33D-06  6  6    23.54
   7      1.27879007    -0.75023887  -225.81330725     0.00000282    -0.00000375  0.33D-07  0.86D-07  6  2    27.23
   8      1.27881396    -0.75023964  -225.81330802    -0.00000077    -0.00000042  0.43D-08  0.20D-07  6  1    30.91
   9      1.27881414    -0.75023908  -225.81330746     0.00000055     0.00000432  0.25D-08  0.31D-08  6  4    34.59
  10      1.27881633    -0.75023986  -225.81330824    -0.00000078    -0.00000116  0.51D-09  0.42D-09  6  3    38.26
  11      1.27881424    -0.75024007  -225.81330845    -0.00000021     0.00000043  0.17D-09  0.75D-10  6  5    41.94
  12      1.27881274    -0.75024014  -225.81330852    -0.00000007     0.00000031  0.39D-10  0.16D-10  6  6    45.62
  13      1.27881116    -0.75024026  -225.81330864    -0.00000012     0.00000039  0.60D-11  0.38D-11  6  1    49.31
  14      1.27881049    -0.75024027  -225.81330865    -0.00000001     0.00000017  0.16D-11  0.56D-12  6  2    52.99
  15      1.27881025    -0.75024027  -225.81330865    -0.00000001     0.00000004  0.52D-12  0.11D-12  6  4    56.67
  16      1.27881019    -0.75024028  -225.81330866    -0.00000000     0.00000001  0.30D-12  0.44D-13  6  3    60.35
  17      1.27881016    -0.75024028  -225.81330866     0.00000000    -0.00000000  0.17D-12  0.21D-13  6  6    64.01
  18      1.27881016    -0.75024028  -225.81330866    -0.00000000    -0.00000000  0.89D-13  0.11D-13  6  5    67.69
  19      1.27881017    -0.75024028  -225.81330866     0.00000000    -0.00000000  0.35D-13  0.62D-14  6  2    71.37
  20      1.27881017    -0.75024028  -225.81330866    -0.00000000     0.00000000  0.89D-14  0.24D-14  6  1    75.04
  21      1.27881017    -0.75024028  -225.81330866     0.00000000    -0.00000000  0.11D-14  0.72D-15  6  3    78.73
  22      1.27881017    -0.75024028  -225.81330866     0.00000000     0.00000000  0.16D-15  0.16D-15  6  4    82.41
  23      1.27881017    -0.75024028  -225.81330866     0.00000000    -0.00000000  0.23D-16  0.31D-16  6  5    86.09
  24      1.27881017    -0.75024028  -225.81330866     0.00000000    -0.00000000  0.64D-17  0.93D-17  6  6    89.76
  25      1.27881017    -0.75024028  -225.81330866     0.00000000    -0.00000000  0.19D-17  0.30D-17  6  2    93.44
  26      1.27881017    -0.75024028  -225.81330866    -0.00000000     0.00000000  0.46D-18  0.10D-17  6  4    97.12
  27      1.27881017    -0.75024028  -225.81330866    -0.00000000     0.00000000  0.23D-18  0.14D-18  6  1   100.81
  28      1.27881017    -0.75024028  -225.81330866    -0.00000000     0.00000000  0.12D-18  0.30D-19  6  3   104.49

 Norm of t1 vector:      0.11021435      S-energy:    -0.00000000      T1 diagnostic:  0.01528398
                                                                       D1 diagnostic:  0.04846753

 Doubles amplitudes (print threshold =  0.500E-01):

         I         J         SYM. A    SYM. B    A         B      T(IJ, AB)

        11        11         1         1         2         2     -0.05263934


 Total CPU time for triples:     51.20 sec


 RESULTS
 =======

  Reference energy                   -225.063068379240
  CCSD singlet pair energy             -0.516302183303
  CCSD triplet pair energy             -0.233938094910
  CCSD correlation energy              -0.750240278214

  Triples (T) contribution             -0.026154552254
  Total correlation energy             -0.776394830468

  CCSD total energy                  -225.813308657455
  CCSD[T] energy                     -225.841042599998
  CCSD-T energy                      -225.838974517786
 !CCSD(T) total energy               -225.839463209709

 Timing summary (sec):

 STEP                 CPU(USER)    SYS     CPU(TOT)    WALL
 Transformation          1.60      0.13      1.73      1.73
 CCSD iterations       102.90      2.00    104.90    104.98
 Triples                51.20      0.73     51.93     51.95

 Program statistics:

 Available memory in ccsd:               999999224
 Min. memory needed in ccsd:               2510565
 Max. memory used in ccsd:                 3320127
 Max. memory used in cckext:               2903072 (28 integral passes)



 **********************************************************************************************************************************
 DATASETS  * FILE   NREC   LENGTH (MB)   RECORD NAMES
              1      20      277.82       500      610      700      900      950      970     1000      129      960     1100   
                                          VAR    BASINP    GEOM    SYMINP    ZMAT    AOBASIS   BASIS     P2S    ABASIS      S 
                                         1400     1410     1200     1210     1080     1600     1650     1300     1700     1380   
                                           T        V       H0       H01     AOSYM     SMH    MOLCAS    ERIS     OPER     JKOP   

              2       3        0.72       700     1000     2100   
                                         GEOM     BASIS     RHF  

 PROGRAMS   *        TOTAL   CCSD(T)       RHF       INT
 CPU TIMES  *       166.09    155.72      8.00      2.30
 REAL TIME  *       170.48 SEC
 DISK USED  *       773.32 MB      
 GA USED    *         0.00 MB       (max)       0.00 MB       (current)
 **********************************************************************************************************************************

        CCSD(T)         RHF-SCF 
   -225.83946321   -225.06306838
 **********************************************************************************************************************************
 Variable memory released
