
 Primary working directories    : /tmp/862144.353.gen4.q
 Secondary working directories  : /tmp/862144.353.gen4.q
 Wavefunction directory         : /home/vulcan/lo21740/wfu/
 Main file repository           : /tmp/862144.353.gen4.q/

 ARCHNAME  : Linux/x86_64
 FC        : /opt/intel/compilers_and_libraries_2016.1.150/linux/bin/intel64/ifort
 FCVERSION : 16.0.1
 BLASLIB   : -mkl
 id        : ccgc

 Nodes     nprocs
 n027         1
 ga_uses_ma=false, calling ma_init with nominal heap.
 GA-space will be limited to   8.0 MW (determined by -G option)

 Using customized tuning parameters: mindgm=10; mindgv=16; mindgc=4; mindgr=1; noblas=0; mincuda=1000; minvec=7
 default implementation of scratch files=df  

 ***,Optimization of formic acid
 memory,1000,m
 gthresh,energy=1.0d-12,orbital=1.0d-10,oneint=1.0d-16,twoint=1.0d-16,optgrad=1.0d-6,compress=1.0d-13
 geomtyp=xyz
 
 bohr
 geometry = {
  C   -3.5009793593   -0.8306212819   -0.0007810201
  O   -3.0924133649    1.6226454204    0.0054959237
  O   -1.8870315308   -2.4813550603   -0.0009591701
  H   -5.5196321041   -1.2736204035   -0.0068681497
  H   -1.2451685807    1.9538303319    0.0031124162
  C    3.5009793593    0.8306212819   -0.0007810201
  O    3.0924133649   -1.6226454204    0.0054959237
  O    1.8870315308    2.4813550603   -0.0009591701
  H    5.5196321041    1.2736204035   -0.0068681497
  H    1.2451685807   -1.9538303319    0.0031124162
 }
 
 basis=VDZ
 {rhf;maxit,200}
 {ccsd(t);maxit,200}

 Variables initialized (661), CPU time= 0.00 sec
 Commands  initialized (458), CPU time= 0.00 sec, 486 directives.
 Default parameters read. Elapsed time= 0.06 sec

 Checking input...
 Passed
1


                                         ***  PROGRAM SYSTEM MOLPRO  ***
                         Copyright, University College Cardiff Consultants Limited, 2008

                                    Version 2010.1 linked May 16 2016 07:17:05


 **********************************************************************************************************************************
 LABEL *   Optimization of formic acid                                                   
 Linux-4.4.3/n027(x86_64) 64 bit mpp version                                             DATE: 26-Apr-23          TIME: 18:21:21  
 **********************************************************************************************************************************

 SHA1:             9e8077add272b0f3cad6f7df79ec5211205f459d
 **********************************************************************************************************************************

 THRESHOLDS:

 ZERO    =  1.00D-12  ONEINT  =  1.00D-16  TWOINT  =  1.00D-16  PREFAC  =  1.00D-14  LOCALI  =  1.00D-09  EORDER  =  1.00D-04
 ENERGY  =  1.00D-12  ETEST   =  0.00D+00  EDENS   =  0.00D+00  THRDEDEF=  1.00D-06  GRADIENT=  1.00D-02  STEP    =  1.00D-03
 ORBITAL =  1.00D-10  CIVEC   =  1.00D-05  COEFF   =  1.00D-04  PRINTCI =  5.00D-02  PUNCHCI =  9.90D+01  OPTGRAD =  1.00D-06
 OPTENERG=  1.00D-06  OPTSTEP =  3.00D-04  THRGRAD =  1.00D-10  COMPRESS=  1.00D-13  VARMIN  =  1.00D-07  VARMAX  =  1.00D-03
 THRDOUB =  0.00D+00  THRDIV  =  1.00D-05  THRRED  =  1.00D-07  THRPSP  =  1.00D+00  THRDC   =  1.00D-10  THRCS   =  1.00D-10
 THRNRM  =  1.00D-08  THREQ   =  0.00D+00  THRDE   =  1.00D+00  THRREF  =  1.00D-05  SPARFAC =  1.00D+00  THRDLP  =  1.00D-07
 THRDIA  =  1.00D-10  THRDLS  =  1.00D-07  THRGPS  =  0.00D+00  THRKEX  =  0.00D+00  THRDIS  =  2.00D-01  THRVAR  =  1.00D-10
 THRLOC  =  1.00D-06  THRGAP  =  1.00D-06  THRLOCT = -1.00D+00  THRGAPT = -1.00D+00  THRORB  =  1.00D-06  THRMLTP =  0.00D+00
 THRCPQCI=  1.00D-10  KEXTA   =  0.00D+00  THRCOARS=  0.00D+00  SYMTOL  =  1.00D-06  GRADTOL =  1.00D-06  THROVL  =  1.00D-08
 THRORTH =  1.00D-08  GRID    =  1.00D-06  GRIDMAX =  1.00D-03  DTMAX   =  0.00D+00

 SETTING GEOMTYP        =    XYZ
 ZUNIT=BOHR
 

 Variable memory set to 1000000000 words,  buffer space   230000 words

 SETTING BASIS          =    VDZ


 Recomputing integrals since basis changed


 Using spherical harmonics

 Library entry C      S cc-pVDZ              selected for orbital group  1
 Library entry C      P cc-pVDZ              selected for orbital group  1
 Library entry C      D cc-pVDZ              selected for orbital group  1
 Library entry O      S cc-pVDZ              selected for orbital group  2
 Library entry O      P cc-pVDZ              selected for orbital group  2
 Library entry O      D cc-pVDZ              selected for orbital group  2
 Library entry H      S cc-pVDZ              selected for orbital group  3
 Library entry H      P cc-pVDZ              selected for orbital group  3

1PROGRAM * SEWARD (Integral evaluation for generally contracted gaussian basis sets)     Author: Roland Lindh, 1990

 Geometry written to block  1 of record 700


 Point group  C2  



 ATOMIC COORDINATES

 NR  ATOM    CHARGE       X              Y              Z

   1  C       6.00   -3.500979359   -0.830621282   -0.000781020
   2  C       6.00    3.500979359    0.830621282   -0.000781020
   3  O       8.00   -3.092413365    1.622645420    0.005495924
   4  O       8.00    3.092413365   -1.622645420    0.005495924
   5  O       8.00   -1.887031531   -2.481355060   -0.000959170
   6  O       8.00    1.887031531    2.481355060   -0.000959170
   7  H       1.00   -5.519632104   -1.273620404   -0.006868150
   8  H       1.00    5.519632104    1.273620404   -0.006868150
   9  H       1.00   -1.245168581    1.953830332    0.003112416
  10  H       1.00    1.245168581   -1.953830332    0.003112416

 Bond lengths in Bohr (Angstrom)

 1-3  2.487063144  1-5  2.308625052  1-7  2.066698860  2-4  2.487063144  2-6  2.308625052
     ( 1.316097133)     ( 1.221671762)     ( 1.093649935)     ( 1.316097133)     ( 1.221671762)

  2- 8  2.066698860   3- 9  1.876699875   4-10  1.876699875
       ( 1.093649935)       ( 0.993106802)       ( 0.993106802)

 Bond angles

  1- 3- 9  109.61929752   2- 4-10  109.61929752   3- 1- 5  126.19021619   3- 1- 7  111.83303682

  4-2-6  126.19021619   4-2-8  111.83303682   5-1-7  121.97674272   6-2-8  121.97674272

 NUCLEAR CHARGE:                   48
 NUMBER OF PRIMITIVE AOS:         190
 NUMBER OF SYMMETRY AOS:          184
 NUMBER OF CONTRACTIONS:          104   (  52A   +  52B   )
 NUMBER OF CORE ORBITALS:           6   (   3A   +   3B   )
 NUMBER OF VALENCE ORBITALS:       28   (  14A   +  14B   )


 NUCLEAR REPULSION ENERGY  235.56394636


 Eigenvalues of metric

         1 0.818E-02 0.138E-01 0.166E-01 0.299E-01 0.374E-01 0.442E-01 0.555E-01 0.933E-01
         2 0.871E-02 0.140E-01 0.165E-01 0.306E-01 0.353E-01 0.439E-01 0.529E-01 0.962E-01


 Contracted 2-electron integrals neglected if value below      1.0D-16
 AO integral compression algorithm  1   Integral accuracy      1.0D-16

     72.352 MB (compressed) written to integral file ( 95.3%)

     Node minimum: 72.352 MB, node maximum: 72.352 MB


 NUMBER OF SORTED TWO-ELECTRON INTEGRALS:    7596914.     BUFFER LENGTH:  32768
 NUMBER OF SEGMENTS:   1  SEGMENT LENGTH:    7596914      RECORD LENGTH: 524288

 Memory used in sort:       8.15 MW

 SORT1 READ     9494560. AND WROTE     7533810. INTEGRALS IN     22 RECORDS. CPU TIME:     0.10 SEC, REAL TIME:     0.15 SEC
 SORT2 READ     7533810. AND WROTE     7596914. INTEGRALS IN    276 RECORDS. CPU TIME:     0.12 SEC, REAL TIME:     0.15 SEC

 FILE SIZES:   FILE 1:    61.9 MBYTE,  FILE 4:    92.3 MBYTE,   TOTAL:    154.2 MBYTE

 OPERATOR DM      FOR CENTER  0  COORDINATES:    0.000000    0.000000    0.000000


 **********************************************************************************************************************************
 DATASETS  * FILE   NREC   LENGTH (MB)   RECORD NAMES
              1      19       61.96       500      610      700      900      950      970     1000      129      960     1100   
                                          VAR    BASINP    GEOM    SYMINP    ZMAT    AOBASIS   BASIS     P2S    ABASIS      S 
                                         1400     1410     1200     1210     1080     1600     1650     1300     1700   
                                           T        V       H0       H01     AOSYM     SMH    MOLCAS    ERIS     OPER   

 PROGRAMS   *        TOTAL       INT
 CPU TIMES  *         1.58      1.52
 REAL TIME  *         1.87 SEC
 DISK USED  *       227.34 MB      
 GA USED    *         0.00 MB       (max)       0.00 MB       (current)
 **********************************************************************************************************************************

1PROGRAM * RHF-SCF (CLOSED SHELL)       Authors: W. Meyer, H.-J. Werner


 NUMBER OF ELECTRONS:      24+   24-
 CONVERGENCE THRESHOLDS:    1.00E-10 (Density)    1.00E-13 (Energy)
 MAX. NUMBER OF ITERATIONS:      200
 INTERPOLATION TYPE:            DIIS
 INTERPOLATION STEPS:              2 (START)      1 (STEP)
 LEVEL SHIFTS:                  0.00 (CLOSED)  0.00 (OPEN) 



 Orbital guess generated from atomic densities. Full valence occupancy:   17  17

 Molecular orbital dump at record        2100.2

 Initial alpha occupancy:  12  12
 Initial beta  occupancy:  12  12
 Wave function symmetry:    1

 ITERATION    DDIFF          GRAD             ENERGY        2-EL.EN.            DIPOLE MOMENTS         DIIS
    1      0.000D+00      0.000D+00      -377.45001383    747.120816    0.00000    0.00000   -0.00389    0
    2      0.000D+00      0.156D-01      -377.53780771    744.264305    0.00000    0.00000   -0.00275    1
    3      0.307D-01      0.964D-02      -377.58452332    746.514800    0.00000    0.00000   -0.00332    2
    4      0.112D-01      0.136D-02      -377.58601407    746.235681    0.00000    0.00000   -0.00352    3
    5      0.218D-02      0.566D-03      -377.58627473    746.261128    0.00000    0.00000   -0.00346    4
    6      0.897D-03      0.162D-03      -377.58632081    746.305394    0.00000    0.00000   -0.00349    5
    7      0.310D-03      0.740D-04      -377.58633213    746.290261    0.00000    0.00000   -0.00349    6
    8      0.186D-03      0.220D-04      -377.58633313    746.295460    0.00000    0.00000   -0.00349    7
    9      0.579D-04      0.743D-05      -377.58633323    746.294009    0.00000    0.00000   -0.00349    8
   10      0.201D-04      0.203D-05      -377.58633324    746.294178    0.00000    0.00000   -0.00349    7
   11      0.566D-05      0.496D-06      -377.58633324    746.294123    0.00000    0.00000   -0.00349    8
   12      0.132D-05      0.139D-06      -377.58633324    746.294145    0.00000    0.00000   -0.00349    7
   13      0.363D-06      0.559D-07      -377.58633324    746.294133    0.00000    0.00000   -0.00349    8
   14      0.105D-06      0.169D-07      -377.58633324    746.294135    0.00000    0.00000   -0.00349    7
   15      0.434D-07      0.506D-08      -377.58633324    746.294135    0.00000    0.00000   -0.00349    7
   16      0.897D-08      0.140D-08      -377.58633324    746.294135    0.00000    0.00000   -0.00349    7
   17      0.285D-08      0.545D-09      -377.58633324    746.294135    0.00000    0.00000   -0.00349    7
   18      0.108D-08      0.162D-09      -377.58633324    746.294135    0.00000    0.00000   -0.00349    8
   19      0.395D-09      0.530D-10      -377.58633324    746.294135    0.00000    0.00000   -0.00349    8
   20      0.131D-09      0.118D-10      -377.58633324    746.294135    0.00000    0.00000   -0.00349    7
   21      0.315D-10      0.226D-11      -377.58633324    746.294135    0.00000    0.00000   -0.00349    0

 Final occupancy:  12  12

 !RHF STATE 1.1 Energy               -377.586333236226
 Nuclear energy                       235.56394636
 One-electron energy                 -986.29734705
 Two-electron energy                  373.14706745
 Virial quotient                       -1.00120197
 !RHF STATE 1.1 Dipole moment           0.00000000     0.00000000    -0.00348979
 Dipole moment /Debye                   0.00000000     0.00000000    -0.00886959

 Orbital energies:

         1.1          2.1          3.1          4.1          5.1          6.1          7.1          8.1          9.1         10.1
    -20.613716   -20.575389   -11.411953    -1.482350    -1.369848    -0.914762    -0.728180    -0.689187    -0.638493    -0.615172

        11.1         12.1         13.1         14.1
     -0.489473    -0.487768     0.161013     0.204233

         1.2          2.2          3.2          4.2          5.2          6.2          7.2          8.2          9.2         10.2
    -20.613714   -20.575389   -11.411953    -1.469651    -1.383824    -0.879024    -0.763340    -0.719374    -0.628928    -0.573868

        11.2         12.2         13.2         14.2
     -0.498433    -0.467817     0.166078     0.209804


 **********************************************************************************************************************************
 DATASETS  * FILE   NREC   LENGTH (MB)   RECORD NAMES
              1      19       61.96       500      610      700      900      950      970     1000      129      960     1100   
                                          VAR    BASINP    GEOM    SYMINP    ZMAT    AOBASIS   BASIS     P2S    ABASIS      S 
                                         1400     1410     1200     1210     1080     1600     1650     1300     1700   
                                           T        V       H0       H01     AOSYM     SMH    MOLCAS    ERIS     OPER   

              2       3        0.53       700     1000     2100   
                                         GEOM     BASIS     RHF  

 PROGRAMS   *        TOTAL       RHF       INT
 CPU TIMES  *         2.46      0.88      1.52
 REAL TIME  *         2.92 SEC
 DISK USED  *       227.34 MB      
 GA USED    *         0.00 MB       (max)       0.00 MB       (current)
 **********************************************************************************************************************************


1PROGRAM * CCSD (Closed-shell coupled cluster)     Authors: C. Hampel, H.-J. Werner, 1991, M. Deegan, P.J. Knowles, 1992


 Convergence thresholds:  THRVAR = 1.00D-08  THRDEN = 1.00D-12

 CCSD(T)     terms to be evaluated (factor= 1.000)


 Number of core orbitals:           6 (   3   3 )
 Number of closed-shell orbitals:  18 (   9   9 )
 Number of external orbitals:      80 (  40  40 )

 Molecular orbitals read from record     2100.2  Type=RHF/CANONICAL (state 1.1)

 Number of N-1 electron functions:              18
 Number of N-2 electron functions:             171
 Number of singly external CSFs:               720
 Number of doubly external CSFs:            519120
 Total number of CSFs:                      519841

 Length of J-op  integral file:               0.00 MB
 Length of K-op  integral file:               0.41 MB
 Length of 3-ext integral record:             0.00 MB

 Memory could be reduced to 6.90 Mwords without degradation in triples

 Integral transformation finished. Total CPU:   0.42 sec, npass=  1  Memory used:   5.16 MW

 Reference energy:                   -377.58633324

 MP2 singlet pair energy:              -0.59888924
 MP2 triplet pair energy:              -0.40674785
 MP2 correlation energy:               -1.00563709
 MP2 total energy:                   -378.59197032

 SCS-MP2 correlation energy:           -0.97175464   (PS=  1.200000  PT=  0.333333)
 SCS-MP2 total energy:               -378.55808787

 ITER.      SQ.NORM     CORR.ENERGY   TOTAL ENERGY   ENERGY CHANGE        DEN1      VAR(S)    VAR(P)  DIIS     TIME
   1      1.28141602    -1.02593580  -378.61226904    -0.02029872     0.01040890  0.10D-01  0.55D-02  1  1     1.63
   2      1.30505342    -1.02781920  -378.61415244    -0.00188340    -0.02502514  0.25D-03  0.10D-02  2  2     2.68
   3      1.31804316    -1.02876574  -378.61509898    -0.00094654    -0.00594097  0.20D-03  0.42D-04  3  3     3.73
   4      1.32337123    -1.02853271  -378.61486595     0.00023303    -0.00174740  0.17D-04  0.71D-05  4  4     4.79
   5      1.32542908    -1.02844328  -378.61477652     0.00008943    -0.00045703  0.11D-05  0.68D-06  5  5     5.82
   6      1.32577146    -1.02842296  -378.61475619     0.00002033    -0.00001555  0.10D-06  0.60D-07  6  6     6.88
   7      1.32583991    -1.02841536  -378.61474860     0.00000759    -0.00000447  0.79D-08  0.88D-08  6  2     7.93
   8      1.32584313    -1.02841621  -378.61474945    -0.00000085     0.00000207  0.16D-08  0.89D-09  6  1     8.98
   9      1.32584391    -1.02841589  -378.61474913     0.00000032     0.00000091  0.33D-09  0.16D-09  6  4    10.04
  10      1.32584572    -1.02841574  -378.61474897     0.00000015    -0.00000062  0.93D-10  0.26D-10  6  3    11.09
  11      1.32584520    -1.02841586  -378.61474910    -0.00000012     0.00000025  0.21D-10  0.53D-11  6  5    12.15
  12      1.32584485    -1.02841587  -378.61474911    -0.00000001     0.00000005  0.27D-11  0.11D-11  6  6    13.22
  13      1.32584453    -1.02841592  -378.61474915    -0.00000004     0.00000013  0.30D-12  0.20D-12  6  1    14.27
  14      1.32584441    -1.02841592  -378.61474916    -0.00000000     0.00000002  0.28D-13  0.23D-13  6  2    15.33
  15      1.32584438    -1.02841592  -378.61474916    -0.00000000     0.00000001  0.59D-14  0.28D-14  6  4    16.38
  16      1.32584437    -1.02841592  -378.61474916    -0.00000000     0.00000000  0.87D-15  0.60D-15  6  5    17.53
  17      1.32584437    -1.02841592  -378.61474916    -0.00000000    -0.00000000  0.10D-15  0.54D-16  6  3    18.58
  18      1.32584436    -1.02841592  -378.61474916    -0.00000000     0.00000000  0.31D-16  0.14D-16  6  5    19.63
  19      1.32584436    -1.02841592  -378.61474916    -0.00000000     0.00000000  0.57D-17  0.21D-17  6  6    20.68
  20      1.32584436    -1.02841592  -378.61474916     0.00000000     0.00000000  0.15D-17  0.43D-18  6  1    21.73
  21      1.32584436    -1.02841592  -378.61474916    -0.00000000     0.00000000  0.44D-18  0.12D-18  6  4    22.79
  22      1.32584436    -1.02841592  -378.61474916     0.00000000    -0.00000000  0.68D-19  0.17D-19  6  2    23.84
  23      1.32584436    -1.02841592  -378.61474916     0.00000000    -0.00000000  0.23D-19  0.45D-20  6  3    24.89
  24      1.32584436    -1.02841592  -378.61474916    -0.00000000     0.00000000  0.52D-20  0.17D-20  6  6    25.95

 Norm of t1 vector:      0.15226701      S-energy:     0.00000000      T1 diagnostic:  0.01794484
                                                                       D1 diagnostic:  0.06485992

 Singles amplitudes (print threshold =  0.500E-01):

         I         SYM. A    A   T(IA)

         6         1         1      0.05933236
        15         2         1      0.06115842


 Total CPU time for triples:     14.20 sec


 RESULTS
 =======

  Reference energy                   -377.586333236225
  CCSD singlet pair energy             -0.670704166128
  CCSD triplet pair energy             -0.357711758368
  CCSD correlation energy              -1.028415924494

  Triples (T) contribution             -0.031866174798
  Total correlation energy             -1.060282099292

  CCSD total energy                  -378.614749160720
  CCSD[T] energy                     -378.649892856403
  CCSD-T energy                      -378.645537300121
 !CCSD(T) total energy               -378.646615335517

 Timing summary (sec):

 STEP                 CPU(USER)    SYS     CPU(TOT)    WALL
 Transformation          0.44      0.05      0.49      0.49
 CCSD iterations        25.51      0.80     26.31     26.37
 Triples                14.20      0.35     14.55     14.55

 Program statistics:

 Available memory in ccsd:               999998604
 Min. memory needed in ccsd:               1434204
 Max. memory used in ccsd:                 1896588
 Max. memory used in cckext:               2097662 (24 integral passes)



 **********************************************************************************************************************************
 DATASETS  * FILE   NREC   LENGTH (MB)   RECORD NAMES
              1      20       92.26       500      610      700      900      950      970     1000      129      960     1100   
                                          VAR    BASINP    GEOM    SYMINP    ZMAT    AOBASIS   BASIS     P2S    ABASIS      S 
                                         1400     1410     1200     1210     1080     1600     1650     1300     1700     1380   
                                           T        V       H0       H01     AOSYM     SMH    MOLCAS    ERIS     OPER     JKOP   

              2       3        0.53       700     1000     2100   
                                         GEOM     BASIS     RHF  

 PROGRAMS   *        TOTAL   CCSD(T)       RHF       INT
 CPU TIMES  *        42.63     40.17      0.88      1.52
 REAL TIME  *        44.37 SEC
 DISK USED  *       257.37 MB      
 GA USED    *         0.00 MB       (max)       0.00 MB       (current)
 **********************************************************************************************************************************

        CCSD(T)         RHF-SCF 
   -378.64661534   -377.58633324
 **********************************************************************************************************************************
 Variable memory released
