
 Primary working directories    : /tmp/917047.510.gen4.q
 Secondary working directories  : /tmp/917047.510.gen4.q
 Wavefunction directory         : /home/vulcan/lo21740/wfu/
 Main file repository           : /tmp/917047.510.gen4.q/

 ARCHNAME  : Linux/x86_64
 FC        : /opt/intel/compilers_and_libraries_2016.1.150/linux/bin/intel64/ifort
 FCVERSION : 16.0.1
 BLASLIB   : -mkl
 id        : ccgc

 Nodes     nprocs
 n067         1
 ga_uses_ma=false, calling ma_init with nominal heap.
 GA-space will be limited to   8.0 MW (determined by -G option)

 Using customized tuning parameters: mindgm=10; mindgv=16; mindgc=4; mindgr=1; noblas=0; mincuda=1000; minvec=7
 default implementation of scratch files=df  

 ***,Optimization of h2o_2
 memory,1000,m
 gthresh,energy=1.0d-12,orbital=1.0d-10,oneint=1.0d-16,twoint=1.0d-16,optgrad=1.0d-6,compress=1.0d-13
 geomtyp=xyz
 
 bohr
 geometry = {
  C   -0.0007795124   -3.4170793817   -0.0027073933
  H   -0.9726108014   -2.7325596876   -1.6849774135
  H   -0.9666646953   -2.7343998154    1.6837297115
  H    1.9418007926   -2.7319648433    0.0045226996
  H    0.0002922363   -5.4768906525   -0.0038344395
  C   -0.0004117412    3.4204620838    0.0040168488
  H   -0.0022189426    5.4802030930   -0.0129708167
  H    0.9706783344    2.7314629468   -1.6768519566
  H    0.9706790116    2.7317395710    1.6849986265
  H   -1.9407646820    2.7290266858    0.0040741332
 }
 
 basis=AVDZ, H=VDZ
 {rhf;maxit,200}
 {ccsd(t);maxit,200}

 Variables initialized (661), CPU time= 0.00 sec
 Commands  initialized (458), CPU time= 0.00 sec, 486 directives.
 Default parameters read. Elapsed time= 0.05 sec

 Checking input...
 Passed
1


                                         ***  PROGRAM SYSTEM MOLPRO  ***
                         Copyright, University College Cardiff Consultants Limited, 2008

                                    Version 2010.1 linked May 16 2016 07:17:05


 **********************************************************************************************************************************
 LABEL *   Optimization of h2o_2                                                         
 Linux-4.4.3/n067(x86_64) 64 bit mpp version                                             DATE: 20-Jul-23          TIME: 13:29:11  
 **********************************************************************************************************************************

 SHA1:             9e8077add272b0f3cad6f7df79ec5211205f459d
 **********************************************************************************************************************************

 THRESHOLDS:

 ZERO    =  1.00D-12  ONEINT  =  1.00D-16  TWOINT  =  1.00D-16  PREFAC  =  1.00D-14  LOCALI  =  1.00D-09  EORDER  =  1.00D-04
 ENERGY  =  1.00D-12  ETEST   =  0.00D+00  EDENS   =  0.00D+00  THRDEDEF=  1.00D-06  GRADIENT=  1.00D-02  STEP    =  1.00D-03
 ORBITAL =  1.00D-10  CIVEC   =  1.00D-05  COEFF   =  1.00D-04  PRINTCI =  5.00D-02  PUNCHCI =  9.90D+01  OPTGRAD =  1.00D-06
 OPTENERG=  1.00D-06  OPTSTEP =  3.00D-04  THRGRAD =  1.00D-10  COMPRESS=  1.00D-13  VARMIN  =  1.00D-07  VARMAX  =  1.00D-03
 THRDOUB =  0.00D+00  THRDIV  =  1.00D-05  THRRED  =  1.00D-07  THRPSP  =  1.00D+00  THRDC   =  1.00D-10  THRCS   =  1.00D-10
 THRNRM  =  1.00D-08  THREQ   =  0.00D+00  THRDE   =  1.00D+00  THRREF  =  1.00D-05  SPARFAC =  1.00D+00  THRDLP  =  1.00D-07
 THRDIA  =  1.00D-10  THRDLS  =  1.00D-07  THRGPS  =  0.00D+00  THRKEX  =  0.00D+00  THRDIS  =  2.00D-01  THRVAR  =  1.00D-10
 THRLOC  =  1.00D-06  THRGAP  =  1.00D-06  THRLOCT = -1.00D+00  THRGAPT = -1.00D+00  THRORB  =  1.00D-06  THRMLTP =  0.00D+00
 THRCPQCI=  1.00D-10  KEXTA   =  0.00D+00  THRCOARS=  0.00D+00  SYMTOL  =  1.00D-06  GRADTOL =  1.00D-06  THROVL  =  1.00D-08
 THRORTH =  1.00D-08  GRID    =  1.00D-06  GRIDMAX =  1.00D-03  DTMAX   =  0.00D+00

 SETTING GEOMTYP        =    XYZ
 ZUNIT=BOHR
 

 Variable memory set to 1000000000 words,  buffer space   230000 words

 SETTING BASIS          =    AVDZ,H=VDZ


 Recomputing integrals since basis changed


 Using spherical harmonics

 Library entry C      S aug-cc-pVDZ          selected for orbital group  1
 Library entry C      P aug-cc-pVDZ          selected for orbital group  1
 Library entry C      D aug-cc-pVDZ          selected for orbital group  1
 Library entry H      S cc-pVDZ              selected for orbital group  2
 Library entry H      P cc-pVDZ              selected for orbital group  2

1PROGRAM * SEWARD (Integral evaluation for generally contracted gaussian basis sets)     Author: Roland Lindh, 1990

 Geometry written to block  1 of record 700


 Point group  C1  



 ATOMIC COORDINATES

 NR  ATOM    CHARGE       X              Y              Z

   1  C       6.00   -0.000779512   -3.417079382   -0.002707393
   2  H       1.00   -0.972610801   -2.732559688   -1.684977413
   3  H       1.00   -0.966664695   -2.734399815    1.683729712
   4  H       1.00    1.941800793   -2.731964843    0.004522700
   5  H       1.00    0.000292236   -5.476890652   -0.003834439
   6  C       6.00   -0.000411741    3.420462084    0.004016849
   7  H       1.00   -0.002218943    5.480203093   -0.012970817
   8  H       1.00    0.970678334    2.731462947   -1.676851957
   9  H       1.00    0.970679012    2.731739571    1.684998627
  10  H       1.00   -1.940764682    2.729026686    0.004074133

 Bond lengths in Bohr (Angstrom)

 1-2  2.059867881  1-3  2.059867881  1-4  2.059867094  1-5  2.059811858  6-7  2.059811853
     ( 1.090035136)     ( 1.090035136)     ( 1.090034720)     ( 1.090005490)     ( 1.090005488)

  6- 8  2.059867881   6- 9  2.059867881   6-10  2.059867095
       ( 1.090035136)       ( 1.090035136)       ( 1.090034720)

 Bond angles

  2-1-3  109.71066544   2-1-4  109.71054940   2-1-5  109.39695195   3-1-4  109.21435342

  3-1-5  109.39695195   4-1-5  109.39704405   7-6-8  109.15709602   7-6-9  109.96738069

  7- 6-10  109.56233048   8- 6- 9  109.37975582   8- 6-10  109.37963978   9- 6-10  109.37963978

 NUCLEAR CHARGE:                   20
 NUMBER OF PRIMITIVE AOS:         130
 NUMBER OF SYMMETRY AOS:          126
 NUMBER OF CONTRACTIONS:           86   (  86A   )
 NUMBER OF CORE ORBITALS:           2   (   2A   )
 NUMBER OF VALENCE ORBITALS:       16   (  16A   )


 NUCLEAR REPULSION ENERGY   41.35003746


 Eigenvalues of metric

         1 0.534E-02 0.665E-02 0.906E-02 0.114E-01 0.117E-01 0.117E-01 0.140E-01 0.140E-01


 Contracted 2-electron integrals neglected if value below      1.0D-16
 AO integral compression algorithm  1   Integral accuracy      1.0D-16

     57.672 MB (compressed) written to integral file ( 87.3%)

     Node minimum: 57.672 MB, node maximum: 57.672 MB


 NUMBER OF SORTED TWO-ELECTRON INTEGRALS:    6999411.     BUFFER LENGTH:  32768
 NUMBER OF SEGMENTS:   1  SEGMENT LENGTH:    6999411      RECORD LENGTH: 524288

 Memory used in sort:       7.56 MW

 SORT1 READ     8242194. AND WROTE     6854286. INTEGRALS IN     20 RECORDS. CPU TIME:     0.07 SEC, REAL TIME:     0.11 SEC
 SORT2 READ     6854286. AND WROTE     6999411. INTEGRALS IN    220 RECORDS. CPU TIME:     0.09 SEC, REAL TIME:     0.12 SEC

 FILE SIZES:   FILE 1:    52.1 MBYTE,  FILE 4:    83.9 MBYTE,   TOTAL:    136.0 MBYTE

 OPERATOR DM      FOR CENTER  0  COORDINATES:    0.000000    0.000000    0.000000


 **********************************************************************************************************************************
 DATASETS  * FILE   NREC   LENGTH (MB)   RECORD NAMES
              1      19       52.16       500      610      700      900      950      970     1000      129      960     1100   
                                          VAR    BASINP    GEOM    SYMINP    ZMAT    AOBASIS   BASIS     P2S    ABASIS      S 
                                         1400     1410     1200     1210     1080     1600     1650     1300     1700   
                                           T        V       H0       H01     AOSYM     SMH    MOLCAS    ERIS     OPER   

 PROGRAMS   *        TOTAL       INT
 CPU TIMES  *         0.75      0.71
 REAL TIME  *         1.03 SEC
 DISK USED  *       194.44 MB      
 GA USED    *         0.00 MB       (max)       0.00 MB       (current)
 **********************************************************************************************************************************

1PROGRAM * RHF-SCF (CLOSED SHELL)       Authors: W. Meyer, H.-J. Werner


 NUMBER OF ELECTRONS:      10+   10-    SPACE SYMMETRY=1    SPIN SYMMETRY: Singlet 
 CONVERGENCE THRESHOLDS:    1.00E-10 (Density)    1.00E-13 (Energy)
 MAX. NUMBER OF ITERATIONS:      200
 INTERPOLATION TYPE:            DIIS
 INTERPOLATION STEPS:              2 (START)      1 (STEP)
 LEVEL SHIFTS:                  0.00 (CLOSED)  0.00 (OPEN) 



 Orbital guess generated from atomic densities. Full valence occupancy:   18

 Molecular orbital dump at record        2100.2

 ITERATION    DDIFF          GRAD             ENERGY        2-EL.EN.            DIPOLE MOMENTS         DIIS
    1      0.000D+00      0.000D+00       -80.36118241    134.798272    0.00091   -0.00266   -0.00100    0
    2      0.000D+00      0.502D-02       -80.39312545    132.508299    0.00023   -0.00111   -0.00048    1
    3      0.106D-01      0.186D-02       -80.39708023    133.329488    0.00036   -0.00133   -0.00063    2
    4      0.347D-02      0.508D-03       -80.39766391    133.197117    0.00031   -0.00118   -0.00060    3
    5      0.114D-02      0.611D-04       -80.39767173    133.204503    0.00030   -0.00116   -0.00060    4
    6      0.162D-03      0.345D-05       -80.39767176    133.204335    0.00030   -0.00116   -0.00060    5
    7      0.156D-04      0.268D-06       -80.39767176    133.204325    0.00030   -0.00116   -0.00060    5
    8      0.867D-06      0.486D-07       -80.39767176    133.204325    0.00030   -0.00116   -0.00060    4
    9      0.115D-06      0.837D-08       -80.39767176    133.204326    0.00030   -0.00116   -0.00060    4
   10      0.234D-07      0.151D-08       -80.39767176    133.204326    0.00030   -0.00116   -0.00060    5
   11      0.376D-08      0.374D-09       -80.39767176    133.204326    0.00030   -0.00116   -0.00060    5
   12      0.844D-09      0.109D-09       -80.39767176    133.204326    0.00030   -0.00116   -0.00060    6
   13      0.277D-09      0.214D-10       -80.39767176    133.204326    0.00030   -0.00116   -0.00060    6
   14      0.525D-10      0.444D-11       -80.39767176    133.204326    0.00030   -0.00116   -0.00060    6
   15      0.182D-10      0.448D-12       -80.39767176    133.204326    0.00030   -0.00116   -0.00060    6
   16      0.165D-11      0.140D-12       -80.39767176    133.204326    0.00030   -0.00116   -0.00060    0

 Final occupancy:  10

 !RHF STATE 1.1 Energy                -80.397671761586
 Nuclear energy                        41.35003746
 One-electron energy                 -188.34987232
 Two-electron energy                   66.60216310
 Virial quotient                       -1.00212453
 !RHF STATE 1.1 Dipole moment           0.00030180    -0.00115974    -0.00059651
 Dipole moment /Debye                   0.00076705    -0.00294758    -0.00151608

 Orbital energies:

         1.1          2.1          3.1          4.1          5.1          6.1          7.1          8.1          9.1         10.1
    -11.215479   -11.215432    -0.945466    -0.939562    -0.550553    -0.546809    -0.546185    -0.539473    -0.538791    -0.535023

        11.1         12.1
      0.080165     0.084228


 **********************************************************************************************************************************
 DATASETS  * FILE   NREC   LENGTH (MB)   RECORD NAMES
              1      19       52.16       500      610      700      900      950      970     1000      129      960     1100   
                                          VAR    BASINP    GEOM    SYMINP    ZMAT    AOBASIS   BASIS     P2S    ABASIS      S 
                                         1400     1410     1200     1210     1080     1600     1650     1300     1700   
                                           T        V       H0       H01     AOSYM     SMH    MOLCAS    ERIS     OPER   

              2       3        0.57       700     1000     2100   
                                         GEOM     BASIS     RHF  

 PROGRAMS   *        TOTAL       RHF       INT
 CPU TIMES  *         1.65      0.90      0.71
 REAL TIME  *         2.04 SEC
 DISK USED  *       194.44 MB      
 GA USED    *         0.00 MB       (max)       0.00 MB       (current)
 **********************************************************************************************************************************


1PROGRAM * CCSD (Closed-shell coupled cluster)     Authors: C. Hampel, H.-J. Werner, 1991, M. Deegan, P.J. Knowles, 1992


 Convergence thresholds:  THRVAR = 1.00D-08  THRDEN = 1.00D-12

 CCSD(T)     terms to be evaluated (factor= 1.000)


 Number of core orbitals:           2 (   2 )
 Number of closed-shell orbitals:   8 (   8 )
 Number of external orbitals:      76 (  76 )

 Molecular orbitals read from record     2100.2  Type=RHF/CANONICAL (state 1.1)

 Number of N-1 electron functions:               8
 Number of N-2 electron functions:              36
 Number of singly external CSFs:               608
 Number of doubly external CSFs:            185136
 Total number of CSFs:                      185745

 Length of J-op  integral file:               0.00 MB
 Length of K-op  integral file:               0.54 MB
 Length of 3-ext integral record:             0.00 MB

 Memory could be reduced to 5.45 Mwords without degradation in triples

 Integral transformation finished. Total CPU:   0.21 sec, npass=  1  Memory used:   3.53 MW

 Reference energy:                    -80.39767176

 MP2 singlet pair energy:              -0.23821608
 MP2 triplet pair energy:              -0.09579124
 MP2 correlation energy:               -0.33400733
 MP2 total energy:                    -80.73167909

 SCS-MP2 correlation energy:           -0.34546274   (PS=  1.200000  PT=  0.333333)
 SCS-MP2 total energy:                -80.74313450

 ITER.      SQ.NORM     CORR.ENERGY   TOTAL ENERGY   ENERGY CHANGE        DEN1      VAR(S)    VAR(P)  DIIS     TIME
   1      1.13988545    -0.37812466   -80.77579642    -0.04411733    -0.03297205  0.68D-03  0.24D-02  1  1     0.50
   2      1.15302859    -0.38091800   -80.77858977    -0.00279335    -0.01280953  0.15D-04  0.11D-03  2  2     0.82
   3      1.15509897    -0.38105620   -80.77872796    -0.00013820    -0.00107835  0.24D-05  0.62D-05  3  3     1.13
   4      1.15552726    -0.38107383   -80.77874559    -0.00001763    -0.00017355  0.60D-07  0.37D-06  4  4     1.45
   5      1.15558783    -0.38106988   -80.77874164     0.00000395    -0.00002810  0.29D-08  0.21D-07  5  5     1.77
   6      1.15559006    -0.38106924   -80.77874100     0.00000064    -0.00000060  0.19D-09  0.15D-08  6  6     2.08
   7      1.15559022    -0.38106951   -80.77874128    -0.00000028     0.00000005  0.15D-10  0.95D-10  6  1     2.39
   8      1.15559028    -0.38106952   -80.77874129    -0.00000001    -0.00000009  0.18D-11  0.64D-11  6  2     2.70
   9      1.15559019    -0.38106952   -80.77874128     0.00000000     0.00000002  0.37D-12  0.44D-12  6  4     3.01
  10      1.15559019    -0.38106952   -80.77874129    -0.00000000    -0.00000000  0.29D-13  0.33D-13  6  3     3.32
  11      1.15559018    -0.38106952   -80.77874129    -0.00000000     0.00000000  0.24D-14  0.30D-14  6  5     3.64
  12      1.15559017    -0.38106953   -80.77874129    -0.00000000     0.00000000  0.20D-15  0.31D-15  6  6     3.95
  13      1.15559017    -0.38106953   -80.77874129    -0.00000000     0.00000000  0.12D-16  0.39D-16  6  1     4.27
  14      1.15559017    -0.38106953   -80.77874129    -0.00000000     0.00000000  0.16D-17  0.49D-17  6  2     4.59
  15      1.15559017    -0.38106953   -80.77874129    -0.00000000     0.00000000  0.11D-18  0.51D-18  6  4     4.90
  16      1.15559017    -0.38106953   -80.77874129    -0.00000000     0.00000000  0.11D-19  0.44D-19  6  3     5.21
  17      1.15559017    -0.38106953   -80.77874129     0.00000000    -0.00000000  0.21D-21  0.38D-20  6  6     5.53
  18      1.15559017    -0.38106953   -80.77874129     0.00000000    -0.00000000  0.34D-22  0.80D-22  6  5     5.84

 Norm of t1 vector:      0.03875782      S-energy:    -0.00000000      T1 diagnostic:  0.00685148
                                                                       D1 diagnostic:  0.01215093


 Total CPU time for triples:      2.79 sec


 RESULTS
 =======

  Reference energy                    -80.397671761586
  CCSD singlet pair energy             -0.287792733252
  CCSD triplet pair energy             -0.093276792025
  CCSD correlation energy              -0.381069525276

  Triples (T) contribution             -0.008788739425
  Total correlation energy             -0.389858264701

  CCSD total energy                   -80.778741286862
  CCSD[T] energy                      -80.787744652893
  CCSD-T energy                       -80.787417966590
 !CCSD(T) total energy                -80.787530026287

 Timing summary (sec):

 STEP                 CPU(USER)    SYS     CPU(TOT)    WALL
 Transformation          0.21      0.03      0.24      0.25
 CCSD iterations         5.63      0.27      5.90      5.94
 Triples                 2.79      0.06      2.85      2.85

 Program statistics:

 Available memory in ccsd:               999999644
 Min. memory needed in ccsd:                591289
 Max. memory used in ccsd:                  742713
 Max. memory used in cckext:                619606 (18 integral passes)



 **********************************************************************************************************************************
 DATASETS  * FILE   NREC   LENGTH (MB)   RECORD NAMES
              1      20       69.75       500      610      700      900      950      970     1000      129      960     1100   
                                          VAR    BASINP    GEOM    SYMINP    ZMAT    AOBASIS   BASIS     P2S    ABASIS      S 
                                         1400     1410     1200     1210     1080     1600     1650     1300     1700     1380   
                                           T        V       H0       H01     AOSYM     SMH    MOLCAS    ERIS     OPER     JKOP   

              2       3        0.57       700     1000     2100   
                                         GEOM     BASIS     RHF  

 PROGRAMS   *        TOTAL   CCSD(T)       RHF       INT
 CPU TIMES  *        10.30      8.65      0.90      0.71
 REAL TIME  *        11.10 SEC
 DISK USED  *       194.44 MB      
 GA USED    *         0.00 MB       (max)       0.00 MB       (current)
 **********************************************************************************************************************************

        CCSD(T)         RHF-SCF 
    -80.78753003    -80.39767176
 **********************************************************************************************************************************
 Variable memory released
