
 Primary working directories    : /tmp/1047041.104.gen4.q
 Secondary working directories  : /tmp/1047041.104.gen4.q
 Wavefunction directory         : /home/vulcan/mel64643/wfu/
 Main file repository           : /tmp/1047041.104.gen4.q/

 ARCHNAME  : Linux/x86_64
 FC        : /opt/intel/compilers_and_libraries_2016.1.150/linux/bin/intel64/ifort
 FCVERSION : 16.0.1
 BLASLIB   : -mkl
 id        : ccgc

 Nodes     nprocs
 n022         1
 ga_uses_ma=false, calling ma_init with nominal heap.
 GA-space will be limited to   8.0 MW (determined by -G option)

 Using customized tuning parameters: mindgm=10; mindgv=16; mindgc=4; mindgr=1; noblas=0; mincuda=1000; minvec=7
 default implementation of scratch files=df  

 ***,Optimization of ben_hcn
 memory,1000,m
 gthresh,energy=1.0d-12,orbital=1.0d-10,oneint=1.0d-16,twoint=1.0d-16,optgrad=1.0d-6,compress=1.0d-13
 geomtyp=xyz
 
 
 
 bohr
 geometry = {
  C   -1.8859293031    1.3674644986    2.2872749155
  C   -1.8587893252    2.6902230532   -0.0061289160
  C   -1.8761883071    1.3696827736   -2.2914647701
  C   -1.9207437846   -1.2774905814   -2.2903824782
  C   -1.9477863174   -2.5959873877   -0.0041817113
  C   -1.9303264908   -1.2715645143    2.2881318268
  H   -1.8666066561    2.3919045640    4.0605005083
  H   -1.8186657894    4.7378138362   -0.0068890770
  H   -1.8492075089    2.3926698255   -4.0654235120
  H   -1.9277996819   -2.3021320624   -4.0635516384
  H   -1.9756011729   -4.6437323875   -0.0033992097
  H   -1.9449172314   -2.2947925978    4.0620760602
  N    6.6328233528   -0.1991331010    0.0073953451
  C    4.4431057160   -0.0762822133    0.0102007913
  H    2.4134337470    0.0378798425    0.0129423795
 }
 
 basis=aug-cc-pvdz, H=cc-pvdz
 {rhf;maxit,200}
 {ccsd(t)}

 Variables initialized (661), CPU time= 0.01 sec
 Commands  initialized (458), CPU time= 0.00 sec, 486 directives.
 Default parameters read. Elapsed time= 0.06 sec

 Checking input...
 Passed
1


                                         ***  PROGRAM SYSTEM MOLPRO  ***
                         Copyright, University College Cardiff Consultants Limited, 2008

                                    Version 2010.1 linked May 16 2016 07:17:05


 **********************************************************************************************************************************
 LABEL *   Optimization of ben_hcn                                                       
 Linux-4.4.3/n022(x86_64) 64 bit mpp version                                             DATE: 06-Mar-24          TIME: 13:16:37  
 **********************************************************************************************************************************

 SHA1:             9e8077add272b0f3cad6f7df79ec5211205f459d
 **********************************************************************************************************************************

 THRESHOLDS:

 ZERO    =  1.00D-12  ONEINT  =  1.00D-16  TWOINT  =  1.00D-16  PREFAC  =  1.00D-14  LOCALI  =  1.00D-09  EORDER  =  1.00D-04
 ENERGY  =  1.00D-12  ETEST   =  0.00D+00  EDENS   =  0.00D+00  THRDEDEF=  1.00D-06  GRADIENT=  1.00D-02  STEP    =  1.00D-03
 ORBITAL =  1.00D-10  CIVEC   =  1.00D-05  COEFF   =  1.00D-04  PRINTCI =  5.00D-02  PUNCHCI =  9.90D+01  OPTGRAD =  1.00D-06
 OPTENERG=  1.00D-06  OPTSTEP =  3.00D-04  THRGRAD =  1.00D-10  COMPRESS=  1.00D-13  VARMIN  =  1.00D-07  VARMAX  =  1.00D-03
 THRDOUB =  0.00D+00  THRDIV  =  1.00D-05  THRRED  =  1.00D-07  THRPSP  =  1.00D+00  THRDC   =  1.00D-10  THRCS   =  1.00D-10
 THRNRM  =  1.00D-08  THREQ   =  0.00D+00  THRDE   =  1.00D+00  THRREF  =  1.00D-05  SPARFAC =  1.00D+00  THRDLP  =  1.00D-07
 THRDIA  =  1.00D-10  THRDLS  =  1.00D-07  THRGPS  =  0.00D+00  THRKEX  =  0.00D+00  THRDIS  =  2.00D-01  THRVAR  =  1.00D-10
 THRLOC  =  1.00D-06  THRGAP  =  1.00D-06  THRLOCT = -1.00D+00  THRGAPT = -1.00D+00  THRORB  =  1.00D-06  THRMLTP =  0.00D+00
 THRCPQCI=  1.00D-10  KEXTA   =  0.00D+00  THRCOARS=  0.00D+00  SYMTOL  =  1.00D-06  GRADTOL =  1.00D-06  THROVL  =  1.00D-08
 THRORTH =  1.00D-08  GRID    =  1.00D-06  GRIDMAX =  1.00D-03  DTMAX   =  0.00D+00

 SETTING GEOMTYP        =    XYZ
 ZUNIT=BOHR
 

 Variable memory set to 1000000000 words,  buffer space   230000 words

 SETTING BASIS          =    AUG-CC-PVDZ,H=CC-PVDZ


 Recomputing integrals since basis changed


 Using spherical harmonics

 Library entry C      S aug-cc-pVDZ          selected for orbital group  1
 Library entry C      P aug-cc-pVDZ          selected for orbital group  1
 Library entry C      D aug-cc-pVDZ          selected for orbital group  1
 Library entry H      S cc-pVDZ              selected for orbital group  2
 Library entry H      P cc-pVDZ              selected for orbital group  2
 Library entry N      S aug-cc-pVDZ          selected for orbital group  3
 Library entry N      P aug-cc-pVDZ          selected for orbital group  3
 Library entry N      D aug-cc-pVDZ          selected for orbital group  3

1PROGRAM * SEWARD (Integral evaluation for generally contracted gaussian basis sets)     Author: Roland Lindh, 1990

 Geometry written to block  1 of record 700


 Point group  C1  



 ATOMIC COORDINATES

 NR  ATOM    CHARGE       X              Y              Z

   1  C       6.00   -1.885929303    1.367464499    2.287274915
   2  C       6.00   -1.858789325    2.690223053   -0.006128916
   3  C       6.00   -1.876188307    1.369682774   -2.291464770
   4  C       6.00   -1.920743785   -1.277490581   -2.290382478
   5  C       6.00   -1.947786317   -2.595987388   -0.004181711
   6  C       6.00   -1.930326491   -1.271564514    2.288131827
   7  H       1.00   -1.866606656    2.391904564    4.060500508
   8  H       1.00   -1.818665789    4.737813836   -0.006889077
   9  H       1.00   -1.849207509    2.392669826   -4.065423512
  10  H       1.00   -1.927799682   -2.302132062   -4.063551638
  11  H       1.00   -1.975601173   -4.643732388   -0.003399210
  12  H       1.00   -1.944917231   -2.294792598    4.062076060
  13  N       7.00    6.632823353   -0.199133101    0.007395345
  14  C       6.00    4.443105716   -0.076282213    0.010200791
  15  H       1.00    2.413433747    0.037879842    0.012942380

 Bond lengths in Bohr (Angstrom)

 1-2  2.647664614  1-6  2.639402579  1-7  2.047969681  2-3  2.639486564  2-8  2.047984006
     ( 1.401083771)     ( 1.396711690)     ( 1.083738880)     ( 1.396756133)     ( 1.083746461)

  3- 4  2.647548514   3- 9  2.047964865   4- 5  2.639295185   4-10  2.047942582   5- 6  2.647470897
       ( 1.401022333)       ( 1.083736332)       ( 1.396654860)       ( 1.083724540)       ( 1.400981260)

  5-11  2.047934047   6-12  2.047946958  13-14  2.193162908  14-15  2.032881894
       ( 1.083720023)       ( 1.083726856)       ( 1.160571826)       ( 1.075754767)

 Bond angles

  1- 2- 3  119.99746533   1- 2- 8  120.00138046   1- 6- 5  120.00123547   1- 6-12  119.99777557

  2-1-6  119.99850400   2-1-7  119.99930044   2-3-4  119.99920945   2-3-9  119.99924850

  3- 2- 8  120.00090394   3- 4- 5  120.00130491   3- 4-10  119.99737965   4- 3- 9  120.00125658

  4- 5- 6  120.00228082   4- 5-11  119.99920619   5- 4-10  120.00098981   5- 6-12  120.00067072

  6- 1- 7  120.00192406   6- 5-11  119.99816143  13-14-15  179.99091358

 NUCLEAR CHARGE:                   56
 NUMBER OF PRIMITIVE AOS:         345
 NUMBER OF SYMMETRY AOS:          329
 NUMBER OF CONTRACTIONS:          219   ( 219A   )
 NUMBER OF CORE ORBITALS:           8   (   8A   )
 NUMBER OF VALENCE ORBITALS:       39   (  39A   )


 NUCLEAR REPULSION ENERGY  303.29403944


 Eigenvalues of metric

         1 0.864E-05 0.186E-04 0.229E-04 0.534E-04 0.630E-04 0.631E-04 0.929E-04 0.929E-04


 Contracted 2-electron integrals neglected if value below      1.0D-16
 AO integral compression algorithm  1   Integral accuracy      1.0D-16

     2339.897 MB (compressed) written to integral file ( 91.2%)

     Node minimum: 2339.897 MB, node maximum: 2339.897 MB


 NUMBER OF SORTED TWO-ELECTRON INTEGRALS:  290176095.     BUFFER LENGTH:  32768
 NUMBER OF SEGMENTS:  19  SEGMENT LENGTH:   15999762      RECORD LENGTH: 524288

 Memory used in sort:      16.56 MW

 SORT1 READ   320642736. AND WROTE   287582460. INTEGRALS IN    832 RECORDS. CPU TIME:     3.52 SEC, REAL TIME:     6.77 SEC
 SORT2 READ   287582460. AND WROTE   290176095. INTEGRALS IN   8926 RECORDS. CPU TIME:     1.95 SEC, REAL TIME:     3.30 SEC

 FILE SIZES:   FILE 1:  2150.8 MBYTE,  FILE 4:  3489.7 MBYTE,   TOTAL:   5640.5 MBYTE

 OPERATOR DM      FOR CENTER  0  COORDINATES:    0.000000    0.000000    0.000000


 **********************************************************************************************************************************
 DATASETS  * FILE   NREC   LENGTH (MB)   RECORD NAMES
              1      19     2151.40       500      610      700      900      950      970     1000      129      960     1100   
                                          VAR    BASINP    GEOM    SYMINP    ZMAT    AOBASIS   BASIS     P2S    ABASIS      S 
                                         1400     1410     1200     1210     1080     1600     1650     1300     1700   
                                           T        V       H0       H01     AOSYM     SMH    MOLCAS    ERIS     OPER   

 PROGRAMS   *        TOTAL       INT
 CPU TIMES  *        19.36     19.29
 REAL TIME  *        25.85 SEC
 DISK USED  *         7.98 GB      
 GA USED    *         0.01 MB       (max)       0.00 MB       (current)
 **********************************************************************************************************************************

1PROGRAM * RHF-SCF (CLOSED SHELL)       Authors: W. Meyer, H.-J. Werner


 NUMBER OF ELECTRONS:      28+   28-    SPACE SYMMETRY=1    SPIN SYMMETRY: Singlet 
 CONVERGENCE THRESHOLDS:    1.00E-10 (Density)    1.00E-13 (Energy)
 MAX. NUMBER OF ITERATIONS:      200
 INTERPOLATION TYPE:            DIIS
 INTERPOLATION STEPS:              2 (START)      1 (STEP)
 LEVEL SHIFTS:                  0.00 (CLOSED)  0.00 (OPEN) 



 Orbital guess generated from atomic densities. Full valence occupancy:   47

 Molecular orbital dump at record        2100.2

 ITERATION    DDIFF          GRAD             ENERGY        2-EL.EN.            DIPOLE MOMENTS         DIIS
    1      0.000D+00      0.000D+00      -323.54117899    821.928516   -1.90573    0.10279    0.00209    0
    2      0.000D+00      0.292D-02      -323.59761819    818.908824   -1.37142    0.04983   -0.00070    1
    3      0.782D-02      0.180D-02      -323.61439351    820.052174   -1.73385    0.07900    0.00058    2
    4      0.261D-02      0.575D-03      -323.61672818    820.256366   -1.64320    0.07182    0.00027    3
    5      0.963D-03      0.133D-03      -323.61685752    819.996377   -1.66712    0.07252    0.00024    4
    6      0.223D-03      0.229D-04      -323.61686370    820.023245   -1.66849    0.07248    0.00023    5
    7      0.846D-04      0.440D-05      -323.61686391    820.018356   -1.66884    0.07241    0.00022    6
    8      0.109D-04      0.127D-05      -323.61686393    820.019362   -1.66916    0.07247    0.00023    7
    9      0.355D-05      0.313D-06      -323.61686393    820.019392   -1.66913    0.07242    0.00022    6
   10      0.969D-06      0.114D-06      -323.61686393    820.019368   -1.66913    0.07246    0.00023    6
   11      0.314D-06      0.695D-07      -323.61686393    820.019391   -1.66913    0.07244    0.00022    7
   12      0.213D-06      0.316D-07      -323.61686393    820.019381   -1.66912    0.07244    0.00022    7
   13      0.123D-06      0.992D-08      -323.61686393    820.019386   -1.66913    0.07244    0.00022    8
   14      0.465D-07      0.312D-08      -323.61686393    820.019382   -1.66913    0.07244    0.00022    8
   15      0.117D-07      0.114D-08      -323.61686393    820.019383   -1.66913    0.07244    0.00022    9
   16      0.263D-08      0.151D-09      -323.61686393    820.019383   -1.66913    0.07244    0.00022    9
   17      0.688D-09      0.544D-10      -323.61686393    820.019383   -1.66913    0.07244    0.00022    8
   18      0.329D-09      0.139D-10      -323.61686393    820.019383   -1.66913    0.07244    0.00022    7
   19      0.178D-09      0.437D-11      -323.61686393    820.019383   -1.66913    0.07244    0.00022    7
   20      0.919D-10      0.181D-11      -323.61686393    820.019383   -1.66913    0.07244    0.00022    7
   21      0.136D-09      0.118D-11      -323.61686393    820.019383   -1.66913    0.07244    0.00022    7
   22      0.115D-09      0.902D-12      -323.61686393    820.019383   -1.66913    0.07244    0.00022    8
   23      0.817D-10      0.667D-12      -323.61686393    820.019383   -1.66913    0.07244    0.00022    9
   24      0.719D-10      0.652D-12      -323.61686393    820.019383   -1.66913    0.07244    0.00022    9
   25      0.574D-10      0.560D-12      -323.61686393    820.019383   -1.66913    0.07244    0.00022    0

 Final occupancy:  28

 !RHF STATE 1.1 Energy               -323.616863933850
 Nuclear energy                       303.29403944
 One-electron energy                -1036.92059500
 Two-electron energy                  410.00969163
 Virial quotient                       -1.00173446
 !RHF STATE 1.1 Dipole moment          -1.66912556     0.07244137     0.00022412
 Dipole moment /Debye                  -4.24221615     0.18411555     0.00056962

 Orbital energies:

         1.1          2.1          3.1          4.1          5.1          6.1          7.1          8.1          9.1         10.1
    -15.591543   -11.284166   -11.266303   -11.265752   -11.265740   -11.264570   -11.264559   -11.263971    -1.218252    -1.173972

        11.1         12.1         13.1         14.1         15.1         16.1         17.1         18.1         19.1         20.1
     -1.037844    -1.037841    -0.845762    -0.845761    -0.787902    -0.729403    -0.664920    -0.639241    -0.608615    -0.608612

        21.1         22.1         23.1         24.1         25.1         26.1         27.1         28.1         29.1         30.1
     -0.565071    -0.520388    -0.514896    -0.514895    -0.475589    -0.475585    -0.359729    -0.359724     0.055858     0.060063


 **********************************************************************************************************************************
 DATASETS  * FILE   NREC   LENGTH (MB)   RECORD NAMES
              1      19     2151.40       500      610      700      900      950      970     1000      129      960     1100   
                                          VAR    BASINP    GEOM    SYMINP    ZMAT    AOBASIS   BASIS     P2S    ABASIS      S 
                                         1400     1410     1200     1210     1080     1600     1650     1300     1700   
                                           T        V       H0       H01     AOSYM     SMH    MOLCAS    ERIS     OPER   

              2       3        1.49       700     1000     2100   
                                         GEOM     BASIS     RHF  

 PROGRAMS   *        TOTAL       RHF       INT
 CPU TIMES  *        78.15     58.78     19.29
 REAL TIME  *        90.28 SEC
 DISK USED  *         7.98 GB      
 GA USED    *         0.01 MB       (max)       0.00 MB       (current)
 **********************************************************************************************************************************


1PROGRAM * CCSD (Closed-shell coupled cluster)     Authors: C. Hampel, H.-J. Werner, 1991, M. Deegan, P.J. Knowles, 1992


 Convergence thresholds:  THRVAR = 1.00D-08  THRDEN = 1.00D-12

 CCSD(T)     terms to be evaluated (factor= 1.000)


 Number of core orbitals:           8 (   8 )
 Number of closed-shell orbitals:  20 (  20 )
 Number of external orbitals:     191 ( 191 )

 Molecular orbitals read from record     2100.2  Type=RHF/CANONICAL (state 1.1)

 Number of N-1 electron functions:              20
 Number of N-2 electron functions:             210
 Number of singly external CSFs:              3820
 Number of doubly external CSFs:           7298110
 Total number of CSFs:                     7301931

 Length of J-op  integral file:               0.00 MB
 Length of K-op  integral file:               3.32 MB
 Length of 3-ext integral record:             0.00 MB

 Memory could be reduced to 174.82 Mwords without degradation in triples

 Integral transformation finished. Total CPU:  23.11 sec, npass=  1  Memory used: 128.13 MW

 Reference energy:                   -323.61686393

 MP2 singlet pair energy:              -0.67340055
 MP2 triplet pair energy:              -0.43520714
 MP2 correlation energy:               -1.10860769
 MP2 total energy:                   -324.72547163

 SCS-MP2 correlation energy:           -1.07887622   (PS=  1.200000  PT=  0.333333)
 SCS-MP2 total energy:               -324.69574015

 ITER.      SQ.NORM     CORR.ENERGY   TOTAL ENERGY   ENERGY CHANGE        DEN1      VAR(S)    VAR(P)  DIIS     TIME
   1      1.42883569    -1.14470452  -324.76156845    -0.03609683    -0.00289309  0.51D-02  0.99D-02  1  1    96.34
   2      1.46317954    -1.15058326  -324.76744719    -0.00587874    -0.03104169  0.83D-04  0.13D-02  2  2   169.79
   3      1.47648728    -1.15103242  -324.76789636    -0.00044917    -0.00656592  0.41D-04  0.12D-03  3  3   243.29
   4      1.48218322    -1.15128220  -324.76814614    -0.00024978    -0.00178687  0.23D-05  0.15D-04  4  4   316.80
   5      1.48371465    -1.15131812  -324.76818206    -0.00003592    -0.00036634  0.26D-06  0.14D-05  5  5   390.34
   6      1.48402175    -1.15130957  -324.76817350     0.00000856    -0.00005050  0.24D-07  0.91D-07  6  6   463.90
   7      1.48405658    -1.15131297  -324.76817690    -0.00000340    -0.00000227  0.35D-08  0.80D-08  6  2   537.47
   8      1.48406129    -1.15131333  -324.76817726    -0.00000035    -0.00000042  0.46D-09  0.84D-09  6  1   611.13
   9      1.48406152    -1.15131349  -324.76817743    -0.00000017     0.00000079  0.85D-10  0.82D-10  6  3   684.69
  10      1.48406192    -1.15131355  -324.76817748    -0.00000006     0.00000002  0.20D-10  0.12D-10  6  4   758.26
  11      1.48406166    -1.15131359  -324.76817752    -0.00000004     0.00000022  0.63D-11  0.24D-11  6  5   831.88
  12      1.48406149    -1.15131360  -324.76817753    -0.00000001     0.00000009  0.19D-11  0.67D-12  6  6   905.48
  13      1.48406133    -1.15131361  -324.76817754    -0.00000001     0.00000006  0.43D-12  0.16D-12  6  2   979.04
  14      1.48406126    -1.15131360  -324.76817754     0.00000000     0.00000002  0.86D-13  0.39D-13  6  1  1052.58
  15      1.48406123    -1.15131360  -324.76817754     0.00000000     0.00000000  0.12D-13  0.66D-14  6  3  1126.20
  16      1.48406123    -1.15131360  -324.76817754     0.00000000    -0.00000000  0.15D-14  0.11D-14  6  4  1199.78
  17      1.48406123    -1.15131360  -324.76817754     0.00000000    -0.00000000  0.13D-15  0.18D-15  6  6  1273.36
  18      1.48406123    -1.15131360  -324.76817754    -0.00000000    -0.00000000  0.14D-16  0.18D-16  6  5  1346.93
  19      1.48406123    -1.15131360  -324.76817754     0.00000000    -0.00000000  0.29D-17  0.34D-17  6  2  1420.48
  20      1.48406123    -1.15131360  -324.76817754     0.00000000    -0.00000000  0.70D-18  0.71D-18  6  1  1494.06
  21      1.48406123    -1.15131360  -324.76817754     0.00000000    -0.00000000  0.22D-18  0.15D-18  6  3  1567.62
  22      1.48406123    -1.15131360  -324.76817754     0.00000000    -0.00000000  0.95D-19  0.54D-19  6  4  1641.23
  23      1.48406123    -1.15131360  -324.76817754     0.00000000    -0.00000000  0.51D-19  0.25D-19  6  6  1714.80
  24      1.48406123    -1.15131360  -324.76817754     0.00000000    -0.00000000  0.34D-19  0.15D-19  6  5  1788.37

 Norm of t1 vector:      0.09778686      S-energy:    -0.00000000      T1 diagnostic:  0.01093290
                                                                       D1 diagnostic:  0.02771563

 Doubles amplitudes (print threshold =  0.500E-01):

         I         J         SYM. A    SYM. B    A         B      T(IJ, AB)

        19        19         1         1         7         7     -0.05179545
        20        20         1         1         8         8     -0.05180737


 Total CPU time for triples:   1511.74 sec


 RESULTS
 =======

  Reference energy                   -323.616863933853
  CCSD singlet pair energy             -0.770112160260
  CCSD triplet pair energy             -0.381201443706
  CCSD correlation energy              -1.151313603967

  Triples (T) contribution             -0.054026282528
  Total correlation energy             -1.205339886495

  CCSD total energy                  -324.768177537819
  CCSD[T] energy                     -324.823537175570
  CCSD-T energy                      -324.821598155189
 !CCSD(T) total energy               -324.822203820347

 Timing summary (sec):

 STEP                 CPU(USER)    SYS     CPU(TOT)    WALL
 Transformation         23.95      1.18     25.13     25.13
 CCSD iterations      1764.45     16.22   1780.67   1780.83
 Triples              1511.74     15.77   1527.51   1527.58

 Program statistics:

 Available memory in ccsd:               999998300
 Min. memory needed in ccsd:              17709720
 Max. memory used in ccsd:                24415330
 Max. memory used in cckext:              20754978 (24 integral passes)



 **********************************************************************************************************************************
 DATASETS  * FILE   NREC   LENGTH (MB)   RECORD NAMES
              1      20     2833.57       500      610      700      900      950      970     1000      129      960     1100   
                                          VAR    BASINP    GEOM    SYMINP    ZMAT    AOBASIS   BASIS     P2S    ABASIS      S 
                                         1400     1410     1200     1210     1080     1600     1650     1300     1700     1380   
                                           T        V       H0       H01     AOSYM     SMH    MOLCAS    ERIS     OPER     JKOP   

              2       3        1.49       700     1000     2100   
                                         GEOM     BASIS     RHF  

 PROGRAMS   *        TOTAL   CCSD(T)       RHF       INT
 CPU TIMES  *      3378.30   3300.15     58.78     19.29
 REAL TIME  *      3423.97 SEC
 DISK USED  *         7.98 GB      
 GA USED    *         0.01 MB       (max)       0.00 MB       (current)
 **********************************************************************************************************************************

        CCSD(T)         RHF-SCF 
   -324.82220382   -323.61686393
 **********************************************************************************************************************************
 Variable memory released
