
 Primary working directories    : /tmp/985636.535.gen4.q
 Secondary working directories  : /tmp/985636.535.gen4.q
 Wavefunction directory         : /home/vulcan/jj04645/wfu/
 Main file repository           : /tmp/985636.535.gen4.q/

 ARCHNAME  : Linux/x86_64
 FC        : /opt/intel/compilers_and_libraries_2016.1.150/linux/bin/intel64/ifort
 FCVERSION : 16.0.1
 BLASLIB   : -mkl
 id        : ccgc

 Nodes     nprocs
 n027         1
 ga_uses_ma=false, calling ma_init with nominal heap.
 GA-space will be limited to   8.0 MW (determined by -G option)

 Using customized tuning parameters: mindgm=10; mindgv=16; mindgc=4; mindgr=1; noblas=0; mincuda=1000; minvec=7
 default implementation of scratch files=df  

 ***,Optimization of tetrahydrothiopyran
 memory,1000,m
 gthresh,energy=1.0d-12,orbital=1.0d-10,oneint=1.0d-16,twoint=1.0d-16,optgrad=1.0d-6,compress=1.0d-13
 geomtyp=xyz
 
 bohr
 geometry = {
  S    0.3506604804    2.7016283629   -0.0000000000
  C   -0.3297980282   -3.3637049396   -0.0000000000
  C   -0.6639485854    0.6705323554   -2.5812259173
  C   -0.6639485854    0.6705323554    2.5812259173
  C    0.4716866028   -1.9797038259   -2.4139026420
  C    0.4716866028   -1.9797038259    2.4139026420
  H   -2.7251683890    0.5718928465   -2.5850426692
  H   -2.7251683890    0.5718928465    2.5850426692
  H   -0.0765311821    1.6235633431   -4.3074093582
  H   -0.0765311821    1.6235633431    4.3074093582
  H    2.5342966286   -1.8408441322   -2.4763654273
  H    2.5342966286   -1.8408441322    2.4763654273
  H   -0.1272322525   -3.0798339587   -4.0611409821
  H   -0.1272322525   -3.0798339587    4.0611409821
  H    0.4663753525   -5.2701805535   -0.0000000000
  H   -2.3921784660   -3.5787775432   -0.0000000000
 }
 
 basis=VDZ
 {rhf;maxit,200}
 {ccsd(t);maxit,200}

 Variables initialized (661), CPU time= 0.00 sec
 Commands  initialized (458), CPU time= 0.01 sec, 486 directives.
 Default parameters read. Elapsed time= 0.06 sec

 Checking input...
 Passed
1


                                         ***  PROGRAM SYSTEM MOLPRO  ***
                         Copyright, University College Cardiff Consultants Limited, 2008

                                    Version 2010.1 linked May 16 2016 07:17:05


 **********************************************************************************************************************************
 LABEL *   Optimization of tetrahydrothiopyran                                           
 Linux-4.4.3/n027(x86_64) 64 bit mpp version                                             DATE: 26-Jan-24          TIME: 13:27:00  
 **********************************************************************************************************************************

 SHA1:             9e8077add272b0f3cad6f7df79ec5211205f459d
 **********************************************************************************************************************************

 THRESHOLDS:

 ZERO    =  1.00D-12  ONEINT  =  1.00D-16  TWOINT  =  1.00D-16  PREFAC  =  1.00D-14  LOCALI  =  1.00D-09  EORDER  =  1.00D-04
 ENERGY  =  1.00D-12  ETEST   =  0.00D+00  EDENS   =  0.00D+00  THRDEDEF=  1.00D-06  GRADIENT=  1.00D-02  STEP    =  1.00D-03
 ORBITAL =  1.00D-10  CIVEC   =  1.00D-05  COEFF   =  1.00D-04  PRINTCI =  5.00D-02  PUNCHCI =  9.90D+01  OPTGRAD =  1.00D-06
 OPTENERG=  1.00D-06  OPTSTEP =  3.00D-04  THRGRAD =  1.00D-10  COMPRESS=  1.00D-13  VARMIN  =  1.00D-07  VARMAX  =  1.00D-03
 THRDOUB =  0.00D+00  THRDIV  =  1.00D-05  THRRED  =  1.00D-07  THRPSP  =  1.00D+00  THRDC   =  1.00D-10  THRCS   =  1.00D-10
 THRNRM  =  1.00D-08  THREQ   =  0.00D+00  THRDE   =  1.00D+00  THRREF  =  1.00D-05  SPARFAC =  1.00D+00  THRDLP  =  1.00D-07
 THRDIA  =  1.00D-10  THRDLS  =  1.00D-07  THRGPS  =  0.00D+00  THRKEX  =  0.00D+00  THRDIS  =  2.00D-01  THRVAR  =  1.00D-10
 THRLOC  =  1.00D-06  THRGAP  =  1.00D-06  THRLOCT = -1.00D+00  THRGAPT = -1.00D+00  THRORB  =  1.00D-06  THRMLTP =  0.00D+00
 THRCPQCI=  1.00D-10  KEXTA   =  0.00D+00  THRCOARS=  0.00D+00  SYMTOL  =  1.00D-06  GRADTOL =  1.00D-06  THROVL  =  1.00D-08
 THRORTH =  1.00D-08  GRID    =  1.00D-06  GRIDMAX =  1.00D-03  DTMAX   =  0.00D+00

 SETTING GEOMTYP        =    XYZ
 ZUNIT=BOHR
 

 Variable memory set to 1000000000 words,  buffer space   230000 words

 SETTING BASIS          =    VDZ


 Recomputing integrals since basis changed


 Using spherical harmonics

 Library entry S      S cc-pVDZ              selected for orbital group  1
 Library entry S      P cc-pVDZ              selected for orbital group  1
 Library entry S      D cc-pVDZ              selected for orbital group  1
 Library entry C      S cc-pVDZ              selected for orbital group  2
 Library entry C      P cc-pVDZ              selected for orbital group  2
 Library entry C      D cc-pVDZ              selected for orbital group  2
 Library entry H      S cc-pVDZ              selected for orbital group  3
 Library entry H      P cc-pVDZ              selected for orbital group  3

1PROGRAM * SEWARD (Integral evaluation for generally contracted gaussian basis sets)     Author: Roland Lindh, 1990

 Geometry written to block  1 of record 700


 Point group  Cs  



 ATOMIC COORDINATES

 NR  ATOM    CHARGE       X              Y              Z

   1  S      16.00    0.350660480    2.701628363    0.000000000
   2  C       6.00   -0.329798028   -3.363704940    0.000000000
   3  C       6.00   -0.663948585    0.670532355   -2.581225917
   4  C       6.00   -0.663948585    0.670532355    2.581225917
   5  C       6.00    0.471686603   -1.979703826   -2.413902642
   6  C       6.00    0.471686603   -1.979703826    2.413902642
   7  H       1.00   -2.725168389    0.571892847   -2.585042669
   8  H       1.00   -2.725168389    0.571892847    2.585042669
   9  H       1.00   -0.076531182    1.623563343   -4.307409358
  10  H       1.00   -0.076531182    1.623563343    4.307409358
  11  H       1.00    2.534296629   -1.840844132   -2.476365427
  12  H       1.00    2.534296629   -1.840844132    2.476365427
  13  H       1.00   -0.127232253   -3.079833959   -4.061140982
  14  H       1.00   -0.127232253   -3.079833959    4.061140982
  15  H       1.00    0.466375353   -5.270180554    0.000000000
  16  H       1.00   -2.392178466   -3.578777543    0.000000000

 Bond lengths in Bohr (Angstrom)

  1- 3  3.437660510   1- 4  3.437660510   2- 5  2.895645465   2- 6  2.895645465   2-15  2.066044849
       ( 1.819131594)       ( 1.819131594)       ( 1.532309586)       ( 1.532309586)       ( 1.093303847)

  2-16  2.073564394   3- 5  2.888150996   3- 7  2.063582176   3- 9  2.057434456   4- 6  2.888150996
       ( 1.097283019)       ( 1.528343683)       ( 1.092000657)       ( 1.088747423)       ( 1.528343683)

  4- 8  2.063582176   4-10  2.057434456   5-11  2.068222361   5-13  2.069392243   6-12  2.068222361
       ( 1.092000657)       ( 1.088747423)       ( 1.094456136)       ( 1.095075211)       ( 1.094456136)

  6-14  2.069392243
       ( 1.095075211)

 Bond angles

  1-3-5  112.49558632   1-3-7  108.93154199   1-3-9  105.78484484   1-4-6  112.49558632

  1- 4- 8  108.93154199   1- 4-10  105.78484484   2- 5- 3  112.21281738   2- 5-11  109.46951305

  2- 5-13  109.23062082   2- 6- 4  112.21281738   2- 6-12  109.46951305   2- 6-14  109.23062082

  3- 1- 4   97.33107621   3- 5-11  109.19470094   3- 5-13  109.14201751   4- 6-12  109.19470094

  4- 6-14  109.14201751   5- 2- 6  112.94731485   5- 2-15  109.53488242   5- 2-16  108.95777609

  5- 3- 7  110.42612583   5- 3- 9  111.18611339   6- 2-15  109.53488242   6- 2-16  108.95777609

  6- 4- 8  110.42612583   6- 4-10  111.18611339   7- 3- 9  107.80465588   8- 4-10  107.80465588

 11- 5-13  107.47472017  12- 6-14  107.47472017  15- 2-16  106.71266669

 NUCLEAR CHARGE:                   56
 NUMBER OF PRIMITIVE AOS:         247
 NUMBER OF SYMMETRY AOS:          241
 NUMBER OF CONTRACTIONS:          138   (  79A'  +  59A"  )
 NUMBER OF CORE ORBITALS:          10   (   7A'  +   3A"  )
 NUMBER OF VALENCE ORBITALS:       34   (  20A'  +  14A"  )


 NUCLEAR REPULSION ENERGY  312.17783213


 Eigenvalues of metric

         1 0.305E-02 0.427E-02 0.634E-02 0.157E-01 0.197E-01 0.237E-01 0.283E-01 0.342E-01
         2 0.286E-02 0.704E-02 0.151E-01 0.196E-01 0.219E-01 0.342E-01 0.349E-01 0.357E-01


 Contracted 2-electron integrals neglected if value below      1.0D-16
 AO integral compression algorithm  1   Integral accuracy      1.0D-16

     207.094 MB (compressed) written to integral file ( 97.7%)

     Node minimum: 207.094 MB, node maximum: 207.094 MB


 NUMBER OF SORTED TWO-ELECTRON INTEGRALS:   23341315.     BUFFER LENGTH:  32768
 NUMBER OF SEGMENTS:   2  SEGMENT LENGTH:   15994315      RECORD LENGTH: 524288

 Memory used in sort:      16.55 MW

 SORT1 READ    26508478. AND WROTE    23262040. INTEGRALS IN     68 RECORDS. CPU TIME:     0.35 SEC, REAL TIME:     0.50 SEC
 SORT2 READ    23262040. AND WROTE    23341315. INTEGRALS IN    790 RECORDS. CPU TIME:     0.26 SEC, REAL TIME:     0.39 SEC

 FILE SIZES:   FILE 1:   187.9 MBYTE,  FILE 4:   285.2 MBYTE,   TOTAL:    473.2 MBYTE

 OPERATOR DM      FOR CENTER  0  COORDINATES:    0.000000    0.000000    0.000000


 **********************************************************************************************************************************
 DATASETS  * FILE   NREC   LENGTH (MB)   RECORD NAMES
              1      19      188.04       500      610      700      900      950      970     1000      129      960     1100   
                                          VAR    BASINP    GEOM    SYMINP    ZMAT    AOBASIS   BASIS     P2S    ABASIS      S 
                                         1400     1410     1200     1210     1080     1600     1650     1300     1700   
                                           T        V       H0       H01     AOSYM     SMH    MOLCAS    ERIS     OPER   

 PROGRAMS   *        TOTAL       INT
 CPU TIMES  *         4.16      4.10
 REAL TIME  *         4.73 SEC
 DISK USED  *       681.27 MB      
 GA USED    *         0.00 MB       (max)       0.00 MB       (current)
 **********************************************************************************************************************************

1PROGRAM * RHF-SCF (CLOSED SHELL)       Authors: W. Meyer, H.-J. Werner


 NUMBER OF ELECTRONS:      28+   28-
 CONVERGENCE THRESHOLDS:    1.00E-10 (Density)    1.00E-13 (Energy)
 MAX. NUMBER OF ITERATIONS:      200
 INTERPOLATION TYPE:            DIIS
 INTERPOLATION STEPS:              2 (START)      1 (STEP)
 LEVEL SHIFTS:                  0.00 (CLOSED)  0.00 (OPEN) 



 Orbital guess generated from atomic densities. Full valence occupancy:   27  17

 Molecular orbital dump at record        2100.2

 Initial alpha occupancy:  18  10
 Initial beta  occupancy:  18  10
 Wave function symmetry:    1

 ITERATION    DDIFF          GRAD             ENERGY        2-EL.EN.            DIPOLE MOMENTS         DIIS
    1      0.000D+00      0.000D+00      -592.64390305   1056.917050   -0.40643   -0.80637    0.00000    0
    2      0.000D+00      0.552D-02      -592.70491756   1054.330398   -0.20962   -0.73932    0.00000    1
    3      0.109D-01      0.185D-02      -592.71084842   1055.770089   -0.28115   -0.67631    0.00000    2
    4      0.375D-02      0.753D-03      -592.71185770   1055.149014   -0.25453   -0.70919    0.00000    3
    5      0.130D-02      0.108D-03      -592.71188345   1055.212438   -0.25059   -0.70070    0.00000    4
    6      0.252D-03      0.372D-04      -592.71188596   1055.181708   -0.25234   -0.70093    0.00000    5
    7      0.703D-04      0.859D-05      -592.71188617   1055.184776   -0.25168   -0.70082    0.00000    6
    8      0.229D-04      0.240D-05      -592.71188619   1055.183940   -0.25166   -0.70068    0.00000    7
    9      0.745D-05      0.626D-06      -592.71188619   1055.183815   -0.25165   -0.70063    0.00000    7
   10      0.175D-05      0.225D-06      -592.71188619   1055.183854   -0.25164   -0.70063    0.00000    7
   11      0.669D-06      0.478D-07      -592.71188619   1055.183840   -0.25164   -0.70063    0.00000    7
   12      0.159D-06      0.959D-08      -592.71188619   1055.183846   -0.25164   -0.70063    0.00000    7
   13      0.253D-07      0.401D-08      -592.71188619   1055.183843   -0.25164   -0.70063    0.00000    7
   14      0.884D-08      0.117D-08      -592.71188619   1055.183844   -0.25164   -0.70063    0.00000    7
   15      0.313D-08      0.383D-09      -592.71188619   1055.183843   -0.25164   -0.70063    0.00000    7
   16      0.918D-09      0.117D-09      -592.71188619   1055.183843   -0.25164   -0.70063    0.00000    8
   17      0.283D-09      0.251D-10      -592.71188619   1055.183843   -0.25164   -0.70063    0.00000    7
   18      0.665D-10      0.736D-11      -592.71188619   1055.183843   -0.25164   -0.70063    0.00000    7
   19      0.229D-10      0.242D-11      -592.71188619   1055.183843   -0.25164   -0.70063    0.00000    8
   20      0.673D-11      0.695D-12      -592.71188619   1055.183843   -0.25164   -0.70063    0.00000    7
   21      0.199D-11      0.236D-12      -592.71188619   1055.183843   -0.25164   -0.70063    0.00000    7
   22      0.794D-12      0.777D-13      -592.71188619   1055.183843   -0.25164   -0.70063    0.00000    0

 Final occupancy:  18  10

 !RHF STATE 1.1 Energy               -592.711886189281
 Nuclear energy                       312.17783213
 One-electron energy                -1432.48164006
 Two-electron energy                  527.59192174
 Virial quotient                       -1.00017056
 !RHF STATE 1.1 Dipole moment          -0.25163880    -0.70063121     0.00000000
 Dipole moment /Debye                  -0.63956014    -1.78071026     0.00000000

 Orbital energies:

         1.1          2.1          3.1          4.1          5.1          6.1          7.1          8.1          9.1         10.1
    -91.929774   -11.254478   -11.230920   -11.228890    -8.933664    -6.614127    -6.611926    -1.119636    -1.006672    -0.835708

        11.1         12.1         13.1         14.1         15.1         16.1         17.1         18.1         19.1         20.1
     -0.756072    -0.646958    -0.609732    -0.579024    -0.495568    -0.472778    -0.411847    -0.328772     0.177045     0.201296

         1.2          2.2          3.2          4.2          5.2          6.2          7.2          8.2          9.2         10.2
    -11.254491   -11.230844    -6.615560    -1.020119    -0.843028    -0.614710    -0.547315    -0.523561    -0.498138    -0.434586

        11.2         12.2
      0.190381     0.222995


 **********************************************************************************************************************************
 DATASETS  * FILE   NREC   LENGTH (MB)   RECORD NAMES
              1      19      188.04       500      610      700      900      950      970     1000      129      960     1100   
                                          VAR    BASINP    GEOM    SYMINP    ZMAT    AOBASIS   BASIS     P2S    ABASIS      S 
                                         1400     1410     1200     1210     1080     1600     1650     1300     1700   
                                           T        V       H0       H01     AOSYM     SMH    MOLCAS    ERIS     OPER   

              2       3        0.73       700     1000     2100   
                                         GEOM     BASIS     RHF  

 PROGRAMS   *        TOTAL       RHF       INT
 CPU TIMES  *         6.82      2.66      4.10
 REAL TIME  *         7.91 SEC
 DISK USED  *       681.27 MB      
 GA USED    *         0.00 MB       (max)       0.00 MB       (current)
 **********************************************************************************************************************************


1PROGRAM * CCSD (Closed-shell coupled cluster)     Authors: C. Hampel, H.-J. Werner, 1991, M. Deegan, P.J. Knowles, 1992


 Convergence thresholds:  THRVAR = 1.00D-08  THRDEN = 1.00D-12

 CCSD(T)     terms to be evaluated (factor= 1.000)


 Number of core orbitals:          10 (   7   3 )
 Number of closed-shell orbitals:  18 (  11   7 )
 Number of external orbitals:     110 (  61  49 )

 Molecular orbitals read from record     2100.2  Type=RHF/CANONICAL (state 1.1)

 Number of N-1 electron functions:              18
 Number of N-2 electron functions:             171
 Number of singly external CSFs:              1014
 Number of doubly external CSFs:            981666
 Total number of CSFs:                      982681

 Length of J-op  integral file:               0.00 MB
 Length of K-op  integral file:               0.70 MB
 Length of 3-ext integral record:             0.00 MB

 Memory could be reduced to 16.31 Mwords without degradation in triples

 Integral transformation finished. Total CPU:   1.05 sec, npass=  1  Memory used:  10.63 MW

 Reference energy:                   -592.71188619

 MP2 singlet pair energy:              -0.53932038
 MP2 triplet pair energy:              -0.30432158
 MP2 correlation energy:               -0.84364195
 MP2 total energy:                   -593.55552814

 SCS-MP2 correlation energy:           -0.83654010   (PS=  1.200000  PT=  0.333333)
 SCS-MP2 total energy:               -593.54842629

 ITER.      SQ.NORM     CORR.ENERGY   TOTAL ENERGY   ENERGY CHANGE        DEN1      VAR(S)    VAR(P)  DIIS     TIME
   1      1.33949375    -0.91061831  -593.62250450    -0.06697636    -0.04304141  0.26D-02  0.55D-02  1  1     3.57
   2      1.36644895    -0.91595845  -593.62784464    -0.00534014    -0.02575421  0.69D-04  0.46D-03  2  2     6.17
   3      1.37176687    -0.91608514  -593.62797133    -0.00012669    -0.00302995  0.16D-04  0.28D-04  3  3     8.78
   4      1.37325597    -0.91614298  -593.62802917    -0.00005785    -0.00059239  0.76D-06  0.20D-05  4  4    11.37
   5      1.37349605    -0.91614956  -593.62803575    -0.00000658    -0.00007067  0.17D-06  0.16D-06  5  5    13.96
   6      1.37354159    -0.91614512  -593.62803131     0.00000445    -0.00001389  0.30D-07  0.14D-07  6  6    16.60
   7      1.37354916    -0.91614501  -593.62803120     0.00000011     0.00000064  0.53D-08  0.23D-08  6  2    19.21
   8      1.37355524    -0.91614470  -593.62803088     0.00000031    -0.00000124  0.72D-09  0.26D-09  6  1    21.82
   9      1.37355606    -0.91614463  -593.62803082     0.00000006     0.00000050  0.65D-10  0.44D-10  6  4    24.43
  10      1.37355693    -0.91614460  -593.62803079     0.00000003    -0.00000011  0.47D-11  0.34D-11  6  3    27.04
  11      1.37355694    -0.91614460  -593.62803079    -0.00000000     0.00000004  0.11D-11  0.53D-12  6  5    29.65
  12      1.37355691    -0.91614460  -593.62803079    -0.00000000     0.00000002  0.17D-12  0.76D-13  6  6    32.25
  13      1.37355686    -0.91614460  -593.62803079    -0.00000000     0.00000002  0.23D-13  0.10D-13  6  1    34.86
  14      1.37355685    -0.91614460  -593.62803079    -0.00000000     0.00000000  0.30D-14  0.12D-14  6  2    37.47
  15      1.37355685    -0.91614460  -593.62803079     0.00000000    -0.00000000  0.66D-15  0.30D-15  6  4    40.07
  16      1.37355685    -0.91614460  -593.62803079     0.00000000    -0.00000000  0.32D-16  0.23D-16  6  5    42.68
  17      1.37355685    -0.91614460  -593.62803079     0.00000000    -0.00000000  0.57D-17  0.24D-17  6  3    45.29
  18      1.37355685    -0.91614460  -593.62803079     0.00000000    -0.00000000  0.14D-17  0.41D-18  6  5    47.90
  19      1.37355685    -0.91614460  -593.62803079     0.00000000    -0.00000000  0.18D-18  0.63D-19  6  6    50.52
  20      1.37355685    -0.91614460  -593.62803079    -0.00000000     0.00000000  0.14D-19  0.64D-20  6  1    53.12
  21      1.37355685    -0.91614460  -593.62803079    -0.00000000     0.00000000  0.23D-20  0.97D-21  6  2    55.72

 Norm of t1 vector:      0.07011638      S-energy:    -0.00000000      T1 diagnostic:  0.00826329
                                                                       D1 diagnostic:  0.02108891


 Total CPU time for triples:     48.75 sec


 RESULTS
 =======

  Reference energy                   -592.711886189281
  CCSD singlet pair energy             -0.634022189600
  CCSD triplet pair energy             -0.282122414782
  CCSD correlation energy              -0.916144604382

  Triples (T) contribution             -0.029842776742
  Total correlation energy             -0.945987381125

  CCSD total energy                  -593.628030793663
  CCSD[T] energy                     -593.658491649386
  CCSD-T energy                      -593.657563042254
 !CCSD(T) total energy               -593.657873570406

 Timing summary (sec):

 STEP                 CPU(USER)    SYS     CPU(TOT)    WALL
 Transformation          1.10      0.13      1.23      1.23
 CCSD iterations        54.64      1.54     56.18     56.26
 Triples                48.75      1.24     49.99     50.00

 Program statistics:

 Available memory in ccsd:               999998604
 Min. memory needed in ccsd:               2548392
 Max. memory used in ccsd:                 3412984
 Max. memory used in cckext:               3730705 (21 integral passes)



 **********************************************************************************************************************************
 DATASETS  * FILE   NREC   LENGTH (MB)   RECORD NAMES
              1      20      256.21       500      610      700      900      950      970     1000      129      960     1100   
                                          VAR    BASINP    GEOM    SYMINP    ZMAT    AOBASIS   BASIS     P2S    ABASIS      S 
                                         1400     1410     1200     1210     1080     1600     1650     1300     1700     1380   
                                           T        V       H0       H01     AOSYM     SMH    MOLCAS    ERIS     OPER     JKOP   

              2       3        0.73       700     1000     2100   
                                         GEOM     BASIS     RHF  

 PROGRAMS   *        TOTAL   CCSD(T)       RHF       INT
 CPU TIMES  *       111.32    104.50      2.66      4.10
 REAL TIME  *       115.45 SEC
 DISK USED  *       681.27 MB      
 GA USED    *         0.00 MB       (max)       0.00 MB       (current)
 **********************************************************************************************************************************

        CCSD(T)         RHF-SCF 
   -593.65787357   -592.71188619
 **********************************************************************************************************************************
 Variable memory released
