
 Primary working directories    : /tmp/985636.277.gen6.q
 Secondary working directories  : /tmp/985636.277.gen6.q
 Wavefunction directory         : /home/vulcan/jj04645/wfu/
 Main file repository           : /tmp/985636.277.gen6.q/

 ARCHNAME  : Linux/x86_64
 FC        : /opt/intel/compilers_and_libraries_2016.1.150/linux/bin/intel64/ifort
 FCVERSION : 16.0.1
 BLASLIB   : -mkl
 id        : ccgc

 Nodes     nprocs
 n074         1
 ga_uses_ma=false, calling ma_init with nominal heap.
 GA-space will be limited to   8.0 MW (determined by -G option)

 Using customized tuning parameters: mindgm=10; mindgv=16; mindgc=4; mindgr=1; noblas=0; mincuda=1000; minvec=7
 default implementation of scratch files=df  

 ***,Optimization of tetrahydrothiopyran
 memory,1000,m
 gthresh,energy=1.0d-12,orbital=1.0d-10,oneint=1.0d-16,twoint=1.0d-16,optgrad=1.0d-6,compress=1.0d-13
 geomtyp=xyz
 
 bohr
 geometry = {
  S    0.3548011177    2.7107784689   -0.0029001611
  C   -0.3316970585   -3.3713759807   -0.0018741059
  C   -0.6595233009    0.6678494907   -2.5748832472
  C   -0.6636792167    0.6721125236    2.5774971731
  C    0.4681395485   -1.9802611135   -2.4062226664
  C    0.4722786994   -1.9833522894    2.4088883948
  H   -2.7258707166    0.5717815010   -2.5782772919
  H   -2.7299387855    0.5741308986    2.5792904934
  H   -0.0713120050    1.6175057058   -4.3086065327
  H   -0.0764886111    1.6248722510    4.3098631797
  H    2.5303429500   -1.8369566221   -2.4719850176
  H    2.5343858755   -1.8379055268    2.4729427990
  H   -0.1301526254   -3.0695450209   -4.0608801224
  H   -0.1246987706   -3.0748004818    4.0625942321
  H    0.4685394342   -5.2761478715   -0.0045044822
  H   -2.3938615516   -3.5885073496   -0.0009426447
 }
 
 basis=VDZ
 {rhf;maxit,200}
 {ccsd(t);maxit,200}

 Variables initialized (661), CPU time= 0.00 sec
 Commands  initialized (458), CPU time= 0.01 sec, 486 directives.
 Default parameters read. Elapsed time= 0.04 sec

 Checking input...
 Passed
1


                                         ***  PROGRAM SYSTEM MOLPRO  ***
                         Copyright, University College Cardiff Consultants Limited, 2008

                                    Version 2010.1 linked May 16 2016 07:17:05


 **********************************************************************************************************************************
 LABEL *   Optimization of tetrahydrothiopyran                                           
 Linux-4.4.3/n074(x86_64) 64 bit mpp version                                             DATE: 26-Jan-24          TIME: 11:56:15  
 **********************************************************************************************************************************

 SHA1:             9e8077add272b0f3cad6f7df79ec5211205f459d
 **********************************************************************************************************************************

 THRESHOLDS:

 ZERO    =  1.00D-12  ONEINT  =  1.00D-16  TWOINT  =  1.00D-16  PREFAC  =  1.00D-14  LOCALI  =  1.00D-09  EORDER  =  1.00D-04
 ENERGY  =  1.00D-12  ETEST   =  0.00D+00  EDENS   =  0.00D+00  THRDEDEF=  1.00D-06  GRADIENT=  1.00D-02  STEP    =  1.00D-03
 ORBITAL =  1.00D-10  CIVEC   =  1.00D-05  COEFF   =  1.00D-04  PRINTCI =  5.00D-02  PUNCHCI =  9.90D+01  OPTGRAD =  1.00D-06
 OPTENERG=  1.00D-06  OPTSTEP =  3.00D-04  THRGRAD =  1.00D-10  COMPRESS=  1.00D-13  VARMIN  =  1.00D-07  VARMAX  =  1.00D-03
 THRDOUB =  0.00D+00  THRDIV  =  1.00D-05  THRRED  =  1.00D-07  THRPSP  =  1.00D+00  THRDC   =  1.00D-10  THRCS   =  1.00D-10
 THRNRM  =  1.00D-08  THREQ   =  0.00D+00  THRDE   =  1.00D+00  THRREF  =  1.00D-05  SPARFAC =  1.00D+00  THRDLP  =  1.00D-07
 THRDIA  =  1.00D-10  THRDLS  =  1.00D-07  THRGPS  =  0.00D+00  THRKEX  =  0.00D+00  THRDIS  =  2.00D-01  THRVAR  =  1.00D-10
 THRLOC  =  1.00D-06  THRGAP  =  1.00D-06  THRLOCT = -1.00D+00  THRGAPT = -1.00D+00  THRORB  =  1.00D-06  THRMLTP =  0.00D+00
 THRCPQCI=  1.00D-10  KEXTA   =  0.00D+00  THRCOARS=  0.00D+00  SYMTOL  =  1.00D-06  GRADTOL =  1.00D-06  THROVL  =  1.00D-08
 THRORTH =  1.00D-08  GRID    =  1.00D-06  GRIDMAX =  1.00D-03  DTMAX   =  0.00D+00

 SETTING GEOMTYP        =    XYZ
 ZUNIT=BOHR
 

 Variable memory set to 1000000000 words,  buffer space   230000 words

 SETTING BASIS          =    VDZ


 Recomputing integrals since basis changed


 Using spherical harmonics

 Library entry S      S cc-pVDZ              selected for orbital group  1
 Library entry S      P cc-pVDZ              selected for orbital group  1
 Library entry S      D cc-pVDZ              selected for orbital group  1
 Library entry C      S cc-pVDZ              selected for orbital group  2
 Library entry C      P cc-pVDZ              selected for orbital group  2
 Library entry C      D cc-pVDZ              selected for orbital group  2
 Library entry H      S cc-pVDZ              selected for orbital group  3
 Library entry H      P cc-pVDZ              selected for orbital group  3

1PROGRAM * SEWARD (Integral evaluation for generally contracted gaussian basis sets)     Author: Roland Lindh, 1990

 Geometry written to block  1 of record 700


 Point group  C1  



 ATOMIC COORDINATES

 NR  ATOM    CHARGE       X              Y              Z

   1  S      16.00    0.354801118    2.710778469   -0.002900161
   2  C       6.00   -0.331697058   -3.371375981   -0.001874106
   3  C       6.00   -0.659523301    0.667849491   -2.574883247
   4  C       6.00   -0.663679217    0.672112524    2.577497173
   5  C       6.00    0.468139549   -1.980261113   -2.406222666
   6  C       6.00    0.472278699   -1.983352289    2.408888395
   7  H       1.00   -2.725870717    0.571781501   -2.578277292
   8  H       1.00   -2.729938785    0.574130899    2.579290493
   9  H       1.00   -0.071312005    1.617505706   -4.308606533
  10  H       1.00   -0.076488611    1.624872251    4.309863180
  11  H       1.00    2.530342950   -1.836956622   -2.471985018
  12  H       1.00    2.534385875   -1.837905527    2.472942799
  13  H       1.00   -0.130152625   -3.069545021   -4.060880122
  14  H       1.00   -0.124698771   -3.074800482    4.062594232
  15  H       1.00    0.468539434   -5.276147872   -0.004504482
  16  H       1.00   -2.393861552   -3.588507350   -0.000942645

 Bond lengths in Bohr (Angstrom)

  1- 3  3.437660517   1- 4  3.442660516   2- 5  2.890645459   2- 6  2.895645459   2-15  2.066044849
       ( 1.819131598)       ( 1.821777484)       ( 1.529663696)       ( 1.532309582)       ( 1.093303847)

  2-16  2.073564394   3- 5  2.883150996   3- 7  2.068582176   3- 9  2.062434456   4- 6  2.893150995
       ( 1.097283019)       ( 1.525697797)       ( 1.094646543)       ( 1.091393309)       ( 1.530989569)

  4- 8  2.068582176   4-10  2.062434456   5-11  2.068222361   5-13  2.069392242   6-12  2.068222361
       ( 1.094646543)       ( 1.091393309)       ( 1.094456136)       ( 1.095075211)       ( 1.094456136)

  6-14  2.069392242
       ( 1.095075211)

 Bond angles

  1-3-5  112.74678803   1-3-7  108.87898633   1-3-9  105.73228919   1-4-6  112.56226594

  1- 4- 8  108.91760458   1- 4-10  105.77090745   2- 5- 3  112.48549829   2- 5-11  109.61422260

  2- 5-13  109.37533037   2- 6- 4  112.30097713   2- 6-12  109.65304448   2- 6-14  109.41415226

  3- 1- 4   96.98308543   3- 5-11  108.93426817   3- 5-13  108.88158474   4- 6-12  108.97309004

  4- 6-14  108.92040662   5- 2- 6  112.64228820   5- 2-15  109.59988582   5- 2-16  109.02277945

  5- 3- 7  110.37357014   5- 3- 9  111.13355772   6- 2-15  109.59988581   6- 2-16  109.02277946

  6- 4- 8  110.41218839   6- 4-10  111.17217596   7- 3- 9  107.75210024   8- 4-10  107.79071849

 11- 5-13  107.41685864  12- 6-14  107.45568051  15- 2-16  106.77766992

 NUCLEAR CHARGE:                   56
 NUMBER OF PRIMITIVE AOS:         247
 NUMBER OF SYMMETRY AOS:          241
 NUMBER OF CONTRACTIONS:          138   ( 138A   )
 NUMBER OF CORE ORBITALS:          10   (  10A   )
 NUMBER OF VALENCE ORBITALS:       34   (  34A   )


 NUCLEAR REPULSION ENERGY  312.06927034


 Eigenvalues of metric

         1 0.285E-02 0.305E-02 0.427E-02 0.632E-02 0.705E-02 0.151E-01 0.157E-01 0.195E-01


 Contracted 2-electron integrals neglected if value below      1.0D-16
 AO integral compression algorithm  1   Integral accuracy      1.0D-16

     374.079 MB (compressed) written to integral file ( 94.2%)

     Node minimum: 374.079 MB, node maximum: 374.079 MB


 NUMBER OF SORTED TWO-ELECTRON INTEGRALS:   45998436.     BUFFER LENGTH:  32768
 NUMBER OF SEGMENTS:   3  SEGMENT LENGTH:   15998004      RECORD LENGTH: 524288

 Memory used in sort:      16.56 MW

 SORT1 READ    49670889. AND WROTE    45798649. INTEGRALS IN    132 RECORDS. CPU TIME:     0.46 SEC, REAL TIME:     0.70 SEC
 SORT2 READ    45798649. AND WROTE    45998436. INTEGRALS IN   1427 RECORDS. CPU TIME:     0.36 SEC, REAL TIME:     0.52 SEC

 FILE SIZES:   FILE 1:   349.6 MBYTE,  FILE 4:   553.7 MBYTE,   TOTAL:    903.2 MBYTE

 OPERATOR DM      FOR CENTER  0  COORDINATES:    0.000000    0.000000    0.000000


 **********************************************************************************************************************************
 DATASETS  * FILE   NREC   LENGTH (MB)   RECORD NAMES
              1      19      349.79       500      610      700      900      950      970     1000      129      960     1100   
                                          VAR    BASINP    GEOM    SYMINP    ZMAT    AOBASIS   BASIS     P2S    ABASIS      S 
                                         1400     1410     1200     1210     1080     1600     1650     1300     1700   
                                           T        V       H0       H01     AOSYM     SMH    MOLCAS    ERIS     OPER   

 PROGRAMS   *        TOTAL       INT
 CPU TIMES  *         4.36      4.32
 REAL TIME  *         5.14 SEC
 DISK USED  *         1.28 GB      
 GA USED    *         0.01 MB       (max)       0.00 MB       (current)
 **********************************************************************************************************************************

1PROGRAM * RHF-SCF (CLOSED SHELL)       Authors: W. Meyer, H.-J. Werner


 NUMBER OF ELECTRONS:      28+   28-    SPACE SYMMETRY=1    SPIN SYMMETRY: Singlet 
 CONVERGENCE THRESHOLDS:    1.00E-10 (Density)    1.00E-13 (Energy)
 MAX. NUMBER OF ITERATIONS:      200
 INTERPOLATION TYPE:            DIIS
 INTERPOLATION STEPS:              2 (START)      1 (STEP)
 LEVEL SHIFTS:                  0.00 (CLOSED)  0.00 (OPEN) 



 Orbital guess generated from atomic densities. Full valence occupancy:   44

 Molecular orbital dump at record        2100.2

 ITERATION    DDIFF          GRAD             ENERGY        2-EL.EN.            DIPOLE MOMENTS         DIIS
    1      0.000D+00      0.000D+00      -592.64379886   1056.708544   -0.40604   -0.80617    0.00004    0
    2      0.000D+00      0.396D-02      -592.70485680   1054.113800   -0.20814   -0.74104   -0.00132    1
    3      0.778D-02      0.133D-02      -592.71080911   1055.552931   -0.27942   -0.67796    0.00091    2
    4      0.269D-02      0.541D-03      -592.71182459   1054.934264   -0.25276   -0.71121    0.00012    3
    5      0.934D-03      0.775D-04      -592.71185044   1054.997358   -0.24878   -0.70267    0.00032    4
    6      0.181D-03      0.269D-04      -592.71185300   1054.966379   -0.25051   -0.70297    0.00029    5
    7      0.507D-04      0.623D-05      -592.71185321   1054.969500   -0.24984   -0.70286    0.00029    6
    8      0.165D-04      0.175D-05      -592.71185323   1054.968638   -0.24983   -0.70272    0.00030    7
    9      0.545D-05      0.457D-06      -592.71185323   1054.968518   -0.24981   -0.70268    0.00029    7
   10      0.128D-05      0.163D-06      -592.71185323   1054.968557   -0.24980   -0.70268    0.00030    7
   11      0.483D-06      0.345D-07      -592.71185323   1054.968542   -0.24980   -0.70267    0.00030    7
   12      0.114D-06      0.700D-08      -592.71185323   1054.968548   -0.24980   -0.70267    0.00030    7
   13      0.184D-07      0.295D-08      -592.71185323   1054.968545   -0.24980   -0.70267    0.00030    7
   14      0.649D-08      0.869D-09      -592.71185323   1054.968546   -0.24980   -0.70267    0.00030    7
   15      0.233D-08      0.289D-09      -592.71185323   1054.968545   -0.24980   -0.70267    0.00030    7
   16      0.700D-09      0.953D-10      -592.71185323   1054.968546   -0.24980   -0.70267    0.00030    8
   17      0.233D-09      0.265D-10      -592.71185323   1054.968546   -0.24980   -0.70267    0.00030    7
   18      0.740D-10      0.108D-10      -592.71185323   1054.968546   -0.24980   -0.70267    0.00030    8
   19      0.367D-10      0.393D-11      -592.71185323   1054.968546   -0.24980   -0.70267    0.00030    8
   20      0.135D-10      0.131D-11      -592.71185323   1054.968546   -0.24980   -0.70267    0.00030    8
   21      0.496D-11      0.395D-12      -592.71185323   1054.968546   -0.24980   -0.70267    0.00030    8
   22      0.125D-11      0.130D-12      -592.71185323   1054.968546   -0.24980   -0.70267    0.00030    8
   23      0.402D-12      0.608D-13      -592.71185323   1054.968546   -0.24980   -0.70267    0.00030    8
   24      0.254D-12      0.393D-13      -592.71185323   1054.968546   -0.24980   -0.70267    0.00030    0

 Final occupancy:  28

 !RHF STATE 1.1 Energy               -592.711853232674
 Nuclear energy                       312.06927034
 One-electron energy                -1432.26539633
 Two-electron energy                  527.48427276
 Virial quotient                       -1.00019506
 !RHF STATE 1.1 Dipole moment          -0.24980413    -0.70267339     0.00029583
 Dipole moment /Debye                  -0.63489719    -1.78590062     0.00075188

 Orbital energies:

         1.1          2.1          3.1          4.1          5.1          6.1          7.1          8.1          9.1         10.1
    -91.930031   -11.255330   -11.254754   -11.231181   -11.230563   -11.229008    -8.933850    -6.615736    -6.614312    -6.612107

        11.1         12.1         13.1         14.1         15.1         16.1         17.1         18.1         19.1         20.1
     -1.119637    -1.019701    -1.006785    -0.842262    -0.835990    -0.755698    -0.646865    -0.614175    -0.609855    -0.578564

        21.1         22.1         23.1         24.1         25.1         26.1         27.1         28.1         29.1         30.1
     -0.546711    -0.523535    -0.497411    -0.496248    -0.473025    -0.434087    -0.412131    -0.328875     0.176910     0.189861


 **********************************************************************************************************************************
 DATASETS  * FILE   NREC   LENGTH (MB)   RECORD NAMES
              1      19      349.79       500      610      700      900      950      970     1000      129      960     1100   
                                          VAR    BASINP    GEOM    SYMINP    ZMAT    AOBASIS   BASIS     P2S    ABASIS      S 
                                         1400     1410     1200     1210     1080     1600     1650     1300     1700   
                                           T        V       H0       H01     AOSYM     SMH    MOLCAS    ERIS     OPER   

              2       3        0.92       700     1000     2100   
                                         GEOM     BASIS     RHF  

 PROGRAMS   *        TOTAL       RHF       INT
 CPU TIMES  *        11.74      7.38      4.32
 REAL TIME  *        13.34 SEC
 DISK USED  *         1.28 GB      
 GA USED    *         0.01 MB       (max)       0.00 MB       (current)
 **********************************************************************************************************************************


1PROGRAM * CCSD (Closed-shell coupled cluster)     Authors: C. Hampel, H.-J. Werner, 1991, M. Deegan, P.J. Knowles, 1992


 Convergence thresholds:  THRVAR = 1.00D-08  THRDEN = 1.00D-12

 CCSD(T)     terms to be evaluated (factor= 1.000)


 Number of core orbitals:          10 (  10 )
 Number of closed-shell orbitals:  18 (  18 )
 Number of external orbitals:     110 ( 110 )

 Molecular orbitals read from record     2100.2  Type=RHF/CANONICAL (state 1.1)

 Number of N-1 electron functions:              18
 Number of N-2 electron functions:             171
 Number of singly external CSFs:              1980
 Number of doubly external CSFs:           1961190
 Total number of CSFs:                     1963171

 Length of J-op  integral file:               0.00 MB
 Length of K-op  integral file:               1.35 MB
 Length of 3-ext integral record:             0.00 MB

 Memory could be reduced to 32.58 Mwords without degradation in triples

 Integral transformation finished. Total CPU:   2.06 sec, npass=  1  Memory used:  30.89 MW

 Reference energy:                   -592.71185323

 MP2 singlet pair energy:              -0.53948036
 MP2 triplet pair energy:              -0.30437774
 MP2 correlation energy:               -0.84385810
 MP2 total energy:                   -593.55571133

 SCS-MP2 correlation energy:           -0.83676702   (PS=  1.200000  PT=  0.333333)
 SCS-MP2 total energy:               -593.54862026

 ITER.      SQ.NORM     CORR.ENERGY   TOTAL ENERGY   ENERGY CHANGE        DEN1      VAR(S)    VAR(P)  DIIS     TIME
   1      1.33972639    -0.91083201  -593.62268524    -0.06697391    -0.04301037  0.26D-02  0.55D-02  1  1     9.19
   2      1.36672967    -0.91617983  -593.62803306    -0.00534782    -0.02577987  0.69D-04  0.46D-03  2  2    16.38
   3      1.37206825    -0.91630791  -593.62816114    -0.00012808    -0.00303964  0.16D-04  0.28D-04  3  3    23.59
   4      1.37356383    -0.91636595  -593.62821919    -0.00005805    -0.00059457  0.77D-06  0.20D-05  4  4    30.81
   5      1.37380512    -0.91637256  -593.62822579    -0.00000660    -0.00007096  0.17D-06  0.16D-06  5  5    38.04
   6      1.37385095    -0.91636810  -593.62822133     0.00000446    -0.00001394  0.30D-07  0.14D-07  6  6    45.27
   7      1.37385858    -0.91636799  -593.62822122     0.00000011     0.00000064  0.53D-08  0.23D-08  6  2    52.50
   8      1.37386468    -0.91636767  -593.62822091     0.00000031    -0.00000125  0.73D-09  0.27D-09  6  1    59.72
   9      1.37386550    -0.91636761  -593.62822084     0.00000006     0.00000051  0.66D-10  0.44D-10  6  4    66.95
  10      1.37386639    -0.91636758  -593.62822081     0.00000003    -0.00000011  0.47D-11  0.35D-11  6  3    74.17
  11      1.37386640    -0.91636758  -593.62822081    -0.00000000     0.00000004  0.11D-11  0.54D-12  6  5    81.39
  12      1.37386636    -0.91636758  -593.62822081    -0.00000000     0.00000002  0.17D-12  0.77D-13  6  6    88.60
  13      1.37386631    -0.91636758  -593.62822081    -0.00000000     0.00000002  0.24D-13  0.10D-13  6  1    95.81
  14      1.37386630    -0.91636758  -593.62822082    -0.00000000     0.00000000  0.31D-14  0.12D-14  6  2   103.04
  15      1.37386630    -0.91636758  -593.62822081     0.00000000    -0.00000000  0.68D-15  0.31D-15  6  4   110.26
  16      1.37386630    -0.91636758  -593.62822081     0.00000000    -0.00000000  0.34D-16  0.23D-16  6  5   117.46
  17      1.37386630    -0.91636758  -593.62822081     0.00000000    -0.00000000  0.63D-17  0.25D-17  6  3   124.68
  18      1.37386630    -0.91636758  -593.62822081     0.00000000    -0.00000000  0.16D-17  0.44D-18  6  5   131.89
  19      1.37386630    -0.91636758  -593.62822081     0.00000000    -0.00000000  0.22D-18  0.70D-19  6  6   139.12
  20      1.37386630    -0.91636758  -593.62822081    -0.00000000     0.00000000  0.22D-19  0.77D-20  6  1   146.34
  21      1.37386630    -0.91636758  -593.62822081    -0.00000000     0.00000000  0.47D-20  0.14D-20  6  2   153.55

 Norm of t1 vector:      0.07018304      S-energy:    -0.00000000      T1 diagnostic:  0.00827115
                                                                       D1 diagnostic:  0.02111424


 Total CPU time for triples:    108.25 sec


 RESULTS
 =======

  Reference energy                   -592.711853232675
  CCSD singlet pair energy             -0.634238561861
  CCSD triplet pair energy             -0.282129020371
  CCSD correlation energy              -0.916367582232

  Triples (T) contribution             -0.029872352201
  Total correlation energy             -0.946239934434

  CCSD total energy                  -593.628220814907
  CCSD[T] energy                     -593.658712991385
  CCSD-T energy                      -593.657781938005
 !CCSD(T) total energy               -593.658093167108

 Timing summary (sec):

 STEP                 CPU(USER)    SYS     CPU(TOT)    WALL
 Transformation          2.16      0.21      2.37      2.37
 CCSD iterations       151.40      2.74    154.14    154.22
 Triples               108.25      1.99    110.24    110.26

 Program statistics:

 Available memory in ccsd:               999998604
 Min. memory needed in ccsd:               5123362
 Max. memory used in ccsd:                 6867976
 Max. memory used in cckext:               6836871 (21 integral passes)



 **********************************************************************************************************************************
 DATASETS  * FILE   NREC   LENGTH (MB)   RECORD NAMES
              1      20      486.17       500      610      700      900      950      970     1000      129      960     1100   
                                          VAR    BASINP    GEOM    SYMINP    ZMAT    AOBASIS   BASIS     P2S    ABASIS      S 
                                         1400     1410     1200     1210     1080     1600     1650     1300     1700     1380   
                                           T        V       H0       H01     AOSYM     SMH    MOLCAS    ERIS     OPER     JKOP   

              2       3        0.92       700     1000     2100   
                                         GEOM     BASIS     RHF  

 PROGRAMS   *        TOTAL   CCSD(T)       RHF       INT
 CPU TIMES  *       273.56    261.82      7.38      4.32
 REAL TIME  *       280.25 SEC
 DISK USED  *         1.28 GB      
 GA USED    *         0.01 MB       (max)       0.00 MB       (current)
 **********************************************************************************************************************************

        CCSD(T)         RHF-SCF 
   -593.65809317   -592.71185323
 **********************************************************************************************************************************
 Variable memory released
