
 Primary working directories    : /tmp/943420.138.gen5.q
 Secondary working directories  : /tmp/943420.138.gen5.q
 Wavefunction directory         : /home/vulcan/mel64643/wfu/
 Main file repository           : /tmp/943420.138.gen5.q/

 ARCHNAME  : Linux/x86_64
 FC        : /opt/intel/compilers_and_libraries_2016.1.150/linux/bin/intel64/ifort
 FCVERSION : 16.0.1
 BLASLIB   : -mkl
 id        : ccgc

 Nodes     nprocs
 n070         1
 ga_uses_ma=false, calling ma_init with nominal heap.
 GA-space will be limited to   8.0 MW (determined by -G option)

 Using customized tuning parameters: mindgm=10; mindgv=16; mindgc=4; mindgr=1; noblas=0; mincuda=1000; minvec=7
 default implementation of scratch files=df  

 ***,Optimization of nh3_nitrosmethane
 memory,1000,m
 gthresh,energy=1.0d-12,orbital=1.0d-10,oneint=1.0d-16,twoint=1.0d-16,optgrad=1.0d-6,compress=1.0d-13
 geomtyp=xyz
 
 bohr
 geometry = {
  N   -5.2212914730   -0.1875571159    0.0021407411
  H   -6.3047470714    0.2298174130   -1.5339712140
  H   -3.7619707497    1.0614072813   -0.0031858823
  H   -6.2888598785    0.2305123307    1.5315100601
  H   -0.9254632129   -2.3992826996   -0.0004428533
  H    1.8820331580   -3.4333853638   -1.6665831361
  H    1.8808809757   -3.4347403942    1.6667965695
  C    1.1350451494   -2.4697413774    0.0002407195
  N    2.2659624500    0.0978817139    0.0016753686
  O    0.7025291423    1.7821452211    0.0018196270
 }
 
 basis=aug-cc-pvdz, H=cc-pvdz
 {rhf;maxit,200}
 {ccsd(t);maxit,200}

 Variables initialized (661), CPU time= 0.00 sec
 Commands  initialized (458), CPU time= 0.01 sec, 486 directives.
 Default parameters read. Elapsed time= 0.11 sec

 Checking input...
 Passed
1


                                         ***  PROGRAM SYSTEM MOLPRO  ***
                         Copyright, University College Cardiff Consultants Limited, 2008

                                    Version 2010.1 linked May 16 2016 07:17:05


 **********************************************************************************************************************************
 LABEL *   Optimization of nh3_nitrosmethane                                             
 Linux-4.4.3/n070(x86_64) 64 bit mpp version                                             DATE: 26-Oct-23          TIME: 07:33:07  
 **********************************************************************************************************************************

 SHA1:             9e8077add272b0f3cad6f7df79ec5211205f459d
 **********************************************************************************************************************************

 THRESHOLDS:

 ZERO    =  1.00D-12  ONEINT  =  1.00D-16  TWOINT  =  1.00D-16  PREFAC  =  1.00D-14  LOCALI  =  1.00D-09  EORDER  =  1.00D-04
 ENERGY  =  1.00D-12  ETEST   =  0.00D+00  EDENS   =  0.00D+00  THRDEDEF=  1.00D-06  GRADIENT=  1.00D-02  STEP    =  1.00D-03
 ORBITAL =  1.00D-10  CIVEC   =  1.00D-05  COEFF   =  1.00D-04  PRINTCI =  5.00D-02  PUNCHCI =  9.90D+01  OPTGRAD =  1.00D-06
 OPTENERG=  1.00D-06  OPTSTEP =  3.00D-04  THRGRAD =  1.00D-10  COMPRESS=  1.00D-13  VARMIN  =  1.00D-07  VARMAX  =  1.00D-03
 THRDOUB =  0.00D+00  THRDIV  =  1.00D-05  THRRED  =  1.00D-07  THRPSP  =  1.00D+00  THRDC   =  1.00D-10  THRCS   =  1.00D-10
 THRNRM  =  1.00D-08  THREQ   =  0.00D+00  THRDE   =  1.00D+00  THRREF  =  1.00D-05  SPARFAC =  1.00D+00  THRDLP  =  1.00D-07
 THRDIA  =  1.00D-10  THRDLS  =  1.00D-07  THRGPS  =  0.00D+00  THRKEX  =  0.00D+00  THRDIS  =  2.00D-01  THRVAR  =  1.00D-10
 THRLOC  =  1.00D-06  THRGAP  =  1.00D-06  THRLOCT = -1.00D+00  THRGAPT = -1.00D+00  THRORB  =  1.00D-06  THRMLTP =  0.00D+00
 THRCPQCI=  1.00D-10  KEXTA   =  0.00D+00  THRCOARS=  0.00D+00  SYMTOL  =  1.00D-06  GRADTOL =  1.00D-06  THROVL  =  1.00D-08
 THRORTH =  1.00D-08  GRID    =  1.00D-06  GRIDMAX =  1.00D-03  DTMAX   =  0.00D+00

 SETTING GEOMTYP        =    XYZ
 ZUNIT=BOHR
 

 Variable memory set to 1000000000 words,  buffer space   230000 words

 SETTING BASIS          =    AUG-CC-PVDZ,H=CC-PVDZ


 Recomputing integrals since basis changed


 Using spherical harmonics

 Library entry N      S aug-cc-pVDZ          selected for orbital group  1
 Library entry N      P aug-cc-pVDZ          selected for orbital group  1
 Library entry N      D aug-cc-pVDZ          selected for orbital group  1
 Library entry H      S cc-pVDZ              selected for orbital group  2
 Library entry H      P cc-pVDZ              selected for orbital group  2
 Library entry C      S aug-cc-pVDZ          selected for orbital group  3
 Library entry C      P aug-cc-pVDZ          selected for orbital group  3
 Library entry C      D aug-cc-pVDZ          selected for orbital group  3
 Library entry O      S aug-cc-pVDZ          selected for orbital group  5
 Library entry O      P aug-cc-pVDZ          selected for orbital group  5
 Library entry O      D aug-cc-pVDZ          selected for orbital group  5

1PROGRAM * SEWARD (Integral evaluation for generally contracted gaussian basis sets)     Author: Roland Lindh, 1990

 Geometry written to block  1 of record 700


 Point group  C1  



 ATOMIC COORDINATES

 NR  ATOM    CHARGE       X              Y              Z

   1  N       7.00   -5.221291473   -0.187557116    0.002140741
   2  H       1.00   -6.304747071    0.229817413   -1.533971214
   3  H       1.00   -3.761970750    1.061407281   -0.003185882
   4  H       1.00   -6.288859879    0.230512331    1.531510060
   5  H       1.00   -0.925463213   -2.399282700   -0.000442853
   6  H       1.00    1.882033158   -3.433385364   -1.666583136
   7  H       1.00    1.880880976   -3.434740394    1.666796569
   8  C       6.00    1.135045149   -2.469741377    0.000240720
   9  N       7.00    2.265962450    0.097881714    0.001675369
  10  O       8.00    0.702529142    1.782145221    0.001819627

 Bond lengths in Bohr (Angstrom)

 1-2  1.925543422  1-3  1.920822067  1-4  1.911401286  5-8  2.061712784  6-8  2.065164057
     ( 1.018953694)     ( 1.016455260)     ( 1.011469998)     ( 1.091011417)     ( 1.092837752)

  7- 8  2.065164057   8- 9  2.805648648   9-10  2.298057286
       ( 1.092837752)       ( 1.484685321)       ( 1.216079541)

 Bond angles

  2-1-3  106.51897453   2-1-4  106.05909573   3-1-4  106.51897444   5-8-6  112.15889785

  5-8-7  112.15889785   5-8-9  111.81278752   6-8-7  107.61735054   6-8-9  106.35838670

  7- 8- 9  106.35838670   8- 9-10  113.35946297

 NUCLEAR CHARGE:                   34
 NUMBER OF PRIMITIVE AOS:         190
 NUMBER OF SYMMETRY AOS:          182
 NUMBER OF CONTRACTIONS:          122   ( 122A   )
 NUMBER OF CORE ORBITALS:           4   (   4A   )
 NUMBER OF VALENCE ORBITALS:       22   (  22A   )


 NUCLEAR REPULSION ENERGY  117.39944226


 Eigenvalues of metric

         1 0.465E-03 0.142E-02 0.195E-02 0.432E-02 0.524E-02 0.750E-02 0.800E-02 0.855E-02


 Contracted 2-electron integrals neglected if value below      1.0D-16
 AO integral compression algorithm  1   Integral accuracy      1.0D-16

     231.211 MB (compressed) written to integral file ( 85.9%)

     Node minimum: 231.211 MB, node maximum: 231.211 MB


 NUMBER OF SORTED TWO-ELECTRON INTEGRALS:   28151256.     BUFFER LENGTH:  32768
 NUMBER OF SEGMENTS:   2  SEGMENT LENGTH:   15997996      RECORD LENGTH: 524288

 Memory used in sort:      16.56 MW

 SORT1 READ    33603370. AND WROTE    27855825. INTEGRALS IN     81 RECORDS. CPU TIME:     0.36 SEC, REAL TIME:     0.55 SEC
 SORT2 READ    27855825. AND WROTE    28151256. INTEGRALS IN    882 RECORDS. CPU TIME:     0.30 SEC, REAL TIME:     0.42 SEC

 FILE SIZES:   FILE 1:   199.1 MBYTE,  FILE 4:   339.8 MBYTE,   TOTAL:    538.9 MBYTE

 OPERATOR DM      FOR CENTER  0  COORDINATES:    0.000000    0.000000    0.000000


 **********************************************************************************************************************************
 DATASETS  * FILE   NREC   LENGTH (MB)   RECORD NAMES
              1      19      199.31       500      610      700      900      950      970     1000      129      960     1100   
                                          VAR    BASINP    GEOM    SYMINP    ZMAT    AOBASIS   BASIS     P2S    ABASIS      S 
                                         1400     1410     1200     1210     1080     1600     1650     1300     1700   
                                           T        V       H0       H01     AOSYM     SMH    MOLCAS    ERIS     OPER   

 PROGRAMS   *        TOTAL       INT
 CPU TIMES  *         2.74      2.61
 REAL TIME  *         3.71 SEC
 DISK USED  *       770.90 MB      
 GA USED    *         0.00 MB       (max)       0.00 MB       (current)
 **********************************************************************************************************************************

1PROGRAM * RHF-SCF (CLOSED SHELL)       Authors: W. Meyer, H.-J. Werner


 NUMBER OF ELECTRONS:      17+   17-    SPACE SYMMETRY=1    SPIN SYMMETRY: Singlet 
 CONVERGENCE THRESHOLDS:    1.00E-10 (Density)    1.00E-13 (Energy)
 MAX. NUMBER OF ITERATIONS:      200
 INTERPOLATION TYPE:            DIIS
 INTERPOLATION STEPS:              2 (START)      1 (STEP)
 LEVEL SHIFTS:                  0.00 (CLOSED)  0.00 (OPEN) 



 Orbital guess generated from atomic densities. Full valence occupancy:   26

 Molecular orbital dump at record        2100.2

 ITERATION    DDIFF          GRAD             ENERGY        2-EL.EN.            DIPOLE MOMENTS         DIIS
    1      0.000D+00      0.000D+00      -224.96495046    393.107779    0.06734   -0.57022   -0.00585    0
    2      0.000D+00      0.710D-02      -225.02575801    392.738855   -0.58422   -0.37259   -0.00078    1
    3      0.132D-01      0.496D-02      -225.05962835    393.283301   -0.23898   -0.55147   -0.00139    2
    4      0.572D-02      0.994D-03      -225.06189683    393.118183   -0.31698   -0.45407   -0.00123    3
    5      0.146D-02      0.393D-03      -225.06232109    393.130045   -0.31466   -0.48358   -0.00097    4
    6      0.638D-03      0.952D-04      -225.06236342    393.157207   -0.32001   -0.48075   -0.00094    5
    7      0.217D-03      0.363D-04      -225.06236949    393.141173   -0.32163   -0.48085   -0.00093    6
    8      0.864D-04      0.148D-04      -225.06237048    393.147656   -0.32264   -0.48077   -0.00093    7
    9      0.331D-04      0.633D-05      -225.06237070    393.146488   -0.32292   -0.48047   -0.00093    8
   10      0.184D-04      0.193D-05      -225.06237072    393.146203   -0.32300   -0.48029   -0.00093    8
   11      0.562D-05      0.650D-06      -225.06237072    393.146308   -0.32302   -0.48020   -0.00093    8
   12      0.183D-05      0.197D-06      -225.06237072    393.146273   -0.32302   -0.48017   -0.00093    8
   13      0.685D-06      0.617D-07      -225.06237072    393.146267   -0.32302   -0.48017   -0.00093    8
   14      0.165D-06      0.312D-07      -225.06237072    393.146269   -0.32302   -0.48017   -0.00093    9
   15      0.769D-07      0.298D-08      -225.06237072    393.146269   -0.32302   -0.48017   -0.00093    8
   16      0.763D-08      0.827D-09      -225.06237072    393.146269   -0.32302   -0.48017   -0.00093    7
   17      0.263D-08      0.177D-09      -225.06237072    393.146269   -0.32302   -0.48017   -0.00093    7
   18      0.436D-09      0.614D-10      -225.06237072    393.146269   -0.32302   -0.48017   -0.00093    7
   19      0.142D-09      0.196D-10      -225.06237072    393.146269   -0.32302   -0.48017   -0.00093    7
   20      0.522D-10      0.580D-11      -225.06237072    393.146269   -0.32302   -0.48017   -0.00093    6
   21      0.161D-10      0.173D-11      -225.06237072    393.146269   -0.32302   -0.48017   -0.00093    0

 Final occupancy:  17

 !RHF STATE 1.1 Energy               -225.062370719680
 Nuclear energy                       117.39944226
 One-electron energy                 -539.03494763
 Two-electron energy                  196.57313464
 Virial quotient                       -1.00219268
 !RHF STATE 1.1 Dipole moment          -0.32301907    -0.48016650    -0.00093171
 Dipole moment /Debye                  -0.82097880    -1.22038157    -0.00236800

 Orbital energies:

         1.1          2.1          3.1          4.1          5.1          6.1          7.1          8.1          9.1         10.1
    -20.640333   -15.714705   -15.549013   -11.271177    -1.515103    -1.140338    -1.076153    -0.862375    -0.691332    -0.675979

        11.1         12.1         13.1         14.1         15.1         16.1         17.1         18.1         19.1
     -0.636218    -0.624293    -0.622449    -0.555598    -0.534479    -0.428632    -0.406162     0.077566     0.084478


 **********************************************************************************************************************************
 DATASETS  * FILE   NREC   LENGTH (MB)   RECORD NAMES
              1      19      199.31       500      610      700      900      950      970     1000      129      960     1100   
                                          VAR    BASINP    GEOM    SYMINP    ZMAT    AOBASIS   BASIS     P2S    ABASIS      S 
                                         1400     1410     1200     1210     1080     1600     1650     1300     1700   
                                           T        V       H0       H01     AOSYM     SMH    MOLCAS    ERIS     OPER   

              2       3        0.72       700     1000     2100   
                                         GEOM     BASIS     RHF  

 PROGRAMS   *        TOTAL       RHF       INT
 CPU TIMES  *         7.73      4.99      2.61
 REAL TIME  *         9.27 SEC
 DISK USED  *       770.90 MB      
 GA USED    *         0.00 MB       (max)       0.00 MB       (current)
 **********************************************************************************************************************************


1PROGRAM * CCSD (Closed-shell coupled cluster)     Authors: C. Hampel, H.-J. Werner, 1991, M. Deegan, P.J. Knowles, 1992


 Convergence thresholds:  THRVAR = 1.00D-08  THRDEN = 1.00D-12

 CCSD(T)     terms to be evaluated (factor= 1.000)


 Number of core orbitals:           4 (   4 )
 Number of closed-shell orbitals:  13 (  13 )
 Number of external orbitals:     105 ( 105 )

 Molecular orbitals read from record     2100.2  Type=RHF/CANONICAL (state 1.1)

 Number of N-1 electron functions:              13
 Number of N-2 electron functions:              91
 Number of singly external CSFs:              1365
 Number of doubly external CSFs:            932295
 Total number of CSFs:                      933661

 Length of J-op  integral file:               0.00 MB
 Length of K-op  integral file:               1.06 MB
 Length of 3-ext integral record:             0.00 MB

 Memory could be reduced to 20.68 Mwords without degradation in triples

 Integral transformation finished. Total CPU:   1.28 sec, npass=  1  Memory used:  15.40 MW

 Reference energy:                   -225.06237072

 MP2 singlet pair energy:              -0.44860582
 MP2 triplet pair energy:              -0.26463735
 MP2 correlation energy:               -0.71324317
 MP2 total energy:                   -225.77561388

 SCS-MP2 correlation energy:           -0.70299022   (PS=  1.200000  PT=  0.333333)
 SCS-MP2 total energy:               -225.76536094

 ITER.      SQ.NORM     CORR.ENERGY   TOTAL ENERGY   ENERGY CHANGE        DEN1      VAR(S)    VAR(P)  DIIS     TIME
   1      1.24160380    -0.74723249  -225.80960321    -0.03398932    -0.01022374  0.52D-02  0.49D-02  1  1     3.88
   2      1.26338678    -0.75032075  -225.81269147    -0.00308826    -0.02111169  0.17D-03  0.87D-03  2  2     6.52
   3      1.27339098    -0.75102553  -225.81339625    -0.00070479    -0.00461071  0.12D-03  0.62D-04  3  3     9.17
   4      1.27754374    -0.75099101  -225.81336173     0.00003452    -0.00137255  0.11D-04  0.11D-04  4  4    11.84
   5      1.27919588    -0.75100908  -225.81337980    -0.00001807    -0.00036027  0.19D-05  0.17D-05  5  5    14.50
   6      1.27965628    -0.75097824  -225.81334896     0.00003084    -0.00005502  0.15D-06  0.33D-06  6  6    17.15
   7      1.27975696    -0.75097543  -225.81334615     0.00000281    -0.00000382  0.33D-07  0.87D-07  6  2    19.80
   8      1.27978067    -0.75097618  -225.81334690    -0.00000075    -0.00000034  0.43D-08  0.20D-07  6  1    22.47
   9      1.27978092    -0.75097557  -225.81334629     0.00000061     0.00000436  0.26D-08  0.32D-08  6  4    25.14
  10      1.27978322    -0.75097636  -225.81334708    -0.00000080    -0.00000120  0.52D-09  0.44D-09  6  3    27.80
  11      1.27978114    -0.75097657  -225.81334729    -0.00000021     0.00000043  0.17D-09  0.78D-10  6  5    30.47
  12      1.27977963    -0.75097664  -225.81334736    -0.00000007     0.00000032  0.39D-10  0.17D-10  6  6    33.13
  13      1.27977802    -0.75097676  -225.81334748    -0.00000012     0.00000040  0.55D-11  0.39D-11  6  1    35.79
  14      1.27977734    -0.75097678  -225.81334750    -0.00000001     0.00000018  0.12D-11  0.56D-12  6  2    38.45
  15      1.27977709    -0.75097678  -225.81334750    -0.00000001     0.00000004  0.20D-12  0.85D-13  6  4    41.13
  16      1.27977702    -0.75097679  -225.81334751    -0.00000000     0.00000001  0.57D-13  0.23D-13  6  3    43.79
  17      1.27977700    -0.75097679  -225.81334751     0.00000000    -0.00000000  0.10D-13  0.49D-14  6  6    46.44
  18      1.27977700    -0.75097679  -225.81334751    -0.00000000    -0.00000000  0.19D-14  0.10D-14  6  5    49.17
  19      1.27977700    -0.75097679  -225.81334751     0.00000000    -0.00000000  0.58D-15  0.26D-15  6  1    52.00
  20      1.27977700    -0.75097679  -225.81334751     0.00000000    -0.00000000  0.35D-15  0.89D-16  6  2    54.66
  21      1.27977700    -0.75097679  -225.81334751     0.00000000     0.00000000  0.22D-15  0.33D-16  6  4    57.34
  22      1.27977700    -0.75097679  -225.81334751     0.00000000    -0.00000000  0.13D-15  0.16D-16  6  6    60.00
  23      1.27977700    -0.75097679  -225.81334751    -0.00000000     0.00000000  0.61D-16  0.99D-17  6  3    62.66
  24      1.27977700    -0.75097679  -225.81334751    -0.00000000    -0.00000000  0.17D-16  0.56D-17  6  5    65.32
  25      1.27977700    -0.75097679  -225.81334751     0.00000000    -0.00000000  0.41D-17  0.30D-17  6  1    67.99
  26      1.27977700    -0.75097679  -225.81334751    -0.00000000    -0.00000000  0.45D-18  0.86D-18  6  4    70.65
  27      1.27977700    -0.75097679  -225.81334751     0.00000000    -0.00000000  0.33D-19  0.18D-18  6  2    73.31
  28      1.27977700    -0.75097679  -225.81334751     0.00000000    -0.00000000  0.18D-19  0.43D-19  6  3    75.98
  29      1.27977700    -0.75097679  -225.81334751     0.00000000    -0.00000000  0.28D-20  0.78D-20  6  6    78.72
  30      1.27977700    -0.75097679  -225.81334751     0.00000000    -0.00000000  0.14D-20  0.14D-20  6  5    81.38

 Norm of t1 vector:      0.11114246      S-energy:     0.00000000      T1 diagnostic:  0.01541269
                                                                       D1 diagnostic:  0.04945656

 Doubles amplitudes (print threshold =  0.500E-01):

         I         J         SYM. A    SYM. B    A         B      T(IJ, AB)

        11        11         1         1         2         2     -0.05760282


 Total CPU time for triples:     37.79 sec


 RESULTS
 =======

  Reference energy                   -225.062370719681
  CCSD singlet pair energy             -0.516906861802
  CCSD triplet pair energy             -0.234069924978
  CCSD correlation energy              -0.750976786777

  Triples (T) contribution             -0.026302847005
  Total correlation energy             -0.777279633783

  CCSD total energy                  -225.813347506458
  CCSD[T] energy                     -225.841258265899
  CCSD-T energy                      -225.839158455431
 !CCSD(T) total energy               -225.839650353463

 Timing summary (sec):

 STEP                 CPU(USER)    SYS     CPU(TOT)    WALL
 Transformation          1.32      0.13      1.45      1.45
 CCSD iterations        80.06      2.41     82.47     82.61
 Triples                37.79      0.89     38.68     38.68

 Program statistics:

 Available memory in ccsd:               999999224
 Min. memory needed in ccsd:               2510565
 Max. memory used in ccsd:                 3320127
 Max. memory used in cckext:               2903072 (30 integral passes)



 **********************************************************************************************************************************
 DATASETS  * FILE   NREC   LENGTH (MB)   RECORD NAMES
              1      20      276.71       500      610      700      900      950      970     1000      129      960     1100   
                                          VAR    BASINP    GEOM    SYMINP    ZMAT    AOBASIS   BASIS     P2S    ABASIS      S 
                                         1400     1410     1200     1210     1080     1600     1650     1300     1700     1380   
                                           T        V       H0       H01     AOSYM     SMH    MOLCAS    ERIS     OPER     JKOP   

              2       3        0.72       700     1000     2100   
                                         GEOM     BASIS     RHF  

 PROGRAMS   *        TOTAL   CCSD(T)       RHF       INT
 CPU TIMES  *       126.91    119.18      4.99      2.61
 REAL TIME  *       132.05 SEC
 DISK USED  *       770.90 MB      
 GA USED    *         0.00 MB       (max)       0.00 MB       (current)
 **********************************************************************************************************************************

        CCSD(T)         RHF-SCF 
   -225.83965035   -225.06237072
 **********************************************************************************************************************************
 Variable memory released
