
 Primary working directories    : /tmp/1213109.2058.gen4.q
 Secondary working directories  : /tmp/1213109.2058.gen4.q
 Wavefunction directory         : /home/vulcan/jj04645/wfu/
 Main file repository           : /tmp/1213109.2058.gen4.q/

 ARCHNAME  : Linux/x86_64
 FC        : /opt/intel/compilers_and_libraries_2016.1.150/linux/bin/intel64/ifort
 FCVERSION : 16.0.1
 BLASLIB   : -mkl
 id        : ccgc

 Nodes     nprocs
 n049         1
 ga_uses_ma=false, calling ma_init with nominal heap.
 GA-space will be limited to   8.0 MW (determined by -G option)

 Using customized tuning parameters: mindgm=10; mindgv=16; mindgc=4; mindgr=1; noblas=0; mincuda=1000; minvec=7
 default implementation of scratch files=df  

 ***,Optimization of neopentane
 memory,1000,m
 gthresh,energy=1.0d-12,orbital=1.0d-10,oneint=1.0d-16,twoint=1.0d-16,optgrad=1.0d-6,compress=1.0d-13
 geomtyp=xyz
 
 
 
 bohr
 geometry = {
  C    0.0000000000    0.0000000000    0.0000000000
  C    2.3654418670    0.0000000000   -1.6726199847
  C    0.0000000000   -2.3654418670    1.6726199847
  C   -0.0000000000    2.3654418670    1.6726199847
  C   -2.3654418670   -0.0000000000   -1.6726199847
  H    2.4088542476    1.6728638369   -2.8862105364
  H   -1.6728638369   -2.4088542476    2.8862105364
  H    1.6728638369    2.4088542476    2.8862105364
  H   -2.4088542476   -1.6728638369   -2.8862105364
  H    4.0917180846    0.0000000000   -0.5104238103
  H    0.0000000000   -4.0817180846    0.5204238103
  H   -0.0000000000    4.0817180846    0.5204238103
  H   -4.0817180846   -0.0000000000   -0.5204238103
  H    2.4088542476   -1.6728638369   -2.8862105364
  H    1.6728638369   -2.4088542476    2.8862105364
  H   -1.6728638369    2.4088542476    2.8862105364
  H   -2.4088542476    1.6728638369   -2.8862105364
 }
 
 basis=VTZ
 {rhf;maxit,200}
 {mp2}

 Variables initialized (661), CPU time= 0.01 sec
 Commands  initialized (458), CPU time= 0.00 sec, 486 directives.
 Default parameters read. Elapsed time= 0.03 sec

 Checking input...
 Passed
1


                                         ***  PROGRAM SYSTEM MOLPRO  ***
                         Copyright, University College Cardiff Consultants Limited, 2008

                                    Version 2010.1 linked May 16 2016 07:17:05


 **********************************************************************************************************************************
 LABEL *   Optimization of neopentane                                                    
 Linux-4.4.3/n049(x86_64) 64 bit mpp version                                             DATE: 07-Dec-24          TIME: 20:38:14  
 **********************************************************************************************************************************

 SHA1:             9e8077add272b0f3cad6f7df79ec5211205f459d
 **********************************************************************************************************************************

 THRESHOLDS:

 ZERO    =  1.00D-12  ONEINT  =  1.00D-16  TWOINT  =  1.00D-16  PREFAC  =  1.00D-14  LOCALI  =  1.00D-09  EORDER  =  1.00D-04
 ENERGY  =  1.00D-12  ETEST   =  0.00D+00  EDENS   =  0.00D+00  THRDEDEF=  1.00D-06  GRADIENT=  1.00D-02  STEP    =  1.00D-03
 ORBITAL =  1.00D-10  CIVEC   =  1.00D-05  COEFF   =  1.00D-04  PRINTCI =  5.00D-02  PUNCHCI =  9.90D+01  OPTGRAD =  1.00D-06
 OPTENERG=  1.00D-06  OPTSTEP =  3.00D-04  THRGRAD =  1.00D-10  COMPRESS=  1.00D-13  VARMIN  =  1.00D-07  VARMAX  =  1.00D-03
 THRDOUB =  0.00D+00  THRDIV  =  1.00D-05  THRRED  =  1.00D-07  THRPSP  =  1.00D+00  THRDC   =  1.00D-10  THRCS   =  1.00D-10
 THRNRM  =  1.00D-08  THREQ   =  0.00D+00  THRDE   =  1.00D+00  THRREF  =  1.00D-05  SPARFAC =  1.00D+00  THRDLP  =  1.00D-07
 THRDIA  =  1.00D-10  THRDLS  =  1.00D-07  THRGPS  =  0.00D+00  THRKEX  =  0.00D+00  THRDIS  =  2.00D-01  THRVAR  =  1.00D-10
 THRLOC  =  1.00D-06  THRGAP  =  1.00D-06  THRLOCT = -1.00D+00  THRGAPT = -1.00D+00  THRORB  =  1.00D-06  THRMLTP =  0.00D+00
 THRCPQCI=  1.00D-10  KEXTA   =  0.00D+00  THRCOARS=  0.00D+00  SYMTOL  =  1.00D-06  GRADTOL =  1.00D-06  THROVL  =  1.00D-08
 THRORTH =  1.00D-08  GRID    =  1.00D-06  GRIDMAX =  1.00D-03  DTMAX   =  0.00D+00

 SETTING GEOMTYP        =    XYZ
 ZUNIT=BOHR
 

 Variable memory set to 1000000000 words,  buffer space   230000 words

 SETTING BASIS          =    VTZ


 Recomputing integrals since basis changed


 Using spherical harmonics

 Library entry C      S cc-pVTZ              selected for orbital group  1
 Library entry C      P cc-pVTZ              selected for orbital group  1
 Library entry C      D cc-pVTZ              selected for orbital group  1
 Library entry C      F cc-pVTZ              selected for orbital group  1
 Library entry H      S cc-pVTZ              selected for orbital group  2
 Library entry H      P cc-pVTZ              selected for orbital group  2
 Library entry H      D cc-pVTZ              selected for orbital group  2

1PROGRAM * SEWARD (Integral evaluation for generally contracted gaussian basis sets)     Author: Roland Lindh, 1990

 Geometry written to block  1 of record 700


 Point group  Cs  



 ATOMIC COORDINATES

 NR  ATOM    CHARGE       X              Y              Z

   1  C       6.00    0.000000000    0.000000000    0.000000000
   2  C       6.00    2.365441867    0.000000000   -1.672619985
   3  C       6.00    0.000000000   -2.365441867    1.672619985
   4  C       6.00    0.000000000    2.365441867    1.672619985
   5  C       6.00   -2.365441867    0.000000000   -1.672619985
   6  H       1.00    2.408854248    1.672863837   -2.886210536
   7  H       1.00    2.408854248   -1.672863837   -2.886210536
   8  H       1.00   -1.672863837   -2.408854248    2.886210536
   9  H       1.00   -1.672863837    2.408854248    2.886210536
  10  H       1.00    1.672863837    2.408854248    2.886210536
  11  H       1.00    1.672863837   -2.408854248    2.886210536
  12  H       1.00   -2.408854248   -1.672863837   -2.886210536
  13  H       1.00   -2.408854248    1.672863837   -2.886210536
  14  H       1.00    4.091718085    0.000000000   -0.510423810
  15  H       1.00    0.000000000   -4.081718085    0.520423810
  16  H       1.00    0.000000000    4.081718085    0.520423810
  17  H       1.00   -4.081718085    0.000000000   -0.520423810

 Bond lengths in Bohr (Angstrom)

 1-2  2.897062795  1-3  2.897062795  1-4  2.897062795  1-5  2.897062795  2-6  2.067162325
     ( 1.533059604)     ( 1.533059604)     ( 1.533059604)     ( 1.533059604)     ( 1.093895190)

  2- 7  2.067162325   2-14  2.081040491   3- 8  2.067162325   3-11  2.067162325   3-15  2.067162325
       ( 1.093895190)       ( 1.101239199)       ( 1.093895190)       ( 1.093895190)       ( 1.093895190)

  4- 9  2.067162325   4-10  2.067162325   4-16  2.067162325   5-12  2.067162325   5-13  2.067162325
       ( 1.093895190)       ( 1.093895190)       ( 1.093895190)       ( 1.093895190)       ( 1.093895190)

  5-17  2.067162325
       ( 1.093895190)

 Bond angles

  1- 2- 6  110.86076877   1- 2- 7  110.86076877   1- 2-14  110.78563963   1- 3- 8  110.86076877

  1- 3-11  110.86076877   1- 3-15  110.86076877   1- 4- 9  110.86076877   1- 4-10  110.86076877

  1- 4-16  110.86076877   1- 5-12  110.86076877   1- 5-13  110.86076877   1- 5-17  110.86076877

  2-1-3  109.47122064   2-1-4  109.47122064   2-1-5  109.47122063   3-1-4  109.47122063

  3- 1- 5  109.47122064   4- 1- 5  109.47122064   6- 2- 7  108.04663875   6- 2-14  108.08606681

  7- 2-14  108.08606681   8- 3-11  108.04663875   8- 3-15  108.04663875   9- 4-10  108.04663875

  9- 4-16  108.04663875  10- 4-16  108.04663875  11- 3-15  108.04663875  12- 5-13  108.04663875

 12- 5-17  108.04663875  13- 5-17  108.04663875

 NUCLEAR CHARGE:                   42
 NUMBER OF PRIMITIVE AOS:         439
 NUMBER OF SYMMETRY AOS:          402
 NUMBER OF CONTRACTIONS:          318   ( 180A'  + 138A"  )
 NUMBER OF CORE ORBITALS:           5   (   4A'  +   1A"  )
 NUMBER OF VALENCE ORBITALS:       32   (  20A'  +  12A"  )


 NUCLEAR REPULSION ENERGY  198.57034035


 Eigenvalues of metric

         1 0.636E-03 0.637E-03 0.824E-03 0.101E-02 0.102E-02 0.125E-02 0.128E-02 0.164E-02
         2 0.637E-03 0.101E-02 0.127E-02 0.127E-02 0.164E-02 0.168E-02 0.232E-02 0.534E-02


 Contracted 2-electron integrals neglected if value below      1.0D-16
 AO integral compression algorithm  1   Integral accuracy      1.0D-16

     4829.217 MB (compressed) written to integral file ( 85.4%)

     Node minimum: 4829.217 MB, node maximum: 4829.217 MB


 NUMBER OF SORTED TWO-ELECTRON INTEGRALS:  647400801.     BUFFER LENGTH:  32768
 NUMBER OF SEGMENTS:  21  SEGMENT LENGTH:   31996000      RECORD LENGTH: 524288

 Memory used in sort:      32.55 MW

 SORT1 READ   706941958. AND WROTE   631122145. INTEGRALS IN   1817 RECORDS. CPU TIME:     9.93 SEC, REAL TIME:    21.81 SEC
 SORT2 READ   631122145. AND WROTE   647400801. INTEGRALS IN  18422 RECORDS. CPU TIME:     5.69 SEC, REAL TIME:    22.56 SEC

 FILE SIZES:   FILE 1:  4648.3 MBYTE,  FILE 4:  7621.1 MBYTE,   TOTAL:  12269.4 MBYTE

 OPERATOR DM      FOR CENTER  0  COORDINATES:    0.000000    0.000000    0.000000


 **********************************************************************************************************************************
 DATASETS  * FILE   NREC   LENGTH (MB)   RECORD NAMES
              1      19     4648.92       500      610      700      900      950      970     1000      129      960     1100   
                                          VAR    BASINP    GEOM    SYMINP    ZMAT    AOBASIS   BASIS     P2S    ABASIS      S 
                                         1400     1410     1200     1210     1080     1600     1650     1300     1700   
                                           T        V       H0       H01     AOSYM     SMH    MOLCAS    ERIS     OPER   

 PROGRAMS   *        TOTAL       INT
 CPU TIMES  *        54.72     54.67
 REAL TIME  *        86.63 SEC
 DISK USED  *        17.10 GB      
 GA USED    *         0.01 MB       (max)       0.00 MB       (current)
 **********************************************************************************************************************************

1PROGRAM * RHF-SCF (CLOSED SHELL)       Authors: W. Meyer, H.-J. Werner


 NUMBER OF ELECTRONS:      21+   21-
 CONVERGENCE THRESHOLDS:    1.00E-10 (Density)    1.00E-13 (Energy)
 MAX. NUMBER OF ITERATIONS:      200
 INTERPOLATION TYPE:            DIIS
 INTERPOLATION STEPS:              2 (START)      1 (STEP)
 LEVEL SHIFTS:                  0.00 (CLOSED)  0.00 (OPEN) 



 Orbital guess generated from atomic densities. Full valence occupancy:   24  13

 Molecular orbital dump at record        2100.2

 Initial alpha occupancy:  14   7
 Initial beta  occupancy:  14   7
 Wave function symmetry:    1

 ITERATION    DDIFF          GRAD             ENERGY        2-EL.EN.            DIPOLE MOMENTS         DIIS
    1      0.000D+00      0.000D+00      -196.32346789    528.132402    0.00256    0.00000    0.00134    0
    2      0.000D+00      0.279D-02      -196.39271461    521.746521   -0.00311    0.00000   -0.00139    1
    3      0.550D-02      0.112D-02      -196.40180774    524.652666   -0.00218    0.00000   -0.00092    2
    4      0.173D-02      0.359D-03      -196.40318547    523.942020   -0.00274    0.00000   -0.00114    3
    5      0.613D-03      0.773D-04      -196.40323364    524.010703   -0.00282    0.00000   -0.00114    4
    6      0.135D-03      0.182D-04      -196.40323668    524.002921   -0.00283    0.00000   -0.00114    5
    7      0.480D-04      0.186D-05      -196.40323674    524.003248   -0.00284    0.00000   -0.00114    6
    8      0.796D-05      0.391D-06      -196.40323674    524.003147   -0.00284    0.00000   -0.00114    6
    9      0.137D-05      0.674D-07      -196.40323674    524.003159   -0.00284    0.00000   -0.00114    6
   10      0.182D-06      0.107D-07      -196.40323674    524.003151   -0.00284    0.00000   -0.00114    5
   11      0.462D-07      0.266D-08      -196.40323674    524.003154   -0.00284    0.00000   -0.00114    5
   12      0.469D-08      0.779D-09      -196.40323674    524.003154   -0.00284    0.00000   -0.00114    6
   13      0.223D-08      0.112D-09      -196.40323674    524.003154   -0.00284    0.00000   -0.00114    6
   14      0.242D-09      0.364D-10      -196.40323674    524.003154   -0.00284    0.00000   -0.00114    6
   15      0.945D-10      0.170D-10      -196.40323674    524.003154   -0.00284    0.00000   -0.00114    0

 Final occupancy:  14   7

 !RHF STATE 1.1 Energy               -196.403236742320
 Nuclear energy                       198.57034035
 One-electron energy                 -656.97515395
 Two-electron energy                  262.00157685
 Virial quotient                       -1.00129623
 !RHF STATE 1.1 Dipole moment          -0.00284265     0.00000000    -0.00113530
 Dipole moment /Debye                  -0.00722482     0.00000000    -0.00288547

 Orbital energies:

         1.1          2.1          3.1          4.1          5.1          6.1          7.1          8.1          9.1         10.1
    -11.229858   -11.208169   -11.207325   -11.207243    -1.102866    -0.927174    -0.926515    -0.728838    -0.609860    -0.609372

        11.1         12.1         13.1         14.1         15.1         16.1
     -0.551493    -0.508366    -0.451700    -0.451461     0.133192     0.186028

         1.2          2.2          3.2          4.2          5.2          6.2          7.2          8.2          9.2
    -11.207264    -0.927137    -0.609875    -0.551876    -0.508995    -0.508956    -0.451654     0.186053     0.199853


 **********************************************************************************************************************************
 DATASETS  * FILE   NREC   LENGTH (MB)   RECORD NAMES
              1      19     4648.92       500      610      700      900      950      970     1000      129      960     1100   
                                          VAR    BASINP    GEOM    SYMINP    ZMAT    AOBASIS   BASIS     P2S    ABASIS      S 
                                         1400     1410     1200     1210     1080     1600     1650     1300     1700   
                                           T        V       H0       H01     AOSYM     SMH    MOLCAS    ERIS     OPER   

              2       3        1.62       700     1000     2100   
                                         GEOM     BASIS     RHF  

 PROGRAMS   *        TOTAL       RHF       INT
 CPU TIMES  *       111.61     56.89     54.67
 REAL TIME  *       151.74 SEC
 DISK USED  *        17.10 GB      
 GA USED    *         0.01 MB       (max)       0.00 MB       (current)
 **********************************************************************************************************************************


1PROGRAM * MP2 (Closed-shell)     Authors: C. Hampel, H.-J. Werner, 1991, M. Deegan, P.J. Knowles, 1992


 Convergence thresholds:  THRVAR = 1.00D-08  THRDEN = 1.00D-12

 Number of core orbitals:           5 (   4   1 )
 Number of closed-shell orbitals:  16 (  10   6 )
 Number of external orbitals:     297 ( 166 131 )

 Molecular orbitals read from record     2100.2  Type=RHF/CANONICAL (state 1.1)

 Number of N-1 electron functions:              16
 Number of N-2 electron functions:             136
 Number of singly external CSFs:              2446
 Number of doubly external CSFs:           5652652
 Total number of CSFs:                     5655099

 Length of J-op  integral file:               0.00 MB
 Length of K-op  integral file:               3.59 MB

 Integral transformation finished. Total CPU:   8.07 sec, npass=  1  Memory used:   8.11 MW

 Memory needed for MP2:                      0.25 MW

 SCS-MP2 correlation energy:           -0.910351109729   (PS=  1.200000  PT=  0.333333)
 SCS-MP2 total energy:               -197.313587852050


  Reference energy                   -196.403236742321
  MP2 singlet pair energy              -0.606292818230
  MP2 triplet pair energy              -0.293785276906
  MP2 correlation energy               -0.900078095136

 !MP2 total energy                   -197.303314837458


 **********************************************************************************************************************************
 DATASETS  * FILE   NREC   LENGTH (MB)   RECORD NAMES
              1      20     4732.99       500      610      700      900      950      970     1000      129      960     1100   
                                          VAR    BASINP    GEOM    SYMINP    ZMAT    AOBASIS   BASIS     P2S    ABASIS      S 
                                         1400     1410     1200     1210     1080     1600     1650     1300     1700     1380   
                                           T        V       H0       H01     AOSYM     SMH    MOLCAS    ERIS     OPER     JKOP   

              2       3        1.62       700     1000     2100   
                                         GEOM     BASIS     RHF  

 PROGRAMS   *        TOTAL       MP2       RHF       INT
 CPU TIMES  *       119.95      8.34     56.89     54.67
 REAL TIME  *       160.88 SEC
 DISK USED  *        17.10 GB      
 GA USED    *         0.01 MB       (max)       0.00 MB       (current)
 **********************************************************************************************************************************

        MP2             RHF-SCF 
   -197.30331484   -196.40323674
 **********************************************************************************************************************************
 Variable memory released
