
 Primary working directories    : /tmp/1049102.695.gen5.q
 Secondary working directories  : /tmp/1049102.695.gen5.q
 Wavefunction directory         : /home/vulcan/mel64643/wfu/
 Main file repository           : /tmp/1049102.695.gen5.q/

 ARCHNAME  : Linux/x86_64
 FC        : /opt/intel/compilers_and_libraries_2016.1.150/linux/bin/intel64/ifort
 FCVERSION : 16.0.1
 BLASLIB   : -mkl
 id        : ccgc

 Nodes     nprocs
 n073         1
 ga_uses_ma=false, calling ma_init with nominal heap.
 GA-space will be limited to   8.0 MW (determined by -G option)

 Using customized tuning parameters: mindgm=10; mindgv=16; mindgc=4; mindgr=1; noblas=0; mincuda=1000; minvec=7
 default implementation of scratch files=df  

 ***,Optimization of h2o_3
 memory,1000,m
 gthresh,energy=1.0d-12,orbital=1.0d-10,oneint=1.0d-16,twoint=1.0d-16,optgrad=1.0d-6,compress=1.0d-13
 geomtyp=xyz
 
 
 
 bohr
 geometry = {
  C    0.9140899376    1.4063732152   -2.2722934371
  C    0.7375941596    2.7100224632    0.0192240924
  C    0.9962975568    1.4066238193    2.3032265542
  C    1.4298985720   -1.2004767525    2.2957124925
  C    1.6071215049   -2.5036343291    0.0042372621
  C    1.3484764861   -1.2000120290   -2.2795610561
  H    0.7044779892    2.4155980477   -4.0420816470
  H    0.3868967832    4.7225342529    0.0250750787
  H    0.8546073731    2.4140558247    4.0752266758
  H    1.6277785676   -2.2107664875    4.0666587155
  H    1.9419871604   -4.5294566062   -0.0016370730
  H    1.4837510562   -2.2129925179   -4.0607224365
  N   -5.4363658447   -0.3541368510   -0.0698721954
  H   -5.5864759274   -1.5675197330   -1.5538349477
  H   -6.0658072628   -1.3139614625    1.4726461850
  H   -3.5633962447   -0.0740404521    0.1980734137
 }
 
 basis=aug-cc-pvdz, H=cc-pvdz
 {rhf;maxit,200}
 {ccsd(t)}

 Variables initialized (661), CPU time= 0.01 sec
 Commands  initialized (458), CPU time= 0.00 sec, 486 directives.
 Default parameters read. Elapsed time= 0.05 sec

 Checking input...
 Passed
1


                                         ***  PROGRAM SYSTEM MOLPRO  ***
                         Copyright, University College Cardiff Consultants Limited, 2008

                                    Version 2010.1 linked May 16 2016 07:17:05


 **********************************************************************************************************************************
 LABEL *   Optimization of h2o_3                                                         
 Linux-4.4.3/n073(x86_64) 64 bit mpp version                                             DATE: 19-Mar-24          TIME: 17:30:37  
 **********************************************************************************************************************************

 SHA1:             9e8077add272b0f3cad6f7df79ec5211205f459d
 **********************************************************************************************************************************

 THRESHOLDS:

 ZERO    =  1.00D-12  ONEINT  =  1.00D-16  TWOINT  =  1.00D-16  PREFAC  =  1.00D-14  LOCALI  =  1.00D-09  EORDER  =  1.00D-04
 ENERGY  =  1.00D-12  ETEST   =  0.00D+00  EDENS   =  0.00D+00  THRDEDEF=  1.00D-06  GRADIENT=  1.00D-02  STEP    =  1.00D-03
 ORBITAL =  1.00D-10  CIVEC   =  1.00D-05  COEFF   =  1.00D-04  PRINTCI =  5.00D-02  PUNCHCI =  9.90D+01  OPTGRAD =  1.00D-06
 OPTENERG=  1.00D-06  OPTSTEP =  3.00D-04  THRGRAD =  1.00D-10  COMPRESS=  1.00D-13  VARMIN  =  1.00D-07  VARMAX  =  1.00D-03
 THRDOUB =  0.00D+00  THRDIV  =  1.00D-05  THRRED  =  1.00D-07  THRPSP  =  1.00D+00  THRDC   =  1.00D-10  THRCS   =  1.00D-10
 THRNRM  =  1.00D-08  THREQ   =  0.00D+00  THRDE   =  1.00D+00  THRREF  =  1.00D-05  SPARFAC =  1.00D+00  THRDLP  =  1.00D-07
 THRDIA  =  1.00D-10  THRDLS  =  1.00D-07  THRGPS  =  0.00D+00  THRKEX  =  0.00D+00  THRDIS  =  2.00D-01  THRVAR  =  1.00D-10
 THRLOC  =  1.00D-06  THRGAP  =  1.00D-06  THRLOCT = -1.00D+00  THRGAPT = -1.00D+00  THRORB  =  1.00D-06  THRMLTP =  0.00D+00
 THRCPQCI=  1.00D-10  KEXTA   =  0.00D+00  THRCOARS=  0.00D+00  SYMTOL  =  1.00D-06  GRADTOL =  1.00D-06  THROVL  =  1.00D-08
 THRORTH =  1.00D-08  GRID    =  1.00D-06  GRIDMAX =  1.00D-03  DTMAX   =  0.00D+00

 SETTING GEOMTYP        =    XYZ
 ZUNIT=BOHR
 

 Variable memory set to 1000000000 words,  buffer space   230000 words

 SETTING BASIS          =    AUG-CC-PVDZ,H=CC-PVDZ


 Recomputing integrals since basis changed


 Using spherical harmonics

 Library entry C      S aug-cc-pVDZ          selected for orbital group  1
 Library entry C      P aug-cc-pVDZ          selected for orbital group  1
 Library entry C      D aug-cc-pVDZ          selected for orbital group  1
 Library entry H      S cc-pVDZ              selected for orbital group  2
 Library entry H      P cc-pVDZ              selected for orbital group  2
 Library entry N      S aug-cc-pVDZ          selected for orbital group  3
 Library entry N      P aug-cc-pVDZ          selected for orbital group  3
 Library entry N      D aug-cc-pVDZ          selected for orbital group  3

1PROGRAM * SEWARD (Integral evaluation for generally contracted gaussian basis sets)     Author: Roland Lindh, 1990

 Geometry written to block  1 of record 700


 Point group  C1  



 ATOMIC COORDINATES

 NR  ATOM    CHARGE       X              Y              Z

   1  C       6.00    0.914089938    1.406373215   -2.272293437
   2  C       6.00    0.737594160    2.710022463    0.019224092
   3  C       6.00    0.996297557    1.406623819    2.303226554
   4  C       6.00    1.429898572   -1.200476752    2.295712492
   5  C       6.00    1.607121505   -2.503634329    0.004237262
   6  C       6.00    1.348476486   -1.200012029   -2.279561056
   7  H       1.00    0.704477989    2.415598048   -4.042081647
   8  H       1.00    0.386896783    4.722534253    0.025075079
   9  H       1.00    0.854607373    2.414055825    4.075226676
  10  H       1.00    1.627778568   -2.210766487    4.066658716
  11  H       1.00    1.941987160   -4.529456606   -0.001637073
  12  H       1.00    1.483751056   -2.212992518   -4.060722436
  13  N       7.00   -5.436365845   -0.354136851   -0.069872195
  14  H       1.00   -5.586475927   -1.567519733   -1.553834948
  15  H       1.00   -6.065807263   -1.313961463    1.472646185
  16  H       1.00   -3.563396245   -0.074040452    0.198073414

 Bond lengths in Bohr (Angstrom)

 1-2  2.642291564  1-6  2.642345271  1-7  2.048077694  2-3  2.642431214  2-8  2.042847666
     ( 1.398240475)     ( 1.398268896)     ( 1.083796038)     ( 1.398314375)     ( 1.081028426)

  3- 4  2.642922567   3- 9  2.043276727   4- 5  2.642061008   4-10  2.048436566   5- 6  2.642359382
       ( 1.398574387)       ( 1.081255476)       ( 1.398118470)       ( 1.083985945)       ( 1.398276363)

  5-11  2.053320582   6-12  2.053524907  13-14  1.922752326  13-15  1.922712339  13-16  1.912658873
       ( 1.086570455)       ( 1.086678579)       ( 1.017476709)       ( 1.017455549)       ( 1.012135484)

 Bond angles

  1- 2- 3  119.98067264   1- 2- 8  120.00017340   1- 6- 5  120.02353241   1- 6-12  119.98613463

  2-1-6  120.00199112   2-1-7  119.96358318   2-3-4  120.01167876   2-3-9  119.97429907

  3- 2- 8  120.01747695   3- 4- 5  120.00136307   3- 4-10  119.99378368   4- 3- 9  120.01369045

  4- 5- 6  119.98073407   4- 5-11  120.00333294   5- 4-10  120.00484854   5- 6-12  119.99031842

  6- 1- 7  120.03368580   6- 5-11  120.01581898  14-13-15  106.17607435  14-13-16  106.08043250

 15-13-16  106.33745582

 NUCLEAR CHARGE:                   52
 NUMBER OF PRIMITIVE AOS:         322
 NUMBER OF SYMMETRY AOS:          308
 NUMBER OF CONTRACTIONS:          206   ( 206A   )
 NUMBER OF CORE ORBITALS:           7   (   7A   )
 NUMBER OF VALENCE ORBITALS:       37   (  37A   )


 NUCLEAR REPULSION ENERGY  273.75762957


 Eigenvalues of metric

         1 0.861E-05 0.184E-04 0.228E-04 0.532E-04 0.642E-04 0.644E-04 0.107E-03 0.107E-03


 Contracted 2-electron integrals neglected if value below      1.0D-16
 AO integral compression algorithm  1   Integral accuracy      1.0D-16

     1892.418 MB (compressed) written to integral file ( 94.5%)

     Node minimum: 1892.418 MB, node maximum: 1892.418 MB


 NUMBER OF SORTED TWO-ELECTRON INTEGRALS:  227303181.     BUFFER LENGTH:  32768
 NUMBER OF SEGMENTS:  15  SEGMENT LENGTH:   15999503      RECORD LENGTH: 524288

 Memory used in sort:      16.56 MW

 SORT1 READ   250230454. AND WROTE   226411445. INTEGRALS IN    654 RECORDS. CPU TIME:     2.51 SEC, REAL TIME:     4.06 SEC
 SORT2 READ   226411445. AND WROTE   227303181. INTEGRALS IN   7219 RECORDS. CPU TIME:     1.55 SEC, REAL TIME:     2.56 SEC

 FILE SIZES:   FILE 1:  1743.4 MBYTE,  FILE 4:  2743.1 MBYTE,   TOTAL:   4486.5 MBYTE

 OPERATOR DM      FOR CENTER  0  COORDINATES:    0.000000    0.000000    0.000000


 **********************************************************************************************************************************
 DATASETS  * FILE   NREC   LENGTH (MB)   RECORD NAMES
              1      19     1743.93       500      610      700      900      950      970     1000      129      960     1100   
                                          VAR    BASINP    GEOM    SYMINP    ZMAT    AOBASIS   BASIS     P2S    ABASIS      S 
                                         1400     1410     1200     1210     1080     1600     1650     1300     1700   
                                           T        V       H0       H01     AOSYM     SMH    MOLCAS    ERIS     OPER   

 PROGRAMS   *        TOTAL       INT
 CPU TIMES  *        15.16     15.11
 REAL TIME  *        19.05 SEC
 DISK USED  *         6.38 GB      
 GA USED    *         0.01 MB       (max)       0.00 MB       (current)
 **********************************************************************************************************************************

1PROGRAM * RHF-SCF (CLOSED SHELL)       Authors: W. Meyer, H.-J. Werner


 NUMBER OF ELECTRONS:      26+   26-    SPACE SYMMETRY=1    SPIN SYMMETRY: Singlet 
 CONVERGENCE THRESHOLDS:    1.00E-10 (Density)    1.00E-13 (Energy)
 MAX. NUMBER OF ITERATIONS:      200
 INTERPOLATION TYPE:            DIIS
 INTERPOLATION STEPS:              2 (START)      1 (STEP)
 LEVEL SHIFTS:                  0.00 (CLOSED)  0.00 (OPEN) 



 Orbital guess generated from atomic densities. Full valence occupancy:   44

 Molecular orbital dump at record        2100.2

 ITERATION    DDIFF          GRAD             ENERGY        2-EL.EN.            DIPOLE MOMENTS         DIIS
    1      0.000D+00      0.000D+00      -286.85315905    740.989057    0.51473   -0.77832    0.13150    0
    2      0.000D+00      0.322D-02      -286.92073954    735.184875    0.43171   -0.38084    0.06435    1
    3      0.826D-02      0.133D-02      -286.93008465    737.821769    0.44913   -0.52351    0.09231    2
    4      0.218D-02      0.381D-03      -286.93130461    737.301029    0.44780   -0.49468    0.08554    3
    5      0.784D-03      0.530D-04      -286.93132860    737.289599    0.45381   -0.50534    0.08920    4
    6      0.135D-03      0.180D-04      -286.93133110    737.304488    0.45265   -0.49954    0.08731    5
    7      0.514D-04      0.559D-05      -286.93133138    737.301500    0.45332   -0.50180    0.08798    6
    8      0.152D-04      0.130D-05      -286.93133140    737.300467    0.45347   -0.50144    0.08787    7
    9      0.421D-05      0.543D-06      -286.93133141    737.300928    0.45351   -0.50153    0.08789    7
   10      0.149D-05      0.143D-06      -286.93133141    737.300876    0.45351   -0.50153    0.08789    7
   11      0.517D-06      0.411D-07      -286.93133141    737.300862    0.45352   -0.50153    0.08789    7
   12      0.142D-06      0.176D-07      -286.93133141    737.300876    0.45352   -0.50153    0.08789    8
   13      0.620D-07      0.775D-08      -286.93133141    737.300870    0.45352   -0.50153    0.08789    8
   14      0.347D-07      0.367D-08      -286.93133141    737.300873    0.45352   -0.50153    0.08789    8
   15      0.205D-07      0.139D-08      -286.93133141    737.300872    0.45352   -0.50153    0.08789    8
   16      0.713D-08      0.460D-09      -286.93133141    737.300872    0.45352   -0.50153    0.08789    9
   17      0.212D-08      0.127D-09      -286.93133141    737.300872    0.45352   -0.50153    0.08789    9
   18      0.432D-09      0.391D-10      -286.93133141    737.300872    0.45352   -0.50153    0.08789    8
   19      0.285D-09      0.150D-10      -286.93133141    737.300872    0.45352   -0.50153    0.08789    9
   20      0.148D-09      0.782D-11      -286.93133141    737.300872    0.45352   -0.50153    0.08789    9
   21      0.132D-09      0.411D-11      -286.93133141    737.300872    0.45352   -0.50153    0.08789    9
   22      0.153D-09      0.121D-11      -286.93133141    737.300872    0.45352   -0.50153    0.08789    9
   23      0.895D-10      0.729D-12      -286.93133141    737.300872    0.45352   -0.50153    0.08789    9
   24      0.111D-09      0.566D-12      -286.93133141    737.300872    0.45352   -0.50153    0.08789    9
   25      0.550D-10      0.671D-12      -286.93133141    737.300872    0.45352   -0.50153    0.08789    9
   26      0.502D-10      0.565D-12      -286.93133141    737.300872    0.45352   -0.50153    0.08789    9
   27      0.202D-10      0.480D-12      -286.93133141    737.300872    0.45352   -0.50153    0.08789    9
   28      0.354D-10      0.416D-12      -286.93133141    737.300872    0.45352   -0.50153    0.08789    9
   29      0.181D-10      0.468D-12      -286.93133141    737.300872    0.45352   -0.50153    0.08789    9
   30      0.154D-10      0.449D-12      -286.93133141    737.300872    0.45352   -0.50153    0.08789    9
   31      0.186D-10      0.558D-12      -286.93133141    737.300872    0.45352   -0.50153    0.08789    9
   32      0.994D-11      0.439D-12      -286.93133141    737.300872    0.45352   -0.50153    0.08789    9
   33      0.128D-10      0.488D-12      -286.93133141    737.300872    0.45352   -0.50153    0.08789    9
   34      0.102D-10      0.544D-12      -286.93133141    737.300872    0.45352   -0.50153    0.08789    9
   35      0.989D-11      0.498D-12      -286.93133141    737.300872    0.45352   -0.50153    0.08789    0

 Final occupancy:  26

 !RHF STATE 1.1 Energy               -286.931331407617
 Nuclear energy                       273.75762957
 One-electron energy                 -929.33939685
 Two-electron energy                  368.65043588
 Virial quotient                       -1.00146459
 !RHF STATE 1.1 Dipole moment           0.45352036    -0.50153192     0.08789041
 Dipole moment /Debye                   1.15265827    -1.27468350     0.22338050

 Orbital energies:

         1.1          2.1          3.1          4.1          5.1          6.1          7.1          8.1          9.1         10.1
    -15.535048   -11.250762   -11.250072   -11.249579   -11.248843   -11.248575   -11.247613    -1.157476    -1.125580    -1.022026

        11.1         12.1         13.1         14.1         15.1         16.1         17.1         18.1         19.1         20.1
     -1.021920    -0.830610    -0.830509    -0.714474    -0.650429    -0.623891    -0.612471    -0.609047    -0.593550    -0.593430

        21.1         22.1         23.1         24.1         25.1         26.1         27.1         28.1
     -0.504904    -0.500074    -0.500001    -0.413485    -0.342945    -0.341947     0.063922     0.066432


 **********************************************************************************************************************************
 DATASETS  * FILE   NREC   LENGTH (MB)   RECORD NAMES
              1      19     1743.93       500      610      700      900      950      970     1000      129      960     1100   
                                          VAR    BASINP    GEOM    SYMINP    ZMAT    AOBASIS   BASIS     P2S    ABASIS      S 
                                         1400     1410     1200     1210     1080     1600     1650     1300     1700   
                                           T        V       H0       H01     AOSYM     SMH    MOLCAS    ERIS     OPER   

              2       3        1.40       700     1000     2100   
                                         GEOM     BASIS     RHF  

 PROGRAMS   *        TOTAL       RHF       INT
 CPU TIMES  *        78.13     62.97     15.11
 REAL TIME  *        89.31 SEC
 DISK USED  *         6.38 GB      
 GA USED    *         0.01 MB       (max)       0.00 MB       (current)
 **********************************************************************************************************************************


1PROGRAM * CCSD (Closed-shell coupled cluster)     Authors: C. Hampel, H.-J. Werner, 1991, M. Deegan, P.J. Knowles, 1992


 Convergence thresholds:  THRVAR = 1.00D-08  THRDEN = 1.00D-12

 CCSD(T)     terms to be evaluated (factor= 1.000)


 Number of core orbitals:           7 (   7 )
 Number of closed-shell orbitals:  19 (  19 )
 Number of external orbitals:     180 ( 180 )

 Molecular orbitals read from record     2100.2  Type=RHF/CANONICAL (state 1.1)

 Number of N-1 electron functions:              19
 Number of N-2 electron functions:             190
 Number of singly external CSFs:              3420
 Number of doubly external CSFs:           5849910
 Total number of CSFs:                     5853331

 Length of J-op  integral file:               0.00 MB
 Length of K-op  integral file:               2.96 MB
 Length of 3-ext integral record:             0.00 MB

 Memory could be reduced to 140.12 Mwords without degradation in triples

 Integral transformation finished. Total CPU:  14.42 sec, npass=  1  Memory used: 101.90 MW

 Reference energy:                   -286.93133141

 MP2 singlet pair energy:              -0.62063719
 MP2 triplet pair energy:              -0.38983371
 MP2 correlation energy:               -1.01047089
 MP2 total energy:                   -287.94180230

 SCS-MP2 correlation energy:           -0.98732782   (PS=  1.200000  PT=  0.333333)
 SCS-MP2 total energy:               -287.91865923

 ITER.      SQ.NORM     CORR.ENERGY   TOTAL ENERGY   ENERGY CHANGE        DEN1      VAR(S)    VAR(P)  DIIS     TIME
   1      1.38488716    -1.05476530  -287.98609670    -0.04429440    -0.01721448  0.36D-02  0.80D-02  1  1    50.62
   2      1.41440178    -1.06062855  -287.99195996    -0.00586325    -0.02705368  0.63D-04  0.10D-02  2  2    87.30
   3      1.42353466    -1.06072447  -287.99205588    -0.00009592    -0.00464444  0.27D-04  0.84D-04  3  3   124.00
   4      1.42747302    -1.06089323  -287.99222464    -0.00016875    -0.00121455  0.22D-05  0.11D-04  4  4   160.79
   5      1.42868678    -1.06092418  -287.99225559    -0.00003095    -0.00027325  0.27D-06  0.13D-05  5  5   197.61
   6      1.42898923    -1.06091395  -287.99224535     0.00001023    -0.00004344  0.23D-07  0.79D-07  6  6   234.45
   7      1.42902994    -1.06091558  -287.99224698    -0.00000163    -0.00000101  0.35D-08  0.82D-08  6  2   271.27
   8      1.42903912    -1.06091543  -287.99224684     0.00000014    -0.00000117  0.75D-09  0.76D-09  6  1   308.10
   9      1.42903895    -1.06091557  -287.99224698    -0.00000014     0.00000123  0.21D-09  0.92D-10  6  4   344.93
  10      1.42904015    -1.06091558  -287.99224699    -0.00000001    -0.00000018  0.57D-10  0.15D-10  6  3   381.76
  11      1.42904010    -1.06091560  -287.99224701    -0.00000002     0.00000013  0.14D-10  0.37D-11  6  5   418.63
  12      1.42904005    -1.06091560  -287.99224701    -0.00000000     0.00000003  0.15D-11  0.10D-11  6  6   455.46
  13      1.42903988    -1.06091560  -287.99224701    -0.00000000     0.00000006  0.70D-13  0.20D-12  6  2   492.19
  14      1.42903978    -1.06091560  -287.99224701    -0.00000000     0.00000002  0.81D-14  0.40D-13  6  1   528.92
  15      1.42903972    -1.06091561  -287.99224701    -0.00000000     0.00000001  0.89D-15  0.53D-14  6  3   565.66
  16      1.42903970    -1.06091561  -287.99224701    -0.00000000     0.00000000  0.12D-15  0.37D-15  6  4   602.41
  17      1.42903969    -1.06091561  -287.99224701    -0.00000000     0.00000000  0.31D-16  0.44D-16  6  5   639.17
  18      1.42903969    -1.06091561  -287.99224701    -0.00000000     0.00000000  0.81D-17  0.71D-17  6  6   675.88
  19      1.42903969    -1.06091561  -287.99224701    -0.00000000     0.00000000  0.24D-17  0.77D-18  6  2   712.63
  20      1.42903969    -1.06091561  -287.99224701    -0.00000000     0.00000000  0.76D-18  0.18D-18  6  1   749.42
  21      1.42903969    -1.06091561  -287.99224701    -0.00000000     0.00000000  0.30D-18  0.77D-19  6  3   786.19
  22      1.42903969    -1.06091561  -287.99224701    -0.00000000     0.00000000  0.11D-18  0.36D-19  6  4   822.95
  23      1.42903969    -1.06091561  -287.99224701    -0.00000000     0.00000000  0.54D-19  0.21D-19  6  6   859.66

 Norm of t1 vector:      0.08386113      S-energy:    -0.00000000      T1 diagnostic:  0.00961953
                                                                       D1 diagnostic:  0.02619972

 Doubles amplitudes (print threshold =  0.500E-01):

         I         J         SYM. A    SYM. B    A         B      T(IJ, AB)

        18        18         1         1         6         6     -0.05097592
        19        19         1         1         7         7     -0.05441234


 Total CPU time for triples:    761.51 sec


 RESULTS
 =======

  Reference energy                   -286.931331407617
  CCSD singlet pair energy             -0.711164531129
  CCSD triplet pair energy             -0.349751074154
  CCSD correlation energy              -1.060915605283

  Triples (T) contribution             -0.045603179663
  Total correlation energy             -1.106518784947

  CCSD total energy                  -287.992247012900
  CCSD[T] energy                     -288.038720485946
  CCSD-T energy                      -288.037461587077
 !CCSD(T) total energy               -288.037850192563

 Timing summary (sec):

 STEP                 CPU(USER)    SYS     CPU(TOT)    WALL
 Transformation         14.84      0.93     15.77     15.77
 CCSD iterations       844.85     13.72    858.57    858.68
 Triples               761.51     13.16    774.67    774.68

 Program statistics:

 Available memory in ccsd:               999998456
 Min. memory needed in ccsd:              14392275
 Max. memory used in ccsd:                19775697
 Max. memory used in cckext:              16737545 (23 integral passes)



 **********************************************************************************************************************************
 DATASETS  * FILE   NREC   LENGTH (MB)   RECORD NAMES
              1      20     2287.54       500      610      700      900      950      970     1000      129      960     1100   
                                          VAR    BASINP    GEOM    SYMINP    ZMAT    AOBASIS   BASIS     P2S    ABASIS      S 
                                         1400     1410     1200     1210     1080     1600     1650     1300     1700     1380   
                                           T        V       H0       H01     AOSYM     SMH    MOLCAS    ERIS     OPER     JKOP   

              2       3        1.40       700     1000     2100   
                                         GEOM     BASIS     RHF  

 PROGRAMS   *        TOTAL   CCSD(T)       RHF       INT
 CPU TIMES  *      1699.34   1621.21     62.97     15.11
 REAL TIME  *      1738.55 SEC
 DISK USED  *         6.38 GB      
 GA USED    *         0.01 MB       (max)       0.00 MB       (current)
 **********************************************************************************************************************************

        CCSD(T)         RHF-SCF 
   -288.03785019   -286.93133141
 **********************************************************************************************************************************
 Variable memory released
