
    -----------------------------------------------------------------------
          Psi4: An Open-Source Ab Initio Electronic Structure Package
                               Psi4 1.4a2.dev629 

                         Git: Rev {master} 2938fc2 dirty


    D. G. A. Smith, L. A. Burns, A. C. Simmonett, R. M. Parrish,
    M. C. Schieber, R. Galvelis, P. Kraus, H. Kruse, R. Di Remigio,
    A. Alenaizan, A. M. James, S. Lehtola, J. P. Misiewicz, M. Scheurer,
    R. A. Shaw, J. B. Schriber, Y. Xie, Z. L. Glick, D. A. Sirianni,
    J. S. O'Brien, J. M. Waldrop, A. Kumar, E. G. Hohenstein,
    B. P. Pritchard, B. R. Brooks, H. F. Schaefer III, A. Yu. Sokolov,
    K. Patkowski, A. E. DePrince III, U. Bozkaya, R. A. King,
    F. A. Evangelista, J. M. Turney, T. D. Crawford, C. D. Sherrill,
    J. Chem. Phys. 152(18) 184108 (2020). https://doi.org/10.1063/5.0006002

                            Additional Code Authors
    E. T. Seidl, C. L. Janssen, E. F. Valeev, M. L. Leininger,
    J. F. Gonthier, R. M. Richard, H. R. McAlexander, M. Saitow, X. Wang,
    P. Verma, and M. H. Lechner

             Previous Authors, Complete List of Code Contributors,
                       and Citations for Specific Modules
    https://github.com/psi4/psi4/blob/master/codemeta.json
    https://github.com/psi4/psi4/graphs/contributors
    http://psicode.org/psi4manual/master/introduction.html#citing-psifour

    -----------------------------------------------------------------------


    Psi4 started on: Friday, 12 November 2021 05:27PM

    Process ID: 73410
    Host:       n073
    PSIDATADIR: /opt/psi/4/master/share/psi4
    Memory:     500.0 MiB
    Threads:    4
    
  ==> Input File <==

--------------------------------------------------------------------------
import os
memory 14 GB 
 
molecule {
 H   -2.7846740767   -0.0000004561   -0.0008154641
 C   -0.7051946677   -0.0000002652   -0.0005264270
 C    0.2013297161   -1.3732020058   -2.3785189198
 C    0.2011310252    2.7457582245   -0.0000636303
 C    0.2009331526   -1.3725568117    2.3772741501
 H    2.2652258804   -1.4102606904   -2.4431503104
 H   -0.4667723696   -0.4319775676   -4.0861355732
 H   -0.4663169934   -3.3236217455   -2.4171974980
 H    2.2683622251    2.8197651263   -0.0005079825
 H   -0.4678771738    3.7563149283    1.6736345481
 H   -0.4687901073    3.7553561180   -1.6720785046
 H    2.2714993632   -1.4095041603    2.4408239975
 H   -0.4703515252   -3.3296861560    2.4152429870
 H   -0.4698939688   -0.4263845384    4.0920186270
units bohr
}

basis {

assign 6-31g_2dfp_

[ 6-31g_2dfp_ ]

spherical

!----------------------------------------------------------------------
! Basis Set Exchange
! Version v0.8.13
! https://www.basissetexchange.org
!----------------------------------------------------------------------
!   Basis set: 6-31G(2df,p)
! Description: 6-31G(2df,p)
!        Role: orbital
!     Version: 0  (Data from the original Basis Set Exchange)
!----------------------------------------------------------------------


****
H     0
S    3   1.00
     18.7311370              0.03349460
      2.8253937              0.23472695
      0.6401217              0.81375733
S    1   1.00
      0.1612778              1.00000000
P    1   1.00
      1.5000000              1.0000000
P    1   1.00
      0.3750000              1.0000000
****
B     0
S    6   1.00
   2068.8823000              0.0018663
    310.6495700              0.0142515
     70.6830330              0.0695516
     19.8610800              0.2325729
      6.2993048              0.4670787
      2.1270270              0.3634314
SP   3   1.00
      4.7279710             -0.1303938              0.0745976
      1.1903377             -0.1307889              0.3078467
      0.3594117              1.1309444              0.7434568
SP   1   1.00
      0.1267512              1.0000000              1.0000000
D    1   1.00
      0.8020000              1.0000000
D    1   1.00
      0.2005000              1.0000000
F    1   1.00
      0.5000000              1.0000000
****
C     0
S    6   1.00
   3047.5249000              0.0018347
    457.3695100              0.0140373
    103.9486900              0.0688426
     29.2101550              0.2321844
      9.2866630              0.4679413
      3.1639270              0.3623120
SP   3   1.00
      7.8682724             -0.1193324              0.0689991
      1.8812885             -0.1608542              0.3164240
      0.5442493              1.1434564              0.7443083
SP   1   1.00
      0.1687144              1.0000000              1.0000000
D    1   1.00
      1.2520000              1.0000000
D    1   1.00
      0.3130000              1.0000000
F    1   1.00
      0.8000000              1.0000000
****
N     0
S    6   1.00
   4173.5110000              0.0018348
    627.4579000              0.0139950
    142.9021000              0.0685870
     40.2343300              0.2322410
     12.8202100              0.4690700
      4.3904370              0.3604550
SP   3   1.00
     11.6263580             -0.1149610              0.0675800
      2.7162800             -0.1691180              0.3239070
      0.7722180              1.1458520              0.7408950
SP   1   1.00
      0.2120313              1.0000000              1.0000000
D    1   1.00
      1.8260000              1.0000000
D    1   1.00
      0.4565000              1.0000000
F    1   1.00
      1.0000000              1.0000000
****
O     0
S    6   1.00
   5484.6717000              0.0018311
    825.2349500              0.0139501
    188.0469600              0.0684451
     52.9645000              0.2327143
     16.8975700              0.4701930
      5.7996353              0.3585209
SP   3   1.00
     15.5396160             -0.1107775              0.0708743
      3.5999336             -0.1480263              0.3397528
      1.0137618              1.1307670              0.7271586
SP   1   1.00
      0.2700058              1.0000000              1.0000000
D    1   1.00
      2.5840000              1.0000000
D    1   1.00
      0.6460000              1.0000000
F    1   1.00
      1.4000000              1.0000000
****
F     0
S    6   1.00
   7001.7130900              0.0018196169
   1051.3660900              0.0139160796
    239.2856900              0.0684053245
     67.3974453              0.233185760
     21.5199573              0.471267439
      7.40310130             0.356618546
SP   3   1.00
     20.8479528             -0.108506975            0.0716287243
      4.80830834            -0.146451658            0.3459121030
      1.34406986             1.128688580            0.7224699570
SP   1   1.00
      0.358151393            1.0000000              1.0000000
D    1   1.00
      3.5000000              1.0000000
D    1   1.00
      0.8750000              1.0000000
F    1   1.00
      1.8500000              1.0000000
****
Al     0
S    6   1.00
  13983.1000000              0.00194267
   2098.7500000              0.0148599
    477.7050000              0.0728494
    134.3600000              0.2468300
     42.8709000              0.4872580
     14.5189000              0.3234960
SP   6   1.00
    239.6680000             -0.00292619             0.00460285
     57.4419000             -0.0374080              0.0331990
     18.2859000             -0.1144870              0.1362820
      6.5991400              0.1156350              0.3304760
      2.4904900              0.6125950              0.4491460
      0.9445400              0.3937990              0.2657040
SP   3   1.00
      1.2779000             -0.2276060             -0.0175130
      0.3975900              0.00144583             0.2445330
      0.1600950              1.0927900              0.8049340
SP   1   1.00
      0.0556577              1.0000000              1.0000000
D    1   1.00
      0.6500000              1.0000000
D    1   1.00
      0.1625000              1.0000000
F    1   1.00
      0.2500000              1.0000000
****
Si     0
S    6   1.00
  16115.9000000              0.00195948
   2425.5800000              0.01492880
    553.8670000              0.07284780
    156.3400000              0.24613000
     50.0683000              0.48591400
     17.0178000              0.32500200
SP   6   1.00
    292.7180000             -0.00278094             0.00443826
     69.8731000             -0.03571460             0.03266790
     22.3363000             -0.11498500             0.13472100
      8.1503900              0.09356340             0.32867800
      3.1345800              0.60301700             0.44964000
      1.2254300              0.41895900             0.26137200
SP   3   1.00
      1.7273800             -0.24463000            -0.01779510
      0.5729220              0.00431572             0.25353900
      0.2221920              1.09818000             0.80066900
SP   1   1.00
      0.0778369              1.00000000             1.00000000
D    1   1.00
      0.9000000              1.0000000
D    1   1.00
      0.2250000              1.0000000
F    1   1.00
      0.3200000              1.0000000
****
P     0
S    6   1.00
  19413.3000000              0.0018516
   2909.4200000              0.0142062
    661.3640000              0.0699995
    185.7590000              0.2400790
     59.1943000              0.4847620
     20.0310000              0.3352000
SP   6   1.00
    339.4780000             -0.00278217             0.00456462
     81.0101000             -0.0360499              0.03369360
     25.8780000             -0.1166310              0.13975500
      9.4522100              0.0968328              0.33936200
      3.6656600              0.6144180              0.45092100
      1.4674600              0.4037980              0.23858600
SP   3   1.00
      2.1562300             -0.2529230             -0.01776530
      0.7489970              0.0328517              0.27405800
      0.2831450              1.0812500              0.78542100
SP   1   1.00
      0.0998317              1.0000000              1.00000000
D    1   1.00
      1.1000000              1.0000000
D    1   1.00
      0.2750000              1.0000000
F    1   1.00
      0.4500000              1.0000000
****
S     0
S    6   1.00
  21917.1000000              0.0018690
   3301.4900000              0.0142300
    754.1460000              0.0696960
    212.7110000              0.2384870
     67.9896000              0.4833070
     23.0515000              0.3380740
SP   6   1.00
    423.7350000             -0.0023767              0.0040610
    100.7100000             -0.0316930              0.0306810
     32.1599000             -0.1133170              0.1304520
     11.8079000              0.0560900              0.3272050
      4.6311000              0.5922550              0.4528510
      1.8702500              0.4550060              0.2560420
SP   3   1.00
      2.6158400             -0.2503740             -0.0145110
      0.9221670              0.0669570              0.3102630
      0.3412870              1.0545100              0.7544830
SP   1   1.00
      0.1171670              1.0000000              1.0000000
D    1   1.00
      1.3000000              1.0000000
D    1   1.00
      0.3250000              1.0000000
F    1   1.00
      0.5500000              1.0000000
****
Cl     0
S    6   1.00
  25180.1000000              0.0018330
   3780.3500000              0.0140340
    860.4740000              0.0690970
    242.1450000              0.2374520
     77.3349000              0.4830340
     26.2470000              0.3398560
SP   6   1.00
    491.7650000             -0.0022974              0.0039894
    116.9840000             -0.0307140              0.0303180
     37.4153000             -0.1125280              0.1298800
     13.7834000              0.0450160              0.3279510
      5.4521500              0.5893530              0.4535270
      2.2258800              0.4652060              0.2521540
SP   3   1.00
      3.1864900             -0.2518300             -0.0142990
      1.1442700              0.0615890              0.3235720
      0.4203770              1.0601800              0.7435070
SP   1   1.00
      0.1426570              1.0000000              1.0000000
D    1   1.00
      1.5000000              1.0000000
D    1   1.00
      0.3750000              1.0000000
F    1   1.00
      0.7000000              1.0000000
****
}


set {
reference rhf                          
freeze_core true
e_convergence 10                       
d_convergence 10                      
dft_spherical_points 1202
dft_radial_points 99
}

e = energy('b3lyp')

print_out('Grab this energy {0}'.format(e))
--------------------------------------------------------------------------

  Memory set to  13.039 GiB by Python driver.

Scratch directory: /tmp/

*** tstart() called on n073
*** at Fri Nov 12 17:27:03 2021

   => Loading Basis Set <=

    Name: ANONYMOUS7F122314
    Role: ORBITAL
    Keyword: BASIS
    atoms 1, 6-14 entry H          line    15 inputblock 6-31g_2dfp_ 
    atoms 2-5     entry C          line    48 inputblock 6-31g_2dfp_ 


         ---------------------------------------------------------
                                   SCF
               by Justin Turney, Rob Parrish, Andy Simmonett
                          and Daniel G. A. Smith
                              RKS Reference
                        4 Threads,  13351 MiB Core
         ---------------------------------------------------------

  ==> Geometry <==

    Molecular point group: c1
    Full point group: C1

    Geometry (in Bohr), charge = 0, multiplicity = 1:

       Center              X                  Y                   Z               Mass       
    ------------   -----------------  -----------------  -----------------  -----------------
         H           -2.784644349141    -0.000000293675    -0.000468195725     1.007825032230
         C           -0.705164940141    -0.000000102775    -0.000179158625    12.000000000000
         C            0.201359443659    -1.373201843375    -2.378171651425    12.000000000000
         C            0.201160752759     2.745758386925     0.000283638075    12.000000000000
         C            0.200962880159    -1.372556649275     2.377621418475    12.000000000000
         H            2.265255607959    -1.410260527975    -2.442803042025     1.007825032230
         H           -0.466742642041    -0.431977405175    -4.085788304825     1.007825032230
         H           -0.466287265841    -3.323621583075    -2.416850229625     1.007825032230
         H            2.268391952659     2.819765288725    -0.000160714125     1.007825032230
         H           -0.467847446241     3.756315090725     1.673981816475     1.007825032230
         H           -0.468760379741     3.755356280425    -1.671731236225     1.007825032230
         H            2.271529090759    -1.409503997875     2.441171265875     1.007825032230
         H           -0.470321797641    -3.329685993575     2.415590255375     1.007825032230
         H           -0.469864241241    -0.426384375975     4.092365895375     1.007825032230

  Running in c1 symmetry.

  Rotational constants: A =      0.26072  B =      0.26058  C =      0.15138 [cm^-1]
  Rotational constants: A =   7816.16070  B =   7812.07762  C =   4538.25521 [MHz]
  Nuclear repulsion =  134.670653343588810

  Charge       = 0
  Multiplicity = 1
  Electrons    = 34
  Nalpha       = 17
  Nbeta        = 17

  ==> Algorithm <==

  SCF Algorithm Type is DF.
  DIIS enabled.
  MOM disabled.
  Fractional occupation disabled.
  Guess Type is SAD.
  Energy threshold   = 1.00e-10
  Density threshold  = 1.00e-10
  Integral threshold = 0.00e+00

  ==> Primary Basis <==

  Basis Set: ANONYMOUS7F122314
    Blend: 6-31G_2DFP_
    Number of shells: 72
    Number of basis function: 184
    Number of Cartesian functions: 204
    Spherical Harmonics?: true
    Max angular momentum: 3

  ==> DFT Potential <==

   => Composite Functional: B3LYP <= 

    B3LYP Hyb-GGA Exchange-Correlation Functional

    P. J. Stephens, F. J. Devlin, C. F. Chabalowski, and M. J. Frisch, J. Phys. Chem. 98, 11623 (1994)

    Deriv               =              1
    GGA                 =           TRUE
    Meta                =          FALSE

    Exchange Hybrid     =           TRUE
    MP2 Hybrid          =          FALSE

   => Exchange Functionals <=

    0.0800   Slater exchange
    0.7200         Becke 88

   => Exact (HF) Exchange <=

    0.2000               HF 

   => Correlation Functionals <=

    0.1900   Vosko, Wilk & Nusair (VWN5_RPA)
    0.8100   Lee, Yang & Parr

   => Molecular Quadrature <=

    Radial Scheme          =       TREUTLER
    Pruning Scheme         =           NONE
    Nuclear Scheme         =       TREUTLER

    BS radius alpha        =              1
    Pruning alpha          =              1
    Radial Points          =             99
    Spherical Points       =           1202
    Total Points           =        1546630
    Total Blocks           =          10368
    Max Points             =            256
    Max Functions          =            184
    Weights Tolerance      =       1.00E-15

   => Loading Basis Set <=

    Name: (ANONYMOUS7F122314 AUX)
    Role: JKFIT
    Keyword: DF_BASIS_SCF
    atoms 1, 6-14 entry H          line    18 file /opt/psi/4/master/share/psi4/basis/def2-universal-jkfit.gbs 
    atoms 2-5     entry C          line   198 file /opt/psi/4/master/share/psi4/basis/def2-universal-jkfit.gbs 

  ==> Integral Setup <==

  DFHelper Memory: AOs need 0.129 GiB; user supplied 3.158 GiB. Using in-core AOs.

  ==> MemDFJK: Density-Fitted J/K Matrices <==

    J tasked:                   Yes
    K tasked:                   Yes
    wK tasked:                   No
    OpenMP threads:               4
    Memory [MiB]:              3233
    Algorithm:                 Core
    Schwarz Cutoff:           1E-12
    Mask sparsity (%):       1.1697
    Fitting Condition:        1E-10

   => Auxiliary Basis Set <=

  Basis Set: (ANONYMOUS7F122314 AUX)
    Blend: DEF2-UNIVERSAL-JKFIT
    Number of shells: 160
    Number of basis function: 480
    Number of Cartesian functions: 556
    Spherical Harmonics?: true
    Max angular momentum: 4

  Cached 100.0% of DFT collocation blocks in 6.621 [GiB].

  Minimum eigenvalue in the overlap matrix is 1.3320787938E-03.
  Reciprocal condition number of the overlap matrix is 2.1043441360E-04.
    Using symmetric orthogonalization.

  ==> Pre-Iterations <==

  SCF Guess: Superposition of Atomic Densities via on-the-fly atomic UHF (no occupation information).

   -------------------------
    Irrep   Nso     Nmo    
   -------------------------
     A        184     184 
   -------------------------
    Total     184     184
   -------------------------

  ==> Iterations <==

                           Total Energy        Delta E     RMS |[F,P]|

   @DF-RKS iter SAD:  -157.73807179652391   -1.57738e+02   0.00000e+00 
   @DF-RKS iter   1:  -158.05177933794965   -3.13708e-01   4.78764e-03 DIIS
   @DF-RKS iter   2:  -157.82355901371619    2.28220e-01   5.82167e-03 DIIS
   @DF-RKS iter   3:  -158.47122993611237   -6.47671e-01   4.70581e-04 DIIS
   @DF-RKS iter   4:  -158.47411991072678   -2.88997e-03   2.27850e-04 DIIS
   @DF-RKS iter   5:  -158.47493527061584   -8.15360e-04   3.51660e-05 DIIS
   @DF-RKS iter   6:  -158.47495465293107   -1.93823e-05   7.04320e-06 DIIS
   @DF-RKS iter   7:  -158.47495561365736   -9.60726e-07   1.32846e-06 DIIS
   @DF-RKS iter   8:  -158.47495564979252   -3.61352e-08   5.10400e-08 DIIS
   @DF-RKS iter   9:  -158.47495564984345   -5.09317e-11   9.09892e-09 DIIS
   @DF-RKS iter  10:  -158.47495564984413   -6.82121e-13   6.04731e-09 DIIS
   @DF-RKS iter  11:  -158.47495564984462   -4.83169e-13   9.79569e-10 DIIS
   @DF-RKS iter  12:  -158.47495564984476   -1.42109e-13   6.63016e-11 DIIS
  Energy and wave function converged.


  ==> Post-Iterations <==

    Orbital Energies [Eh]
    ---------------------

    Doubly Occupied:                                                      

       1A    -10.178594     2A    -10.163058     3A    -10.162468  
       4A    -10.161877     5A     -0.798688     6A     -0.678006  
       7A     -0.677373     8A     -0.555119     9A     -0.459344  
      10A     -0.426735    11A     -0.426539    12A     -0.379143  
      13A     -0.378738    14A     -0.359078    15A     -0.323013  
      16A     -0.322973    17A     -0.318924  

    Virtual:                                                              

      18A      0.073444    19A      0.121722    20A      0.136971  
      21A      0.137118    22A      0.148197    23A      0.148626  
      24A      0.160914    25A      0.187754    26A      0.188356  
      27A      0.213790    28A      0.216219    29A      0.242140  
      30A      0.242147    31A      0.392947    32A      0.393026  
      33A      0.395848    34A      0.421982    35A      0.422166  
      36A      0.445651    37A      0.485079    38A      0.485185  
      39A      0.534222    40A      0.564859    41A      0.565249  
      42A      0.568067    43A      0.588935    44A      0.589400  
      45A      0.614591    46A      0.615631    47A      0.616314  
      48A      0.628195    49A      0.630912    50A      0.654716  
      51A      0.655186    52A      0.673832    53A      0.674591  
      54A      0.675670    55A      0.795635    56A      0.795931  
      57A      0.863661    58A      0.897139    59A      0.897586  
      60A      0.944945    61A      0.954677    62A      0.999631  
      63A      1.000288    64A      1.056171    65A      1.056344  
      66A      1.056559    67A      1.070809    68A      1.134688  
      69A      1.169380    70A      1.170057    71A      1.214803  
      72A      1.214823    73A      1.270367    74A      1.298721  
      75A      1.298801    76A      1.316697    77A      1.316826  
      78A      1.328753    79A      1.377807    80A      1.378222  
      81A      1.399073    82A      1.414641    83A      1.415167  
      84A      1.425740    85A      1.474369    86A      1.497209  
      87A      1.503011    88A      1.503900    89A      1.538005  
      90A      1.582030    91A      1.582070    92A      1.672299  
      93A      1.673344    94A      1.680558    95A      1.705472  
      96A      1.705684    97A      1.784772    98A      1.796086  
      99A      1.834388   100A      1.837368   101A      2.009529  
     102A      2.010901   103A      2.027796   104A      2.075029  
     105A      2.076169   106A      2.289599   107A      2.724051  
     108A      2.724780   109A      2.825535   110A      2.826176  
     111A      2.869867   112A      2.870420   113A      2.931839  
     114A      2.932014   115A      2.947580   116A      2.947674  
     117A      2.947794   118A      2.974438   119A      3.003597  
     120A      3.003988   121A      3.137996   122A      3.163983  
     123A      3.167411   124A      3.167490   125A      3.250648  
     126A      3.385693   127A      3.386026   128A      3.424103  
     129A      3.460415   130A      3.470183   131A      3.470453  
     132A      3.511832   133A      3.513099   134A      3.562825  
     135A      3.563947   136A      3.597189   137A      3.613978  
     138A      3.620911   139A      3.621116   140A      3.679450  
     141A      3.682172   142A      3.721304   143A      3.721605  
     144A      3.723502   145A      3.889268   146A      3.896848  
     147A      3.897060   148A      4.045376   149A      4.108325  
     150A      4.109903   151A      4.129498   152A      4.147424  
     153A      4.149058   154A      4.171589   155A      4.193201  
     156A      4.215998   157A      4.217986   158A      4.261380  
     159A      4.265042   160A      4.377498   161A      4.379428  
     162A      4.383021   163A      4.481509   164A      4.514706  
     165A      4.515334   166A      4.533565   167A      4.568412  
     168A      4.570186   169A      4.607930   170A      4.659763  
     171A      4.660959   172A      4.735634   173A      4.735795  
     174A      4.755529   175A      4.980591   176A      5.004762  
     177A      5.006221   178A      5.172516   179A      5.252144  
     180A      5.259682   181A      5.327871   182A      5.363448  
     183A      5.369868   184A      5.390219  

    Final Occupation by Irrep:
              A 
    DOCC [    17 ]

  @DF-RKS Final Energy:  -158.47495564984476

   => Energetics <=

    Nuclear Repulsion Energy =            134.6706533435888105
    One-Electron Energy =                -477.9151724810120641
    Two-Electron Energy =                 205.4046175775060306
    DFT Exchange-Correlation Energy =     -20.6350540899275323
    Empirical Dispersion Energy =           0.0000000000000000
    VV10 Nonlocal Energy =                  0.0000000000000000
    Total Energy =                       -158.4749556498447589

Computation Completed


Properties will be evaluated at   0.000000,   0.000000,   0.000000 [a0]

Properties computed using the SCF density matrix

  Nuclear Dipole Moment: [e a0]
     X:     0.6006      Y:     0.0000      Z:     0.0026

  Electronic Dipole Moment: [e a0]
     X:    -0.6339      Y:     0.0000      Z:    -0.0049

  Dipole Moment: [e a0]
     X:    -0.0333      Y:     0.0000      Z:    -0.0023     Total:     0.0334

  Dipole Moment: [D]
     X:    -0.0846      Y:     0.0000      Z:    -0.0059     Total:     0.0848


*** tstop() called on n073 at Fri Nov 12 17:27:34 2021
Module time:
	user time   =     122.13 seconds =       2.04 minutes
	system time =       2.02 seconds =       0.03 minutes
	total time  =         31 seconds =       0.52 minutes
Total time:
	user time   =     122.13 seconds =       2.04 minutes
	system time =       2.02 seconds =       0.03 minutes
	total time  =         31 seconds =       0.52 minutes
Grab this energy -158.47495564984476
    Psi4 stopped on: Friday, 12 November 2021 05:27PM
    Psi4 wall time for execution: 0:00:31.96

*** Psi4 exiting successfully. Buy a developer a beer!
