
    -----------------------------------------------------------------------
          Psi4: An Open-Source Ab Initio Electronic Structure Package
                               Psi4 1.4a2.dev629 

                         Git: Rev {master} 2938fc2 dirty


    D. G. A. Smith, L. A. Burns, A. C. Simmonett, R. M. Parrish,
    M. C. Schieber, R. Galvelis, P. Kraus, H. Kruse, R. Di Remigio,
    A. Alenaizan, A. M. James, S. Lehtola, J. P. Misiewicz, M. Scheurer,
    R. A. Shaw, J. B. Schriber, Y. Xie, Z. L. Glick, D. A. Sirianni,
    J. S. O'Brien, J. M. Waldrop, A. Kumar, E. G. Hohenstein,
    B. P. Pritchard, B. R. Brooks, H. F. Schaefer III, A. Yu. Sokolov,
    K. Patkowski, A. E. DePrince III, U. Bozkaya, R. A. King,
    F. A. Evangelista, J. M. Turney, T. D. Crawford, C. D. Sherrill,
    J. Chem. Phys. 152(18) 184108 (2020). https://doi.org/10.1063/5.0006002

                            Additional Code Authors
    E. T. Seidl, C. L. Janssen, E. F. Valeev, M. L. Leininger,
    J. F. Gonthier, R. M. Richard, H. R. McAlexander, M. Saitow, X. Wang,
    P. Verma, and M. H. Lechner

             Previous Authors, Complete List of Code Contributors,
                       and Citations for Specific Modules
    https://github.com/psi4/psi4/blob/master/codemeta.json
    https://github.com/psi4/psi4/graphs/contributors
    http://psicode.org/psi4manual/master/introduction.html#citing-psifour

    -----------------------------------------------------------------------


    Psi4 started on: Friday, 12 November 2021 04:34PM

    Process ID: 8965
    Host:       n086
    PSIDATADIR: /opt/psi/4/master/share/psi4
    Memory:     500.0 MiB
    Threads:    4
    
  ==> Input File <==

--------------------------------------------------------------------------
import os
memory 14 GB 
 
molecule {
 H   -2.7757871513    0.0008151532   -0.0000003260
 C   -0.7045476313    0.0005269129   -0.0000008110
 C    0.2008527287   -1.3713171152   -2.3783642700
 C    0.2011972393    2.7465949225    0.0015300625
 C    0.2008534735   -1.3739682786    2.3768311980
 H    2.2679925570   -1.4089822248   -2.4401226363
 H   -0.4703808166   -0.4286325148   -4.0908723420
 H   -0.4691864557   -3.3304677214   -2.4162163740
 H    2.2625608448    2.8197720640   -0.0005883447
 H   -0.4668832838    3.7559491350    1.6688377316
 H   -0.4664855549    3.7557490133   -1.6694187804
 H    2.2679925193   -1.4079534465    2.4407140141
 H   -0.4695892504   -3.3300643437    2.4166877189
 H   -0.4699787387   -0.4280215560    4.0909831593
units bohr
}

basis {

assign 6-31g_2dfp_

[ 6-31g_2dfp_ ]

spherical

!----------------------------------------------------------------------
! Basis Set Exchange
! Version v0.8.13
! https://www.basissetexchange.org
!----------------------------------------------------------------------
!   Basis set: 6-31G(2df,p)
! Description: 6-31G(2df,p)
!        Role: orbital
!     Version: 0  (Data from the original Basis Set Exchange)
!----------------------------------------------------------------------


****
H     0
S    3   1.00
     18.7311370              0.03349460
      2.8253937              0.23472695
      0.6401217              0.81375733
S    1   1.00
      0.1612778              1.00000000
P    1   1.00
      1.5000000              1.0000000
P    1   1.00
      0.3750000              1.0000000
****
B     0
S    6   1.00
   2068.8823000              0.0018663
    310.6495700              0.0142515
     70.6830330              0.0695516
     19.8610800              0.2325729
      6.2993048              0.4670787
      2.1270270              0.3634314
SP   3   1.00
      4.7279710             -0.1303938              0.0745976
      1.1903377             -0.1307889              0.3078467
      0.3594117              1.1309444              0.7434568
SP   1   1.00
      0.1267512              1.0000000              1.0000000
D    1   1.00
      0.8020000              1.0000000
D    1   1.00
      0.2005000              1.0000000
F    1   1.00
      0.5000000              1.0000000
****
C     0
S    6   1.00
   3047.5249000              0.0018347
    457.3695100              0.0140373
    103.9486900              0.0688426
     29.2101550              0.2321844
      9.2866630              0.4679413
      3.1639270              0.3623120
SP   3   1.00
      7.8682724             -0.1193324              0.0689991
      1.8812885             -0.1608542              0.3164240
      0.5442493              1.1434564              0.7443083
SP   1   1.00
      0.1687144              1.0000000              1.0000000
D    1   1.00
      1.2520000              1.0000000
D    1   1.00
      0.3130000              1.0000000
F    1   1.00
      0.8000000              1.0000000
****
N     0
S    6   1.00
   4173.5110000              0.0018348
    627.4579000              0.0139950
    142.9021000              0.0685870
     40.2343300              0.2322410
     12.8202100              0.4690700
      4.3904370              0.3604550
SP   3   1.00
     11.6263580             -0.1149610              0.0675800
      2.7162800             -0.1691180              0.3239070
      0.7722180              1.1458520              0.7408950
SP   1   1.00
      0.2120313              1.0000000              1.0000000
D    1   1.00
      1.8260000              1.0000000
D    1   1.00
      0.4565000              1.0000000
F    1   1.00
      1.0000000              1.0000000
****
O     0
S    6   1.00
   5484.6717000              0.0018311
    825.2349500              0.0139501
    188.0469600              0.0684451
     52.9645000              0.2327143
     16.8975700              0.4701930
      5.7996353              0.3585209
SP   3   1.00
     15.5396160             -0.1107775              0.0708743
      3.5999336             -0.1480263              0.3397528
      1.0137618              1.1307670              0.7271586
SP   1   1.00
      0.2700058              1.0000000              1.0000000
D    1   1.00
      2.5840000              1.0000000
D    1   1.00
      0.6460000              1.0000000
F    1   1.00
      1.4000000              1.0000000
****
F     0
S    6   1.00
   7001.7130900              0.0018196169
   1051.3660900              0.0139160796
    239.2856900              0.0684053245
     67.3974453              0.233185760
     21.5199573              0.471267439
      7.40310130             0.356618546
SP   3   1.00
     20.8479528             -0.108506975            0.0716287243
      4.80830834            -0.146451658            0.3459121030
      1.34406986             1.128688580            0.7224699570
SP   1   1.00
      0.358151393            1.0000000              1.0000000
D    1   1.00
      3.5000000              1.0000000
D    1   1.00
      0.8750000              1.0000000
F    1   1.00
      1.8500000              1.0000000
****
Al     0
S    6   1.00
  13983.1000000              0.00194267
   2098.7500000              0.0148599
    477.7050000              0.0728494
    134.3600000              0.2468300
     42.8709000              0.4872580
     14.5189000              0.3234960
SP   6   1.00
    239.6680000             -0.00292619             0.00460285
     57.4419000             -0.0374080              0.0331990
     18.2859000             -0.1144870              0.1362820
      6.5991400              0.1156350              0.3304760
      2.4904900              0.6125950              0.4491460
      0.9445400              0.3937990              0.2657040
SP   3   1.00
      1.2779000             -0.2276060             -0.0175130
      0.3975900              0.00144583             0.2445330
      0.1600950              1.0927900              0.8049340
SP   1   1.00
      0.0556577              1.0000000              1.0000000
D    1   1.00
      0.6500000              1.0000000
D    1   1.00
      0.1625000              1.0000000
F    1   1.00
      0.2500000              1.0000000
****
Si     0
S    6   1.00
  16115.9000000              0.00195948
   2425.5800000              0.01492880
    553.8670000              0.07284780
    156.3400000              0.24613000
     50.0683000              0.48591400
     17.0178000              0.32500200
SP   6   1.00
    292.7180000             -0.00278094             0.00443826
     69.8731000             -0.03571460             0.03266790
     22.3363000             -0.11498500             0.13472100
      8.1503900              0.09356340             0.32867800
      3.1345800              0.60301700             0.44964000
      1.2254300              0.41895900             0.26137200
SP   3   1.00
      1.7273800             -0.24463000            -0.01779510
      0.5729220              0.00431572             0.25353900
      0.2221920              1.09818000             0.80066900
SP   1   1.00
      0.0778369              1.00000000             1.00000000
D    1   1.00
      0.9000000              1.0000000
D    1   1.00
      0.2250000              1.0000000
F    1   1.00
      0.3200000              1.0000000
****
P     0
S    6   1.00
  19413.3000000              0.0018516
   2909.4200000              0.0142062
    661.3640000              0.0699995
    185.7590000              0.2400790
     59.1943000              0.4847620
     20.0310000              0.3352000
SP   6   1.00
    339.4780000             -0.00278217             0.00456462
     81.0101000             -0.0360499              0.03369360
     25.8780000             -0.1166310              0.13975500
      9.4522100              0.0968328              0.33936200
      3.6656600              0.6144180              0.45092100
      1.4674600              0.4037980              0.23858600
SP   3   1.00
      2.1562300             -0.2529230             -0.01776530
      0.7489970              0.0328517              0.27405800
      0.2831450              1.0812500              0.78542100
SP   1   1.00
      0.0998317              1.0000000              1.00000000
D    1   1.00
      1.1000000              1.0000000
D    1   1.00
      0.2750000              1.0000000
F    1   1.00
      0.4500000              1.0000000
****
S     0
S    6   1.00
  21917.1000000              0.0018690
   3301.4900000              0.0142300
    754.1460000              0.0696960
    212.7110000              0.2384870
     67.9896000              0.4833070
     23.0515000              0.3380740
SP   6   1.00
    423.7350000             -0.0023767              0.0040610
    100.7100000             -0.0316930              0.0306810
     32.1599000             -0.1133170              0.1304520
     11.8079000              0.0560900              0.3272050
      4.6311000              0.5922550              0.4528510
      1.8702500              0.4550060              0.2560420
SP   3   1.00
      2.6158400             -0.2503740             -0.0145110
      0.9221670              0.0669570              0.3102630
      0.3412870              1.0545100              0.7544830
SP   1   1.00
      0.1171670              1.0000000              1.0000000
D    1   1.00
      1.3000000              1.0000000
D    1   1.00
      0.3250000              1.0000000
F    1   1.00
      0.5500000              1.0000000
****
Cl     0
S    6   1.00
  25180.1000000              0.0018330
   3780.3500000              0.0140340
    860.4740000              0.0690970
    242.1450000              0.2374520
     77.3349000              0.4830340
     26.2470000              0.3398560
SP   6   1.00
    491.7650000             -0.0022974              0.0039894
    116.9840000             -0.0307140              0.0303180
     37.4153000             -0.1125280              0.1298800
     13.7834000              0.0450160              0.3279510
      5.4521500              0.5893530              0.4535270
      2.2258800              0.4652060              0.2521540
SP   3   1.00
      3.1864900             -0.2518300             -0.0142990
      1.1442700              0.0615890              0.3235720
      0.4203770              1.0601800              0.7435070
SP   1   1.00
      0.1426570              1.0000000              1.0000000
D    1   1.00
      1.5000000              1.0000000
D    1   1.00
      0.3750000              1.0000000
F    1   1.00
      0.7000000              1.0000000
****
}


set {
reference rhf                          
freeze_core true
e_convergence 10                       
d_convergence 10                      
dft_spherical_points 1202
dft_radial_points 99
}

e = energy('b3lyp')

print_out('Grab this energy {0}'.format(e))
--------------------------------------------------------------------------

  Memory set to  13.039 GiB by Python driver.

Scratch directory: /tmp/

*** tstart() called on n086
*** at Fri Nov 12 16:34:17 2021

   => Loading Basis Set <=

    Name: ANONYMOUSADEB366B
    Role: ORBITAL
    Keyword: BASIS
    atoms 1, 6-14 entry H          line    15 inputblock 6-31g_2dfp_ 
    atoms 2-5     entry C          line    48 inputblock 6-31g_2dfp_ 


         ---------------------------------------------------------
                                   SCF
               by Justin Turney, Rob Parrish, Andy Simmonett
                          and Daniel G. A. Smith
                              RKS Reference
                        4 Threads,  13351 MiB Core
         ---------------------------------------------------------

  ==> Geometry <==

    Molecular point group: c1
    Full point group: C1

    Geometry (in Bohr), charge = 0, multiplicity = 1:

       Center              X                  Y                   Z               Mass       
    ------------   -----------------  -----------------  -----------------  -----------------
         H           -2.775787059594     0.000467579243     0.000000397087     1.007825032230
         C           -0.704547539594     0.000179338943    -0.000000087913    12.000000000000
         C            0.200852820406    -1.371664689157    -2.378363546913    12.000000000000
         C            0.201197331006     2.746247348543     0.001530785587    12.000000000000
         C            0.200853565206    -1.374315852557     2.376831921087    12.000000000000
         H            2.267992648706    -1.409329798757    -2.440121913213     1.007825032230
         H           -0.470380724894    -0.428980088757    -4.090871618913     1.007825032230
         H           -0.469186363994    -3.330815295357    -2.416215650913     1.007825032230
         H            2.262560936506     2.819424490043    -0.000587621613     1.007825032230
         H           -0.466883192094     3.755601561043     1.668838454687     1.007825032230
         H           -0.466485463194     3.755401439343    -1.669418057313     1.007825032230
         H            2.267992611006    -1.408301020457     2.440714737187     1.007825032230
         H           -0.469589158694    -3.330411917657     2.416688441987     1.007825032230
         H           -0.469978646994    -0.428369129957     4.090983882387     1.007825032230

  Running in c1 symmetry.

  Rotational constants: A =      0.26080  B =      0.26066  C =      0.15137 [cm^-1]
  Rotational constants: A =   7818.60520  B =   7814.52070  C =   4537.83440 [MHz]
  Nuclear repulsion =  134.696904708290447

  Charge       = 0
  Multiplicity = 1
  Electrons    = 34
  Nalpha       = 17
  Nbeta        = 17

  ==> Algorithm <==

  SCF Algorithm Type is DF.
  DIIS enabled.
  MOM disabled.
  Fractional occupation disabled.
  Guess Type is SAD.
  Energy threshold   = 1.00e-10
  Density threshold  = 1.00e-10
  Integral threshold = 0.00e+00

  ==> Primary Basis <==

  Basis Set: ANONYMOUSADEB366B
    Blend: 6-31G_2DFP_
    Number of shells: 72
    Number of basis function: 184
    Number of Cartesian functions: 204
    Spherical Harmonics?: true
    Max angular momentum: 3

  ==> DFT Potential <==

   => Composite Functional: B3LYP <= 

    B3LYP Hyb-GGA Exchange-Correlation Functional

    P. J. Stephens, F. J. Devlin, C. F. Chabalowski, and M. J. Frisch, J. Phys. Chem. 98, 11623 (1994)

    Deriv               =              1
    GGA                 =           TRUE
    Meta                =          FALSE

    Exchange Hybrid     =           TRUE
    MP2 Hybrid          =          FALSE

   => Exchange Functionals <=

    0.0800   Slater exchange
    0.7200         Becke 88

   => Exact (HF) Exchange <=

    0.2000               HF 

   => Correlation Functionals <=

    0.1900   Vosko, Wilk & Nusair (VWN5_RPA)
    0.8100   Lee, Yang & Parr

   => Molecular Quadrature <=

    Radial Scheme          =       TREUTLER
    Pruning Scheme         =           NONE
    Nuclear Scheme         =       TREUTLER

    BS radius alpha        =              1
    Pruning alpha          =              1
    Radial Points          =             99
    Spherical Points       =           1202
    Total Points           =        1546482
    Total Blocks           =          10319
    Max Points             =            256
    Max Functions          =            184
    Weights Tolerance      =       1.00E-15

   => Loading Basis Set <=

    Name: (ANONYMOUSADEB366B AUX)
    Role: JKFIT
    Keyword: DF_BASIS_SCF
    atoms 1, 6-14 entry H          line    18 file /opt/psi/4/master/share/psi4/basis/def2-universal-jkfit.gbs 
    atoms 2-5     entry C          line   198 file /opt/psi/4/master/share/psi4/basis/def2-universal-jkfit.gbs 

  ==> Integral Setup <==

  DFHelper Memory: AOs need 0.129 GiB; user supplied 3.151 GiB. Using in-core AOs.

  ==> MemDFJK: Density-Fitted J/K Matrices <==

    J tasked:                   Yes
    K tasked:                   Yes
    wK tasked:                   No
    OpenMP threads:               4
    Memory [MiB]:              3226
    Algorithm:                 Core
    Schwarz Cutoff:           1E-12
    Mask sparsity (%):       1.1697
    Fitting Condition:        1E-10

   => Auxiliary Basis Set <=

  Basis Set: (ANONYMOUSADEB366B AUX)
    Blend: DEF2-UNIVERSAL-JKFIT
    Number of shells: 160
    Number of basis function: 480
    Number of Cartesian functions: 556
    Spherical Harmonics?: true
    Max angular momentum: 4

  Cached 100.0% of DFT collocation blocks in 6.628 [GiB].

  Minimum eigenvalue in the overlap matrix is 1.3314106209E-03.
  Reciprocal condition number of the overlap matrix is 2.1019688119E-04.
    Using symmetric orthogonalization.

  ==> Pre-Iterations <==

  SCF Guess: Superposition of Atomic Densities via on-the-fly atomic UHF (no occupation information).

   -------------------------
    Irrep   Nso     Nmo    
   -------------------------
     A        184     184 
   -------------------------
    Total     184     184
   -------------------------

  ==> Iterations <==

                           Total Energy        Delta E     RMS |[F,P]|

   @DF-RKS iter SAD:  -157.74015515438657   -1.57740e+02   0.00000e+00 
   @DF-RKS iter   1:  -158.05178700144469   -3.11632e-01   4.78763e-03 DIIS
   @DF-RKS iter   2:  -157.82409681072897    2.27690e-01   5.81979e-03 DIIS
   @DF-RKS iter   3:  -158.47125003847856   -6.47153e-01   4.68925e-04 DIIS
   @DF-RKS iter   4:  -158.47411737255055   -2.86733e-03   2.27289e-04 DIIS
   @DF-RKS iter   5:  -158.47492844039365   -8.11068e-04   3.51484e-05 DIIS
   @DF-RKS iter   6:  -158.47494778820632   -1.93478e-05   7.02933e-06 DIIS
   @DF-RKS iter   7:  -158.47494874436359   -9.56157e-07   1.32742e-06 DIIS
   @DF-RKS iter   8:  -158.47494878039660   -3.60330e-08   5.09802e-08 DIIS
   @DF-RKS iter   9:  -158.47494878044742   -5.08180e-11   9.01830e-09 DIIS
   @DF-RKS iter  10:  -158.47494878044810   -6.82121e-13   5.95696e-09 DIIS
   @DF-RKS iter  11:  -158.47494878044887   -7.67386e-13   9.89845e-10 DIIS
   @DF-RKS iter  12:  -158.47494878044864    2.27374e-13   6.62559e-11 DIIS
  Energy and wave function converged.


  ==> Post-Iterations <==

    Orbital Energies [Eh]
    ---------------------

    Doubly Occupied:                                                      

       1A    -10.178080     2A    -10.162771     3A    -10.162739  
       4A    -10.161733     5A     -0.798838     6A     -0.678005  
       7A     -0.677371     8A     -0.555581     9A     -0.459541  
      10A     -0.426621    11A     -0.426424    12A     -0.379286  
      13A     -0.378881    14A     -0.358916    15A     -0.323019  
      16A     -0.322981    17A     -0.319164  

    Virtual:                                                              

      18A      0.073477    19A      0.122285    20A      0.137047  
      21A      0.137190    22A      0.148092    23A      0.148514  
      24A      0.161219    25A      0.187922    26A      0.188527  
      27A      0.213637    28A      0.216289    29A      0.242219  
      30A      0.242226    31A      0.392919    32A      0.392995  
      33A      0.396141    34A      0.422070    35A      0.422255  
      36A      0.445830    37A      0.485102    38A      0.485208  
      39A      0.534315    40A      0.565041    41A      0.565411  
      42A      0.568269    43A      0.588960    44A      0.589423  
      45A      0.615808    46A      0.615914    47A      0.616578  
      48A      0.627998    49A      0.631154    50A      0.654685  
      51A      0.655161    52A      0.673995    53A      0.674642  
      54A      0.676264    55A      0.795825    56A      0.796123  
      57A      0.863702    58A      0.897609    59A      0.898052  
      60A      0.945321    61A      0.954644    62A      0.999558  
      63A      1.000216    64A      1.055888    65A      1.056433  
      66A      1.056691    67A      1.070806    68A      1.135066  
      69A      1.170033    70A      1.170726    71A      1.215337  
      72A      1.215350    73A      1.270522    74A      1.298617  
      75A      1.298706    76A      1.317003    77A      1.317143  
      78A      1.329254    79A      1.377637    80A      1.378032  
      81A      1.398967    82A      1.414864    83A      1.415382  
      84A      1.425503    85A      1.475530    86A      1.497261  
      87A      1.503350    88A      1.504222    89A      1.538473  
      90A      1.583054    91A      1.583082    92A      1.671962  
      93A      1.673024    94A      1.682188    95A      1.705971  
      96A      1.706175    97A      1.786827    98A      1.796925  
      99A      1.834279   100A      1.837403   101A      2.009691  
     102A      2.011075   103A      2.027500   104A      2.075107  
     105A      2.076271   106A      2.293034   107A      2.724168  
     108A      2.724897   109A      2.825840   110A      2.827111  
     111A      2.870426   112A      2.870978   113A      2.931654  
     114A      2.931822   115A      2.947168   116A      2.947736  
     117A      2.947826   118A      2.974509   119A      3.004761  
     120A      3.005154   121A      3.137837   122A      3.163800  
     123A      3.167604   124A      3.167686   125A      3.251675  
     126A      3.385198   127A      3.385521   128A      3.425147  
     129A      3.460336   130A      3.470708   131A      3.470993  
     132A      3.512200   133A      3.513467   134A      3.562872  
     135A      3.564050   136A      3.597572   137A      3.613563  
     138A      3.621047   139A      3.621251   140A      3.679566  
     141A      3.682244   142A      3.720276   143A      3.720591  
     144A      3.723038   145A      3.891282   146A      3.897691  
     147A      3.897918   148A      4.046000   149A      4.108316  
     150A      4.109935   151A      4.131008   152A      4.147373  
     153A      4.148968   154A      4.171678   155A      4.193517  
     156A      4.216453   157A      4.218568   158A      4.261982  
     159A      4.265717   160A      4.377509   161A      4.379387  
     162A      4.382303   163A      4.481514   164A      4.517072  
     165A      4.517737   166A      4.532896   167A      4.569568  
     168A      4.571129   169A      4.611478   170A      4.663235  
     171A      4.664283   172A      4.735726   173A      4.735888  
     174A      4.755893   175A      4.981254   176A      5.005049  
     177A      5.006582   178A      5.176231   179A      5.251598  
     180A      5.258970   181A      5.333184   182A      5.364554  
     183A      5.371342   184A      5.390045  

    Final Occupation by Irrep:
              A 
    DOCC [    17 ]

  @DF-RKS Final Energy:  -158.47494878044864

   => Energetics <=

    Nuclear Repulsion Energy =            134.6969047082904467
    One-Electron Energy =                -477.9660215726379420
    Two-Electron Energy =                 205.4307698107203066
    DFT Exchange-Correlation Energy =     -20.6366017268214392
    Empirical Dispersion Energy =           0.0000000000000000
    VV10 Nonlocal Energy =                  0.0000000000000000
    Total Energy =                       -158.4749487804486421

Computation Completed


Properties will be evaluated at   0.000000,   0.000000,   0.000000 [a0]

Properties computed using the SCF density matrix

  Nuclear Dipole Moment: [e a0]
     X:     0.6004      Y:    -0.0026      Z:     0.0000

  Electronic Dipole Moment: [e a0]
     X:    -0.6343      Y:     0.0049      Z:    -0.0000

  Dipole Moment: [e a0]
     X:    -0.0340      Y:     0.0023      Z:    -0.0000     Total:     0.0340

  Dipole Moment: [D]
     X:    -0.0863      Y:     0.0059      Z:    -0.0000     Total:     0.0865


*** tstop() called on n086 at Fri Nov 12 16:34:47 2021
Module time:
	user time   =     115.22 seconds =       1.92 minutes
	system time =       1.85 seconds =       0.03 minutes
	total time  =         30 seconds =       0.50 minutes
Total time:
	user time   =     115.22 seconds =       1.92 minutes
	system time =       1.85 seconds =       0.03 minutes
	total time  =         30 seconds =       0.50 minutes
Grab this energy -158.47494878044864
    Psi4 stopped on: Friday, 12 November 2021 04:34PM
    Psi4 wall time for execution: 0:00:30.05

*** Psi4 exiting successfully. Buy a developer a beer!
