
    -----------------------------------------------------------------------
          Psi4: An Open-Source Ab Initio Electronic Structure Package
                               Psi4 1.4a2.dev629 

                         Git: Rev {master} 2938fc2 dirty


    D. G. A. Smith, L. A. Burns, A. C. Simmonett, R. M. Parrish,
    M. C. Schieber, R. Galvelis, P. Kraus, H. Kruse, R. Di Remigio,
    A. Alenaizan, A. M. James, S. Lehtola, J. P. Misiewicz, M. Scheurer,
    R. A. Shaw, J. B. Schriber, Y. Xie, Z. L. Glick, D. A. Sirianni,
    J. S. O'Brien, J. M. Waldrop, A. Kumar, E. G. Hohenstein,
    B. P. Pritchard, B. R. Brooks, H. F. Schaefer III, A. Yu. Sokolov,
    K. Patkowski, A. E. DePrince III, U. Bozkaya, R. A. King,
    F. A. Evangelista, J. M. Turney, T. D. Crawford, C. D. Sherrill,
    J. Chem. Phys. 152(18) 184108 (2020). https://doi.org/10.1063/5.0006002

                            Additional Code Authors
    E. T. Seidl, C. L. Janssen, E. F. Valeev, M. L. Leininger,
    J. F. Gonthier, R. M. Richard, H. R. McAlexander, M. Saitow, X. Wang,
    P. Verma, and M. H. Lechner

             Previous Authors, Complete List of Code Contributors,
                       and Citations for Specific Modules
    https://github.com/psi4/psi4/blob/master/codemeta.json
    https://github.com/psi4/psi4/graphs/contributors
    http://psicode.org/psi4manual/master/introduction.html#citing-psifour

    -----------------------------------------------------------------------


    Psi4 started on: Friday, 12 November 2021 04:14PM

    Process ID: 8116
    Host:       n076
    PSIDATADIR: /opt/psi/4/master/share/psi4
    Memory:     500.0 MiB
    Threads:    4
    
  ==> Input File <==

--------------------------------------------------------------------------
import os
memory 14 GB 
 
molecule {
 H   -2.7757844581   -0.0004803737    0.0010876471
 C   -0.7045466723    0.0015392680   -0.0006978097
 C    0.2004393371   -1.3735804729   -2.3775747583
 C    0.2014234551    2.7454534924   -0.0006537579
 C    0.2010394796   -1.3742671819    2.3774596827
 H    2.2654854085   -1.4050438166   -2.4381758016
 H   -0.4684349060   -0.4323869572   -4.0929809475
 H   -0.4679123237   -3.3270231870   -2.4162862003
 H    2.2661499083    2.8184557149   -0.0038970543
 H   -0.4681758172    3.7520616479    1.6745114436
 H   -0.4695516910    3.7618504098   -1.6717114445
 H    2.2668992126   -1.4127450449    2.4437021882
 H   -0.4696433773   -3.3277388232    2.4178914519
 H   -0.4687770756   -0.4260946757    4.0873253605
units bohr
}

basis {

assign 6-31g_2dfp_

[ 6-31g_2dfp_ ]

spherical

!----------------------------------------------------------------------
! Basis Set Exchange
! Version v0.8.13
! https://www.basissetexchange.org
!----------------------------------------------------------------------
!   Basis set: 6-31G(2df,p)
! Description: 6-31G(2df,p)
!        Role: orbital
!     Version: 0  (Data from the original Basis Set Exchange)
!----------------------------------------------------------------------


****
H     0
S    3   1.00
     18.7311370              0.03349460
      2.8253937              0.23472695
      0.6401217              0.81375733
S    1   1.00
      0.1612778              1.00000000
P    1   1.00
      1.5000000              1.0000000
P    1   1.00
      0.3750000              1.0000000
****
B     0
S    6   1.00
   2068.8823000              0.0018663
    310.6495700              0.0142515
     70.6830330              0.0695516
     19.8610800              0.2325729
      6.2993048              0.4670787
      2.1270270              0.3634314
SP   3   1.00
      4.7279710             -0.1303938              0.0745976
      1.1903377             -0.1307889              0.3078467
      0.3594117              1.1309444              0.7434568
SP   1   1.00
      0.1267512              1.0000000              1.0000000
D    1   1.00
      0.8020000              1.0000000
D    1   1.00
      0.2005000              1.0000000
F    1   1.00
      0.5000000              1.0000000
****
C     0
S    6   1.00
   3047.5249000              0.0018347
    457.3695100              0.0140373
    103.9486900              0.0688426
     29.2101550              0.2321844
      9.2866630              0.4679413
      3.1639270              0.3623120
SP   3   1.00
      7.8682724             -0.1193324              0.0689991
      1.8812885             -0.1608542              0.3164240
      0.5442493              1.1434564              0.7443083
SP   1   1.00
      0.1687144              1.0000000              1.0000000
D    1   1.00
      1.2520000              1.0000000
D    1   1.00
      0.3130000              1.0000000
F    1   1.00
      0.8000000              1.0000000
****
N     0
S    6   1.00
   4173.5110000              0.0018348
    627.4579000              0.0139950
    142.9021000              0.0685870
     40.2343300              0.2322410
     12.8202100              0.4690700
      4.3904370              0.3604550
SP   3   1.00
     11.6263580             -0.1149610              0.0675800
      2.7162800             -0.1691180              0.3239070
      0.7722180              1.1458520              0.7408950
SP   1   1.00
      0.2120313              1.0000000              1.0000000
D    1   1.00
      1.8260000              1.0000000
D    1   1.00
      0.4565000              1.0000000
F    1   1.00
      1.0000000              1.0000000
****
O     0
S    6   1.00
   5484.6717000              0.0018311
    825.2349500              0.0139501
    188.0469600              0.0684451
     52.9645000              0.2327143
     16.8975700              0.4701930
      5.7996353              0.3585209
SP   3   1.00
     15.5396160             -0.1107775              0.0708743
      3.5999336             -0.1480263              0.3397528
      1.0137618              1.1307670              0.7271586
SP   1   1.00
      0.2700058              1.0000000              1.0000000
D    1   1.00
      2.5840000              1.0000000
D    1   1.00
      0.6460000              1.0000000
F    1   1.00
      1.4000000              1.0000000
****
F     0
S    6   1.00
   7001.7130900              0.0018196169
   1051.3660900              0.0139160796
    239.2856900              0.0684053245
     67.3974453              0.233185760
     21.5199573              0.471267439
      7.40310130             0.356618546
SP   3   1.00
     20.8479528             -0.108506975            0.0716287243
      4.80830834            -0.146451658            0.3459121030
      1.34406986             1.128688580            0.7224699570
SP   1   1.00
      0.358151393            1.0000000              1.0000000
D    1   1.00
      3.5000000              1.0000000
D    1   1.00
      0.8750000              1.0000000
F    1   1.00
      1.8500000              1.0000000
****
Al     0
S    6   1.00
  13983.1000000              0.00194267
   2098.7500000              0.0148599
    477.7050000              0.0728494
    134.3600000              0.2468300
     42.8709000              0.4872580
     14.5189000              0.3234960
SP   6   1.00
    239.6680000             -0.00292619             0.00460285
     57.4419000             -0.0374080              0.0331990
     18.2859000             -0.1144870              0.1362820
      6.5991400              0.1156350              0.3304760
      2.4904900              0.6125950              0.4491460
      0.9445400              0.3937990              0.2657040
SP   3   1.00
      1.2779000             -0.2276060             -0.0175130
      0.3975900              0.00144583             0.2445330
      0.1600950              1.0927900              0.8049340
SP   1   1.00
      0.0556577              1.0000000              1.0000000
D    1   1.00
      0.6500000              1.0000000
D    1   1.00
      0.1625000              1.0000000
F    1   1.00
      0.2500000              1.0000000
****
Si     0
S    6   1.00
  16115.9000000              0.00195948
   2425.5800000              0.01492880
    553.8670000              0.07284780
    156.3400000              0.24613000
     50.0683000              0.48591400
     17.0178000              0.32500200
SP   6   1.00
    292.7180000             -0.00278094             0.00443826
     69.8731000             -0.03571460             0.03266790
     22.3363000             -0.11498500             0.13472100
      8.1503900              0.09356340             0.32867800
      3.1345800              0.60301700             0.44964000
      1.2254300              0.41895900             0.26137200
SP   3   1.00
      1.7273800             -0.24463000            -0.01779510
      0.5729220              0.00431572             0.25353900
      0.2221920              1.09818000             0.80066900
SP   1   1.00
      0.0778369              1.00000000             1.00000000
D    1   1.00
      0.9000000              1.0000000
D    1   1.00
      0.2250000              1.0000000
F    1   1.00
      0.3200000              1.0000000
****
P     0
S    6   1.00
  19413.3000000              0.0018516
   2909.4200000              0.0142062
    661.3640000              0.0699995
    185.7590000              0.2400790
     59.1943000              0.4847620
     20.0310000              0.3352000
SP   6   1.00
    339.4780000             -0.00278217             0.00456462
     81.0101000             -0.0360499              0.03369360
     25.8780000             -0.1166310              0.13975500
      9.4522100              0.0968328              0.33936200
      3.6656600              0.6144180              0.45092100
      1.4674600              0.4037980              0.23858600
SP   3   1.00
      2.1562300             -0.2529230             -0.01776530
      0.7489970              0.0328517              0.27405800
      0.2831450              1.0812500              0.78542100
SP   1   1.00
      0.0998317              1.0000000              1.00000000
D    1   1.00
      1.1000000              1.0000000
D    1   1.00
      0.2750000              1.0000000
F    1   1.00
      0.4500000              1.0000000
****
S     0
S    6   1.00
  21917.1000000              0.0018690
   3301.4900000              0.0142300
    754.1460000              0.0696960
    212.7110000              0.2384870
     67.9896000              0.4833070
     23.0515000              0.3380740
SP   6   1.00
    423.7350000             -0.0023767              0.0040610
    100.7100000             -0.0316930              0.0306810
     32.1599000             -0.1133170              0.1304520
     11.8079000              0.0560900              0.3272050
      4.6311000              0.5922550              0.4528510
      1.8702500              0.4550060              0.2560420
SP   3   1.00
      2.6158400             -0.2503740             -0.0145110
      0.9221670              0.0669570              0.3102630
      0.3412870              1.0545100              0.7544830
SP   1   1.00
      0.1171670              1.0000000              1.0000000
D    1   1.00
      1.3000000              1.0000000
D    1   1.00
      0.3250000              1.0000000
F    1   1.00
      0.5500000              1.0000000
****
Cl     0
S    6   1.00
  25180.1000000              0.0018330
   3780.3500000              0.0140340
    860.4740000              0.0690970
    242.1450000              0.2374520
     77.3349000              0.4830340
     26.2470000              0.3398560
SP   6   1.00
    491.7650000             -0.0022974              0.0039894
    116.9840000             -0.0307140              0.0303180
     37.4153000             -0.1125280              0.1298800
     13.7834000              0.0450160              0.3279510
      5.4521500              0.5893530              0.4535270
      2.2258800              0.4652060              0.2521540
SP   3   1.00
      3.1864900             -0.2518300             -0.0142990
      1.1442700              0.0615890              0.3235720
      0.4203770              1.0601800              0.7435070
SP   1   1.00
      0.1426570              1.0000000              1.0000000
D    1   1.00
      1.5000000              1.0000000
D    1   1.00
      0.3750000              1.0000000
F    1   1.00
      0.7000000              1.0000000
****
}


set {
reference rhf                          
freeze_core true
e_convergence 10                       
d_convergence 10                      
dft_spherical_points 1202
dft_radial_points 99
}

e = energy('b3lyp')

print_out('Grab this energy {0}'.format(e))
--------------------------------------------------------------------------

  Memory set to  13.039 GiB by Python driver.

Scratch directory: /tmp/

*** tstart() called on n076
*** at Fri Nov 12 16:14:47 2021

   => Loading Basis Set <=

    Name: ANONYMOUSDBAB426D
    Role: ORBITAL
    Keyword: BASIS
    atoms 1, 6-14 entry H          line    15 inputblock 6-31g_2dfp_ 
    atoms 2-5     entry C          line    48 inputblock 6-31g_2dfp_ 


         ---------------------------------------------------------
                                   SCF
               by Justin Turney, Rob Parrish, Andy Simmonett
                          and Daniel G. A. Smith
                              RKS Reference
                        4 Threads,  13351 MiB Core
         ---------------------------------------------------------

  ==> Geometry <==

    Molecular point group: c1
    Full point group: C1

    Geometry (in Bohr), charge = 0, multiplicity = 1:

       Center              X                  Y                   Z               Mass       
    ------------   -----------------  -----------------  -----------------  -----------------
         H           -2.775784326518    -0.000318572184     0.001365231199     1.007825032230
         C           -0.704546540718     0.001701069516    -0.000420225601    12.000000000000
         C            0.200439468682    -1.373418671384    -2.377297174201    12.000000000000
         C            0.201423586682     2.745615293916    -0.000376173801    12.000000000000
         C            0.201039611182    -1.374105380384     2.377737266799    12.000000000000
         H            2.265485540082    -1.404882015084    -2.437898217501     1.007825032230
         H           -0.468434774418    -0.432225155684    -4.092703363401     1.007825032230
         H           -0.467912192118    -3.326861385484    -2.416008616201     1.007825032230
         H            2.266150039882     2.818617516416    -0.003619470201     1.007825032230
         H           -0.468175685618     3.752223449416     1.674789027699     1.007825032230
         H           -0.469551559418     3.762012211316    -1.671433860401     1.007825032230
         H            2.266899344182    -1.412583243384     2.443979772299     1.007825032230
         H           -0.469643245718    -3.327577021684     2.418169035999     1.007825032230
         H           -0.468776944018    -0.425932874184     4.087602944599     1.007825032230

  Running in c1 symmetry.

  Rotational constants: A =      0.26082  B =      0.26065  C =      0.15137 [cm^-1]
  Rotational constants: A =   7819.13590  B =   7813.99562  C =   4537.83328 [MHz]
  Nuclear repulsion =  134.696857057905248

  Charge       = 0
  Multiplicity = 1
  Electrons    = 34
  Nalpha       = 17
  Nbeta        = 17

  ==> Algorithm <==

  SCF Algorithm Type is DF.
  DIIS enabled.
  MOM disabled.
  Fractional occupation disabled.
  Guess Type is SAD.
  Energy threshold   = 1.00e-10
  Density threshold  = 1.00e-10
  Integral threshold = 0.00e+00

  ==> Primary Basis <==

  Basis Set: ANONYMOUSDBAB426D
    Blend: 6-31G_2DFP_
    Number of shells: 72
    Number of basis function: 184
    Number of Cartesian functions: 204
    Spherical Harmonics?: true
    Max angular momentum: 3

  ==> DFT Potential <==

   => Composite Functional: B3LYP <= 

    B3LYP Hyb-GGA Exchange-Correlation Functional

    P. J. Stephens, F. J. Devlin, C. F. Chabalowski, and M. J. Frisch, J. Phys. Chem. 98, 11623 (1994)

    Deriv               =              1
    GGA                 =           TRUE
    Meta                =          FALSE

    Exchange Hybrid     =           TRUE
    MP2 Hybrid          =          FALSE

   => Exchange Functionals <=

    0.0800   Slater exchange
    0.7200         Becke 88

   => Exact (HF) Exchange <=

    0.2000               HF 

   => Correlation Functionals <=

    0.1900   Vosko, Wilk & Nusair (VWN5_RPA)
    0.8100   Lee, Yang & Parr

   => Molecular Quadrature <=

    Radial Scheme          =       TREUTLER
    Pruning Scheme         =           NONE
    Nuclear Scheme         =       TREUTLER

    BS radius alpha        =              1
    Pruning alpha          =              1
    Radial Points          =             99
    Spherical Points       =           1202
    Total Points           =        1546406
    Total Blocks           =          10351
    Max Points             =            256
    Max Functions          =            184
    Weights Tolerance      =       1.00E-15

   => Loading Basis Set <=

    Name: (ANONYMOUSDBAB426D AUX)
    Role: JKFIT
    Keyword: DF_BASIS_SCF
    atoms 1, 6-14 entry H          line    18 file /opt/psi/4/master/share/psi4/basis/def2-universal-jkfit.gbs 
    atoms 2-5     entry C          line   198 file /opt/psi/4/master/share/psi4/basis/def2-universal-jkfit.gbs 

  ==> Integral Setup <==

  DFHelper Memory: AOs need 0.129 GiB; user supplied 3.157 GiB. Using in-core AOs.

  ==> MemDFJK: Density-Fitted J/K Matrices <==

    J tasked:                   Yes
    K tasked:                   Yes
    wK tasked:                   No
    OpenMP threads:               4
    Memory [MiB]:              3232
    Algorithm:                 Core
    Schwarz Cutoff:           1E-12
    Mask sparsity (%):       1.1697
    Fitting Condition:        1E-10

   => Auxiliary Basis Set <=

  Basis Set: (ANONYMOUSDBAB426D AUX)
    Blend: DEF2-UNIVERSAL-JKFIT
    Number of shells: 160
    Number of basis function: 480
    Number of Cartesian functions: 556
    Spherical Harmonics?: true
    Max angular momentum: 4

  Cached 100.0% of DFT collocation blocks in 6.622 [GiB].

  Minimum eigenvalue in the overlap matrix is 1.3314007331E-03.
  Reciprocal condition number of the overlap matrix is 2.1019587465E-04.
    Using symmetric orthogonalization.

  ==> Pre-Iterations <==

  SCF Guess: Superposition of Atomic Densities via on-the-fly atomic UHF (no occupation information).

   -------------------------
    Irrep   Nso     Nmo    
   -------------------------
     A        184     184 
   -------------------------
    Total     184     184
   -------------------------

  ==> Iterations <==

                           Total Energy        Delta E     RMS |[F,P]|

   @DF-RKS iter SAD:  -157.74016741781421   -1.57740e+02   0.00000e+00 
   @DF-RKS iter   1:  -158.05180428248238   -3.11637e-01   4.78760e-03 DIIS
   @DF-RKS iter   2:  -157.82411299694436    2.27691e-01   5.81978e-03 DIIS
   @DF-RKS iter   3:  -158.47126378099696   -6.47151e-01   4.68905e-04 DIIS
   @DF-RKS iter   4:  -158.47413080505584   -2.86702e-03   2.27285e-04 DIIS
   @DF-RKS iter   5:  -158.47494184034827   -8.11035e-04   3.51492e-05 DIIS
   @DF-RKS iter   6:  -158.47496118882290   -1.93485e-05   7.03008e-06 DIIS
   @DF-RKS iter   7:  -158.47496214509414   -9.56271e-07   1.32878e-06 DIIS
   @DF-RKS iter   8:  -158.47496218116103   -3.60669e-08   6.35892e-08 DIIS
   @DF-RKS iter   9:  -158.47496218120395   -4.29168e-11   4.41953e-08 DIIS
   @DF-RKS iter  10:  -158.47496218123672   -3.27702e-11   6.73675e-09 DIIS
   @DF-RKS iter  11:  -158.47496218123734   -6.25278e-13   6.04841e-10 DIIS
   @DF-RKS iter  12:  -158.47496218123754   -1.98952e-13   5.01555e-11 DIIS
  Energy and wave function converged.


  ==> Post-Iterations <==

    Orbital Energies [Eh]
    ---------------------

    Doubly Occupied:                                                      

       1A    -10.178080     2A    -10.162489     3A    -10.162436  
       4A    -10.162318     5A     -0.798838     6A     -0.677769  
       7A     -0.677604     8A     -0.555582     9A     -0.459542  
      10A     -0.426672    11A     -0.426370    12A     -0.379142  
      13A     -0.379024    14A     -0.358916    15A     -0.323279  
      16A     -0.322727    17A     -0.319159  

    Virtual:                                                              

      18A      0.073479    19A      0.122287    20A      0.137106  
      21A      0.137140    22A      0.148184    23A      0.148414  
      24A      0.161220    25A      0.188142    26A      0.188304  
      27A      0.213645    28A      0.216281    29A      0.241960  
      30A      0.242486    31A      0.392801    32A      0.393112  
      33A      0.396146    34A      0.422107    35A      0.422219  
      36A      0.445830    37A      0.485059    38A      0.485250  
      39A      0.534312    40A      0.565037    41A      0.565408  
      42A      0.568279    43A      0.589163    44A      0.589226  
      45A      0.615661    46A      0.616182    47A      0.616482  
      48A      0.628014    49A      0.631116    50A      0.654867  
      51A      0.654967    52A      0.674367    53A      0.674404  
      54A      0.676114    55A      0.795962    56A      0.795988  
      57A      0.863704    58A      0.897788    59A      0.897871  
      60A      0.945313    61A      0.954636    62A      0.999277  
      63A      1.000497    64A      1.055817    65A      1.056340  
      66A      1.056850    67A      1.070808    68A      1.135081  
      69A      1.170241    70A      1.170517    71A      1.214979  
      72A      1.215710    73A      1.270521    74A      1.298437  
      75A      1.298901    76A      1.316875    77A      1.317257  
      78A      1.329270    79A      1.377601    80A      1.378075  
      81A      1.398966    82A      1.414868    83A      1.415389  
      84A      1.425499    85A      1.475523    86A      1.497283  
      87A      1.503452    88A      1.504124    89A      1.538462  
      90A      1.583010    91A      1.583116    92A      1.672317  
      93A      1.672687    94A      1.682180    95A      1.705688  
      96A      1.706437    97A      1.786885    98A      1.796996  
      99A      1.835430   100A      1.836110   101A      2.010129  
     102A      2.010652   103A      2.027527   104A      2.075427  
     105A      2.075896   106A      2.293028   107A      2.724254  
     108A      2.724815   109A      2.825836   110A      2.827106  
     111A      2.870508   112A      2.870915   113A      2.931470  
     114A      2.932024   115A      2.946930   116A      2.947678  
     117A      2.948088   118A      2.974491   119A      3.004601  
     120A      3.005306   121A      3.137842   122A      3.163791  
     123A      3.167533   124A      3.167737   125A      3.251679  
     126A      3.385244   127A      3.385461   128A      3.425142  
     129A      3.460330   130A      3.470674   131A      3.471013  
     132A      3.512317   133A      3.513358   134A      3.563244  
     135A      3.563740   136A      3.597491   137A      3.613500  
     138A      3.620925   139A      3.621458   140A      3.680433  
     141A      3.681414   142A      3.720091   143A      3.720779  
     144A      3.723002   145A      3.891316   146A      3.897449  
     147A      3.898131   148A      4.045993   149A      4.108748  
     150A      4.109692   151A      4.130941   152A      4.147911  
     153A      4.148551   154A      4.171640   155A      4.193592  
     156A      4.216794   157A      4.217958   158A      4.263665  
     159A      4.263943   160A      4.377866   161A      4.378892  
     162A      4.382501   163A      4.481523   164A      4.516537  
     165A      4.518209   166A      4.532954   167A      4.570342  
     168A      4.570397   169A      4.611410   170A      4.663113  
     171A      4.664380   172A      4.735001   173A      4.736528  
     174A      4.755982   175A      4.981294   176A      5.005443  
     177A      5.006102   178A      5.176280   179A      5.255103  
     180A      5.255628   181A      5.333479   182A      5.367360  
     183A      5.368175   184A      5.389860  

    Final Occupation by Irrep:
              A 
    DOCC [    17 ]

  @DF-RKS Final Energy:  -158.47496218123754

   => Energetics <=

    Nuclear Repulsion Energy =            134.6968570579052482
    One-Electron Energy =                -477.9659626449420102
    Two-Electron Energy =                 205.4307396556570779
    DFT Exchange-Correlation Energy =     -20.6365962498578952
    Empirical Dispersion Energy =           0.0000000000000000
    VV10 Nonlocal Energy =                  0.0000000000000000
    Total Energy =                       -158.4749621812375437

Computation Completed


Properties will be evaluated at   0.000000,   0.000000,   0.000000 [a0]

Properties computed using the SCF density matrix

  Nuclear Dipole Moment: [e a0]
     X:     0.6004      Y:     0.0012      Z:     0.0021

  Electronic Dipole Moment: [e a0]
     X:    -0.6343      Y:    -0.0011      Z:    -0.0016

  Dipole Moment: [e a0]
     X:    -0.0340      Y:     0.0001      Z:     0.0005     Total:     0.0340

  Dipole Moment: [D]
     X:    -0.0863      Y:     0.0002      Z:     0.0013     Total:     0.0863


*** tstop() called on n076 at Fri Nov 12 16:15:20 2021
Module time:
	user time   =     129.55 seconds =       2.16 minutes
	system time =       1.94 seconds =       0.03 minutes
	total time  =         33 seconds =       0.55 minutes
Total time:
	user time   =     129.55 seconds =       2.16 minutes
	system time =       1.94 seconds =       0.03 minutes
	total time  =         33 seconds =       0.55 minutes
Grab this energy -158.47496218123754
    Psi4 stopped on: Friday, 12 November 2021 04:15PM
    Psi4 wall time for execution: 0:00:33.69

*** Psi4 exiting successfully. Buy a developer a beer!
