
    -----------------------------------------------------------------------
          Psi4: An Open-Source Ab Initio Electronic Structure Package
                               Psi4 1.4a2.dev629 

                         Git: Rev {master} 2938fc2 dirty


    D. G. A. Smith, L. A. Burns, A. C. Simmonett, R. M. Parrish,
    M. C. Schieber, R. Galvelis, P. Kraus, H. Kruse, R. Di Remigio,
    A. Alenaizan, A. M. James, S. Lehtola, J. P. Misiewicz, M. Scheurer,
    R. A. Shaw, J. B. Schriber, Y. Xie, Z. L. Glick, D. A. Sirianni,
    J. S. O'Brien, J. M. Waldrop, A. Kumar, E. G. Hohenstein,
    B. P. Pritchard, B. R. Brooks, H. F. Schaefer III, A. Yu. Sokolov,
    K. Patkowski, A. E. DePrince III, U. Bozkaya, R. A. King,
    F. A. Evangelista, J. M. Turney, T. D. Crawford, C. D. Sherrill,
    J. Chem. Phys. 152(18) 184108 (2020). https://doi.org/10.1063/5.0006002

                            Additional Code Authors
    E. T. Seidl, C. L. Janssen, E. F. Valeev, M. L. Leininger,
    J. F. Gonthier, R. M. Richard, H. R. McAlexander, M. Saitow, X. Wang,
    P. Verma, and M. H. Lechner

             Previous Authors, Complete List of Code Contributors,
                       and Citations for Specific Modules
    https://github.com/psi4/psi4/blob/master/codemeta.json
    https://github.com/psi4/psi4/graphs/contributors
    http://psicode.org/psi4manual/master/introduction.html#citing-psifour

    -----------------------------------------------------------------------


    Psi4 started on: Friday, 12 November 2021 05:43PM

    Process ID: 28338
    Host:       n032
    PSIDATADIR: /opt/psi/4/master/share/psi4
    Memory:     500.0 MiB
    Threads:    4
    
  ==> Input File <==

--------------------------------------------------------------------------
import os
memory 14 GB 
 
molecule {
 H   -2.7763706930    0.0000001702    0.0050000872
 C   -0.7049949039    0.0000025027    0.0019060154
 C    0.2021304582   -1.3709882711   -2.3796665546
 C    0.2013192680    2.7510626523   -0.0050413777
 C    0.2005090427   -1.3800731651    2.3853193028
 H    2.2676310724   -1.4056342485   -2.4431572891
 H   -0.4689436155   -0.4254521872   -4.0910213339
 H   -0.4656189802   -3.3261146008   -2.4217344333
 H    2.2666302448    2.8254918982   -0.0085280460
 H   -0.4656558714    3.7672025447    1.6662347073
 H   -0.4723053607    3.7578327312   -1.6810715683
 H    2.2656322998   -1.4198645052    2.4507487142
 H   -0.4723386775   -3.3352670333    2.4214902284
 H   -0.4690138038   -0.4381984881    4.0995215476
units bohr
}

basis {

assign 6-31g_2dfp_

[ 6-31g_2dfp_ ]

spherical

!----------------------------------------------------------------------
! Basis Set Exchange
! Version v0.8.13
! https://www.basissetexchange.org
!----------------------------------------------------------------------
!   Basis set: 6-31G(2df,p)
! Description: 6-31G(2df,p)
!        Role: orbital
!     Version: 0  (Data from the original Basis Set Exchange)
!----------------------------------------------------------------------


****
H     0
S    3   1.00
     18.7311370              0.03349460
      2.8253937              0.23472695
      0.6401217              0.81375733
S    1   1.00
      0.1612778              1.00000000
P    1   1.00
      1.5000000              1.0000000
P    1   1.00
      0.3750000              1.0000000
****
B     0
S    6   1.00
   2068.8823000              0.0018663
    310.6495700              0.0142515
     70.6830330              0.0695516
     19.8610800              0.2325729
      6.2993048              0.4670787
      2.1270270              0.3634314
SP   3   1.00
      4.7279710             -0.1303938              0.0745976
      1.1903377             -0.1307889              0.3078467
      0.3594117              1.1309444              0.7434568
SP   1   1.00
      0.1267512              1.0000000              1.0000000
D    1   1.00
      0.8020000              1.0000000
D    1   1.00
      0.2005000              1.0000000
F    1   1.00
      0.5000000              1.0000000
****
C     0
S    6   1.00
   3047.5249000              0.0018347
    457.3695100              0.0140373
    103.9486900              0.0688426
     29.2101550              0.2321844
      9.2866630              0.4679413
      3.1639270              0.3623120
SP   3   1.00
      7.8682724             -0.1193324              0.0689991
      1.8812885             -0.1608542              0.3164240
      0.5442493              1.1434564              0.7443083
SP   1   1.00
      0.1687144              1.0000000              1.0000000
D    1   1.00
      1.2520000              1.0000000
D    1   1.00
      0.3130000              1.0000000
F    1   1.00
      0.8000000              1.0000000
****
N     0
S    6   1.00
   4173.5110000              0.0018348
    627.4579000              0.0139950
    142.9021000              0.0685870
     40.2343300              0.2322410
     12.8202100              0.4690700
      4.3904370              0.3604550
SP   3   1.00
     11.6263580             -0.1149610              0.0675800
      2.7162800             -0.1691180              0.3239070
      0.7722180              1.1458520              0.7408950
SP   1   1.00
      0.2120313              1.0000000              1.0000000
D    1   1.00
      1.8260000              1.0000000
D    1   1.00
      0.4565000              1.0000000
F    1   1.00
      1.0000000              1.0000000
****
O     0
S    6   1.00
   5484.6717000              0.0018311
    825.2349500              0.0139501
    188.0469600              0.0684451
     52.9645000              0.2327143
     16.8975700              0.4701930
      5.7996353              0.3585209
SP   3   1.00
     15.5396160             -0.1107775              0.0708743
      3.5999336             -0.1480263              0.3397528
      1.0137618              1.1307670              0.7271586
SP   1   1.00
      0.2700058              1.0000000              1.0000000
D    1   1.00
      2.5840000              1.0000000
D    1   1.00
      0.6460000              1.0000000
F    1   1.00
      1.4000000              1.0000000
****
F     0
S    6   1.00
   7001.7130900              0.0018196169
   1051.3660900              0.0139160796
    239.2856900              0.0684053245
     67.3974453              0.233185760
     21.5199573              0.471267439
      7.40310130             0.356618546
SP   3   1.00
     20.8479528             -0.108506975            0.0716287243
      4.80830834            -0.146451658            0.3459121030
      1.34406986             1.128688580            0.7224699570
SP   1   1.00
      0.358151393            1.0000000              1.0000000
D    1   1.00
      3.5000000              1.0000000
D    1   1.00
      0.8750000              1.0000000
F    1   1.00
      1.8500000              1.0000000
****
Al     0
S    6   1.00
  13983.1000000              0.00194267
   2098.7500000              0.0148599
    477.7050000              0.0728494
    134.3600000              0.2468300
     42.8709000              0.4872580
     14.5189000              0.3234960
SP   6   1.00
    239.6680000             -0.00292619             0.00460285
     57.4419000             -0.0374080              0.0331990
     18.2859000             -0.1144870              0.1362820
      6.5991400              0.1156350              0.3304760
      2.4904900              0.6125950              0.4491460
      0.9445400              0.3937990              0.2657040
SP   3   1.00
      1.2779000             -0.2276060             -0.0175130
      0.3975900              0.00144583             0.2445330
      0.1600950              1.0927900              0.8049340
SP   1   1.00
      0.0556577              1.0000000              1.0000000
D    1   1.00
      0.6500000              1.0000000
D    1   1.00
      0.1625000              1.0000000
F    1   1.00
      0.2500000              1.0000000
****
Si     0
S    6   1.00
  16115.9000000              0.00195948
   2425.5800000              0.01492880
    553.8670000              0.07284780
    156.3400000              0.24613000
     50.0683000              0.48591400
     17.0178000              0.32500200
SP   6   1.00
    292.7180000             -0.00278094             0.00443826
     69.8731000             -0.03571460             0.03266790
     22.3363000             -0.11498500             0.13472100
      8.1503900              0.09356340             0.32867800
      3.1345800              0.60301700             0.44964000
      1.2254300              0.41895900             0.26137200
SP   3   1.00
      1.7273800             -0.24463000            -0.01779510
      0.5729220              0.00431572             0.25353900
      0.2221920              1.09818000             0.80066900
SP   1   1.00
      0.0778369              1.00000000             1.00000000
D    1   1.00
      0.9000000              1.0000000
D    1   1.00
      0.2250000              1.0000000
F    1   1.00
      0.3200000              1.0000000
****
P     0
S    6   1.00
  19413.3000000              0.0018516
   2909.4200000              0.0142062
    661.3640000              0.0699995
    185.7590000              0.2400790
     59.1943000              0.4847620
     20.0310000              0.3352000
SP   6   1.00
    339.4780000             -0.00278217             0.00456462
     81.0101000             -0.0360499              0.03369360
     25.8780000             -0.1166310              0.13975500
      9.4522100              0.0968328              0.33936200
      3.6656600              0.6144180              0.45092100
      1.4674600              0.4037980              0.23858600
SP   3   1.00
      2.1562300             -0.2529230             -0.01776530
      0.7489970              0.0328517              0.27405800
      0.2831450              1.0812500              0.78542100
SP   1   1.00
      0.0998317              1.0000000              1.00000000
D    1   1.00
      1.1000000              1.0000000
D    1   1.00
      0.2750000              1.0000000
F    1   1.00
      0.4500000              1.0000000
****
S     0
S    6   1.00
  21917.1000000              0.0018690
   3301.4900000              0.0142300
    754.1460000              0.0696960
    212.7110000              0.2384870
     67.9896000              0.4833070
     23.0515000              0.3380740
SP   6   1.00
    423.7350000             -0.0023767              0.0040610
    100.7100000             -0.0316930              0.0306810
     32.1599000             -0.1133170              0.1304520
     11.8079000              0.0560900              0.3272050
      4.6311000              0.5922550              0.4528510
      1.8702500              0.4550060              0.2560420
SP   3   1.00
      2.6158400             -0.2503740             -0.0145110
      0.9221670              0.0669570              0.3102630
      0.3412870              1.0545100              0.7544830
SP   1   1.00
      0.1171670              1.0000000              1.0000000
D    1   1.00
      1.3000000              1.0000000
D    1   1.00
      0.3250000              1.0000000
F    1   1.00
      0.5500000              1.0000000
****
Cl     0
S    6   1.00
  25180.1000000              0.0018330
   3780.3500000              0.0140340
    860.4740000              0.0690970
    242.1450000              0.2374520
     77.3349000              0.4830340
     26.2470000              0.3398560
SP   6   1.00
    491.7650000             -0.0022974              0.0039894
    116.9840000             -0.0307140              0.0303180
     37.4153000             -0.1125280              0.1298800
     13.7834000              0.0450160              0.3279510
      5.4521500              0.5893530              0.4535270
      2.2258800              0.4652060              0.2521540
SP   3   1.00
      3.1864900             -0.2518300             -0.0142990
      1.1442700              0.0615890              0.3235720
      0.4203770              1.0601800              0.7435070
SP   1   1.00
      0.1426570              1.0000000              1.0000000
D    1   1.00
      1.5000000              1.0000000
D    1   1.00
      0.3750000              1.0000000
F    1   1.00
      0.7000000              1.0000000
****
}


set {
reference rhf                          
freeze_core true
e_convergence 10                       
d_convergence 10                      
dft_spherical_points 1202
dft_radial_points 99
}

e = energy('b3lyp')

print_out('Grab this energy {0}'.format(e))
--------------------------------------------------------------------------

  Memory set to  13.039 GiB by Python driver.

Scratch directory: /tmp/

*** tstart() called on n032
*** at Fri Nov 12 17:43:18 2021

   => Loading Basis Set <=

    Name: ANONYMOUSBCCE0F93
    Role: ORBITAL
    Keyword: BASIS
    atoms 1, 6-14 entry H          line    15 inputblock 6-31g_2dfp_ 
    atoms 2-5     entry C          line    48 inputblock 6-31g_2dfp_ 


         ---------------------------------------------------------
                                   SCF
               by Justin Turney, Rob Parrish, Andy Simmonett
                          and Daniel G. A. Smith
                              RKS Reference
                        4 Threads,  13351 MiB Core
         ---------------------------------------------------------

  ==> Geometry <==

    Molecular point group: c1
    Full point group: C1

    Geometry (in Bohr), charge = 0, multiplicity = 1:

       Center              X                  Y                   Z               Mass       
    ------------   -----------------  -----------------  -----------------  -----------------
         H           -2.776485684733    -0.000000533638     0.004523634378     1.007825032230
         C           -0.705109895633     0.000001798862     0.001429562578    12.000000000000
         C            0.202015466467    -1.370988974938    -2.380143007422    12.000000000000
         C            0.201204276267     2.751061948462    -0.005517830522    12.000000000000
         C            0.200394050967    -1.380073868938     2.384842849978    12.000000000000
         H            2.267516080667    -1.405634952338    -2.443633741922     1.007825032230
         H           -0.469058607233    -0.425452891038    -4.091497786722     1.007825032230
         H           -0.465733971933    -3.326115304638    -2.422210886122     1.007825032230
         H            2.266515253067     2.825491194362    -0.009004498822     1.007825032230
         H           -0.465770863133     3.767201840862     1.665758254478     1.007825032230
         H           -0.472420352433     3.757832027362    -1.681548021122     1.007825032230
         H            2.265517308067    -1.419865209038     2.450272261378     1.007825032230
         H           -0.472453669233    -3.335267737138     2.421013775578     1.007825032230
         H           -0.469128795533    -0.438199191938     4.099045094778     1.007825032230

  Running in c1 symmetry.

  Rotational constants: A =      0.26070  B =      0.25911  C =      0.15082 [cm^-1]
  Rotational constants: A =   7815.48908  B =   7767.86035  C =   4521.54763 [MHz]
  Nuclear repulsion =  134.514465730595788

  Charge       = 0
  Multiplicity = 1
  Electrons    = 34
  Nalpha       = 17
  Nbeta        = 17

  ==> Algorithm <==

  SCF Algorithm Type is DF.
  DIIS enabled.
  MOM disabled.
  Fractional occupation disabled.
  Guess Type is SAD.
  Energy threshold   = 1.00e-10
  Density threshold  = 1.00e-10
  Integral threshold = 0.00e+00

  ==> Primary Basis <==

  Basis Set: ANONYMOUSBCCE0F93
    Blend: 6-31G_2DFP_
    Number of shells: 72
    Number of basis function: 184
    Number of Cartesian functions: 204
    Spherical Harmonics?: true
    Max angular momentum: 3

  ==> DFT Potential <==

   => Composite Functional: B3LYP <= 

    B3LYP Hyb-GGA Exchange-Correlation Functional

    P. J. Stephens, F. J. Devlin, C. F. Chabalowski, and M. J. Frisch, J. Phys. Chem. 98, 11623 (1994)

    Deriv               =              1
    GGA                 =           TRUE
    Meta                =          FALSE

    Exchange Hybrid     =           TRUE
    MP2 Hybrid          =          FALSE

   => Exchange Functionals <=

    0.0800   Slater exchange
    0.7200         Becke 88

   => Exact (HF) Exchange <=

    0.2000               HF 

   => Correlation Functionals <=

    0.1900   Vosko, Wilk & Nusair (VWN5_RPA)
    0.8100   Lee, Yang & Parr

   => Molecular Quadrature <=

    Radial Scheme          =       TREUTLER
    Pruning Scheme         =           NONE
    Nuclear Scheme         =       TREUTLER

    BS radius alpha        =              1
    Pruning alpha          =              1
    Radial Points          =             99
    Spherical Points       =           1202
    Total Points           =        1546744
    Total Blocks           =          10384
    Max Points             =            256
    Max Functions          =            184
    Weights Tolerance      =       1.00E-15

   => Loading Basis Set <=

    Name: (ANONYMOUSBCCE0F93 AUX)
    Role: JKFIT
    Keyword: DF_BASIS_SCF
    atoms 1, 6-14 entry H          line    18 file /opt/psi/4/master/share/psi4/basis/def2-universal-jkfit.gbs 
    atoms 2-5     entry C          line   198 file /opt/psi/4/master/share/psi4/basis/def2-universal-jkfit.gbs 

  ==> Integral Setup <==

  DFHelper Memory: AOs need 0.129 GiB; user supplied 3.163 GiB. Using in-core AOs.

  ==> MemDFJK: Density-Fitted J/K Matrices <==

    J tasked:                   Yes
    K tasked:                   Yes
    wK tasked:                   No
    OpenMP threads:               4
    Memory [MiB]:              3238
    Algorithm:                 Core
    Schwarz Cutoff:           1E-12
    Mask sparsity (%):       1.1756
    Fitting Condition:        1E-10

   => Auxiliary Basis Set <=

  Basis Set: (ANONYMOUSBCCE0F93 AUX)
    Blend: DEF2-UNIVERSAL-JKFIT
    Number of shells: 160
    Number of basis function: 480
    Number of Cartesian functions: 556
    Spherical Harmonics?: true
    Max angular momentum: 4

  Cached 100.0% of DFT collocation blocks in 6.616 [GiB].

  Minimum eigenvalue in the overlap matrix is 1.3396256777E-03.
  Reciprocal condition number of the overlap matrix is 2.1196486040E-04.
    Using symmetric orthogonalization.

  ==> Pre-Iterations <==

  SCF Guess: Superposition of Atomic Densities via on-the-fly atomic UHF (no occupation information).

   -------------------------
    Irrep   Nso     Nmo    
   -------------------------
     A        184     184 
   -------------------------
    Total     184     184
   -------------------------

  ==> Iterations <==

                           Total Energy        Delta E     RMS |[F,P]|

   @DF-RKS iter SAD:  -157.72924068348956   -1.57729e+02   0.00000e+00 
   @DF-RKS iter   1:  -158.05360888941527   -3.24368e-01   4.77662e-03 DIIS
   @DF-RKS iter   2:  -157.82878877781366    2.24820e-01   5.79711e-03 DIIS
   @DF-RKS iter   3:  -158.47132642497351   -6.42538e-01   4.66730e-04 DIIS
   @DF-RKS iter   4:  -158.47416965645095   -2.84323e-03   2.26705e-04 DIIS
   @DF-RKS iter   5:  -158.47497745910891   -8.07803e-04   3.52247e-05 DIIS
   @DF-RKS iter   6:  -158.47499692897424   -1.94699e-05   7.00868e-06 DIIS
   @DF-RKS iter   7:  -158.47499788015116   -9.51177e-07   1.32722e-06 DIIS
   @DF-RKS iter   8:  -158.47499791614266   -3.59915e-08   6.15430e-08 DIIS
   @DF-RKS iter   9:  -158.47499791618651   -4.38547e-11   4.07665e-08 DIIS
   @DF-RKS iter  10:  -158.47499791621394   -2.74269e-11   7.14476e-09 DIIS
   @DF-RKS iter  11:  -158.47499791621507   -1.13687e-12   6.12732e-10 DIIS
   @DF-RKS iter  12:  -158.47499791621510   -2.84217e-14   5.45639e-11 DIIS
  Energy and wave function converged.


  ==> Post-Iterations <==

    Orbital Energies [Eh]
    ---------------------

    Doubly Occupied:                                                      

       1A    -10.178739     2A    -10.162893     3A    -10.162734  
       4A    -10.162574     5A     -0.797800     6A     -0.677563  
       7A     -0.677320     8A     -0.555615     9A     -0.458908  
      10A     -0.426340    11A     -0.425835    12A     -0.379187  
      13A     -0.378917    14A     -0.359024    15A     -0.322935  
      16A     -0.322767    17A     -0.319221  

    Virtual:                                                              

      18A      0.073424    19A      0.122544    20A      0.136868  
      21A      0.137185    22A      0.147976    23A      0.148210  
      24A      0.161044    25A      0.187793    26A      0.188231  
      27A      0.213318    28A      0.215513    29A      0.241474  
      30A      0.241704    31A      0.392809    32A      0.393067  
      33A      0.396023    34A      0.422358    35A      0.422420  
      36A      0.446126    37A      0.484490    38A      0.485357  
      39A      0.533808    40A      0.564476    41A      0.564515  
      42A      0.566947    43A      0.588333    44A      0.589016  
      45A      0.615232    46A      0.615943    47A      0.616128  
      48A      0.627627    49A      0.630854    50A      0.654060  
      51A      0.654313    52A      0.674290    53A      0.674466  
      54A      0.675660    55A      0.795394    56A      0.796501  
      57A      0.862472    58A      0.896277    59A      0.897646  
      60A      0.945536    61A      0.953484    62A      0.998572  
      63A      0.999030    64A      1.055367    65A      1.055608  
      66A      1.055885    67A      1.069436    68A      1.136306  
      69A      1.168857    70A      1.169820    71A      1.214120  
      72A      1.215132    73A      1.270070    74A      1.297565  
      75A      1.297993    76A      1.315258    77A      1.316535  
      78A      1.328873    79A      1.377211    80A      1.377249  
      81A      1.397354    82A      1.414236    83A      1.415581  
      84A      1.424432    85A      1.476118    86A      1.496339  
      87A      1.502734    88A      1.503952    89A      1.537562  
      90A      1.582084    91A      1.582529    92A      1.669979  
      93A      1.672091    94A      1.682388    95A      1.704703  
      96A      1.705664    97A      1.787077    98A      1.795714  
      99A      1.834313   100A      1.834743   101A      2.008017  
     102A      2.010359   103A      2.024958   104A      2.069667  
     105A      2.072773   106A      2.290002   107A      2.723283  
     108A      2.724302   109A      2.823075   110A      2.826692  
     111A      2.868534   112A      2.869720   113A      2.931992  
     114A      2.932553   115A      2.946860   116A      2.947568  
     117A      2.948546   118A      2.974096   119A      3.003692  
     120A      3.005133   121A      3.135548   122A      3.162336  
     123A      3.164807   124A      3.167477   125A      3.249945  
     126A      3.383448   127A      3.384230   128A      3.423847  
     129A      3.460247   130A      3.469181   131A      3.469730  
     132A      3.511237   133A      3.511416   134A      3.563240  
     135A      3.563482   136A      3.595362   137A      3.613004  
     138A      3.621785   139A      3.621992   140A      3.678183  
     141A      3.679060   142A      3.717926   143A      3.719053  
     144A      3.720133   145A      3.890056   146A      3.894842  
     147A      3.895406   148A      4.046423   149A      4.106312  
     150A      4.107945   151A      4.130630   152A      4.146039  
     153A      4.147611   154A      4.170517   155A      4.191100  
     156A      4.213882   157A      4.216322   158A      4.261963  
     159A      4.263529   160A      4.376537   161A      4.377499  
     162A      4.380063   163A      4.478833   164A      4.513255  
     165A      4.515521   166A      4.528329   167A      4.567640  
     168A      4.568155   169A      4.608665   170A      4.659499  
     171A      4.659531   172A      4.729527   173A      4.730989  
     174A      4.750398   175A      4.978021   176A      5.004134  
     177A      5.004954   178A      5.175021   179A      5.253652  
     180A      5.254057   181A      5.330598   182A      5.365192  
     183A      5.365644   184A      5.386320  

    Final Occupation by Irrep:
              A 
    DOCC [    17 ]

  @DF-RKS Final Energy:  -158.47499791621510

   => Energetics <=

    Nuclear Repulsion Energy =            134.5144657305957878
    One-Electron Energy =                -477.6068516017872412
    Two-Electron Energy =                 205.2503759234271570
    DFT Exchange-Correlation Energy =     -20.6329879684507631
    Empirical Dispersion Energy =           0.0000000000000000
    VV10 Nonlocal Energy =                  0.0000000000000000
    Total Energy =                       -158.4749979162151021

Computation Completed


Properties will be evaluated at   0.000000,   0.000000,   0.000000 [a0]

Properties computed using the SCF density matrix

  Nuclear Dipole Moment: [e a0]
     X:     0.5995      Y:    -0.0000      Z:    -0.0036

  Electronic Dipole Moment: [e a0]
     X:    -0.6329      Y:     0.0000      Z:     0.0037

  Dipole Moment: [e a0]
     X:    -0.0334      Y:     0.0000      Z:     0.0001     Total:     0.0334

  Dipole Moment: [D]
     X:    -0.0849      Y:     0.0000      Z:     0.0001     Total:     0.0849


*** tstop() called on n032 at Fri Nov 12 17:43:59 2021
Module time:
	user time   =     159.81 seconds =       2.66 minutes
	system time =       1.53 seconds =       0.03 minutes
	total time  =         41 seconds =       0.68 minutes
Total time:
	user time   =     159.81 seconds =       2.66 minutes
	system time =       1.53 seconds =       0.03 minutes
	total time  =         41 seconds =       0.68 minutes
Grab this energy -158.4749979162151
    Psi4 stopped on: Friday, 12 November 2021 05:43PM
    Psi4 wall time for execution: 0:00:41.36

*** Psi4 exiting successfully. Buy a developer a beer!
