
    -----------------------------------------------------------------------
          Psi4: An Open-Source Ab Initio Electronic Structure Package
                               Psi4 1.4a2.dev629 

                         Git: Rev {master} 2938fc2 dirty


    D. G. A. Smith, L. A. Burns, A. C. Simmonett, R. M. Parrish,
    M. C. Schieber, R. Galvelis, P. Kraus, H. Kruse, R. Di Remigio,
    A. Alenaizan, A. M. James, S. Lehtola, J. P. Misiewicz, M. Scheurer,
    R. A. Shaw, J. B. Schriber, Y. Xie, Z. L. Glick, D. A. Sirianni,
    J. S. O'Brien, J. M. Waldrop, A. Kumar, E. G. Hohenstein,
    B. P. Pritchard, B. R. Brooks, H. F. Schaefer III, A. Yu. Sokolov,
    K. Patkowski, A. E. DePrince III, U. Bozkaya, R. A. King,
    F. A. Evangelista, J. M. Turney, T. D. Crawford, C. D. Sherrill,
    J. Chem. Phys. 152(18) 184108 (2020). https://doi.org/10.1063/5.0006002

                            Additional Code Authors
    E. T. Seidl, C. L. Janssen, E. F. Valeev, M. L. Leininger,
    J. F. Gonthier, R. M. Richard, H. R. McAlexander, M. Saitow, X. Wang,
    P. Verma, and M. H. Lechner

             Previous Authors, Complete List of Code Contributors,
                       and Citations for Specific Modules
    https://github.com/psi4/psi4/blob/master/codemeta.json
    https://github.com/psi4/psi4/graphs/contributors
    http://psicode.org/psi4manual/master/introduction.html#citing-psifour

    -----------------------------------------------------------------------


    Psi4 started on: Friday, 12 November 2021 04:35PM

    Process ID: 9151
    Host:       n086
    PSIDATADIR: /opt/psi/4/master/share/psi4
    Memory:     500.0 MiB
    Threads:    4
    
  ==> Input File <==

--------------------------------------------------------------------------
import os
memory 14 GB 
 
molecule {
 H   -2.7757843823   -0.0000004843   -0.0068235943
 C   -0.7045477290   -0.0000010076   -0.0033655681
 C    0.1992863722   -1.3699810740   -2.3772890580
 C    0.2009653121    2.7457838419    0.0001791010
 C    0.2026501987   -1.3758066075    2.3785522437
 H    2.2631152082   -1.4097214118   -2.4385860129
 H   -0.4693462595   -0.4279044211   -4.0891735971
 H   -0.4724596575   -3.3245286031   -2.4138185430
 H    2.2661802650    2.8183887511    0.0013548524
 H   -0.4724648973    3.7546212705    1.6704988937
 H   -0.4650302037    3.7591811950   -1.6758362842
 H    2.2692450944   -1.4086625752    2.4430117304
 H   -0.4650400693   -3.3303904153    2.4201540294
 H   -0.4681587720   -0.4309784586    4.0911418070
units bohr
}

basis {

assign 6-31g_2dfp_

[ 6-31g_2dfp_ ]

spherical

!----------------------------------------------------------------------
! Basis Set Exchange
! Version v0.8.13
! https://www.basissetexchange.org
!----------------------------------------------------------------------
!   Basis set: 6-31G(2df,p)
! Description: 6-31G(2df,p)
!        Role: orbital
!     Version: 0  (Data from the original Basis Set Exchange)
!----------------------------------------------------------------------


****
H     0
S    3   1.00
     18.7311370              0.03349460
      2.8253937              0.23472695
      0.6401217              0.81375733
S    1   1.00
      0.1612778              1.00000000
P    1   1.00
      1.5000000              1.0000000
P    1   1.00
      0.3750000              1.0000000
****
B     0
S    6   1.00
   2068.8823000              0.0018663
    310.6495700              0.0142515
     70.6830330              0.0695516
     19.8610800              0.2325729
      6.2993048              0.4670787
      2.1270270              0.3634314
SP   3   1.00
      4.7279710             -0.1303938              0.0745976
      1.1903377             -0.1307889              0.3078467
      0.3594117              1.1309444              0.7434568
SP   1   1.00
      0.1267512              1.0000000              1.0000000
D    1   1.00
      0.8020000              1.0000000
D    1   1.00
      0.2005000              1.0000000
F    1   1.00
      0.5000000              1.0000000
****
C     0
S    6   1.00
   3047.5249000              0.0018347
    457.3695100              0.0140373
    103.9486900              0.0688426
     29.2101550              0.2321844
      9.2866630              0.4679413
      3.1639270              0.3623120
SP   3   1.00
      7.8682724             -0.1193324              0.0689991
      1.8812885             -0.1608542              0.3164240
      0.5442493              1.1434564              0.7443083
SP   1   1.00
      0.1687144              1.0000000              1.0000000
D    1   1.00
      1.2520000              1.0000000
D    1   1.00
      0.3130000              1.0000000
F    1   1.00
      0.8000000              1.0000000
****
N     0
S    6   1.00
   4173.5110000              0.0018348
    627.4579000              0.0139950
    142.9021000              0.0685870
     40.2343300              0.2322410
     12.8202100              0.4690700
      4.3904370              0.3604550
SP   3   1.00
     11.6263580             -0.1149610              0.0675800
      2.7162800             -0.1691180              0.3239070
      0.7722180              1.1458520              0.7408950
SP   1   1.00
      0.2120313              1.0000000              1.0000000
D    1   1.00
      1.8260000              1.0000000
D    1   1.00
      0.4565000              1.0000000
F    1   1.00
      1.0000000              1.0000000
****
O     0
S    6   1.00
   5484.6717000              0.0018311
    825.2349500              0.0139501
    188.0469600              0.0684451
     52.9645000              0.2327143
     16.8975700              0.4701930
      5.7996353              0.3585209
SP   3   1.00
     15.5396160             -0.1107775              0.0708743
      3.5999336             -0.1480263              0.3397528
      1.0137618              1.1307670              0.7271586
SP   1   1.00
      0.2700058              1.0000000              1.0000000
D    1   1.00
      2.5840000              1.0000000
D    1   1.00
      0.6460000              1.0000000
F    1   1.00
      1.4000000              1.0000000
****
F     0
S    6   1.00
   7001.7130900              0.0018196169
   1051.3660900              0.0139160796
    239.2856900              0.0684053245
     67.3974453              0.233185760
     21.5199573              0.471267439
      7.40310130             0.356618546
SP   3   1.00
     20.8479528             -0.108506975            0.0716287243
      4.80830834            -0.146451658            0.3459121030
      1.34406986             1.128688580            0.7224699570
SP   1   1.00
      0.358151393            1.0000000              1.0000000
D    1   1.00
      3.5000000              1.0000000
D    1   1.00
      0.8750000              1.0000000
F    1   1.00
      1.8500000              1.0000000
****
Al     0
S    6   1.00
  13983.1000000              0.00194267
   2098.7500000              0.0148599
    477.7050000              0.0728494
    134.3600000              0.2468300
     42.8709000              0.4872580
     14.5189000              0.3234960
SP   6   1.00
    239.6680000             -0.00292619             0.00460285
     57.4419000             -0.0374080              0.0331990
     18.2859000             -0.1144870              0.1362820
      6.5991400              0.1156350              0.3304760
      2.4904900              0.6125950              0.4491460
      0.9445400              0.3937990              0.2657040
SP   3   1.00
      1.2779000             -0.2276060             -0.0175130
      0.3975900              0.00144583             0.2445330
      0.1600950              1.0927900              0.8049340
SP   1   1.00
      0.0556577              1.0000000              1.0000000
D    1   1.00
      0.6500000              1.0000000
D    1   1.00
      0.1625000              1.0000000
F    1   1.00
      0.2500000              1.0000000
****
Si     0
S    6   1.00
  16115.9000000              0.00195948
   2425.5800000              0.01492880
    553.8670000              0.07284780
    156.3400000              0.24613000
     50.0683000              0.48591400
     17.0178000              0.32500200
SP   6   1.00
    292.7180000             -0.00278094             0.00443826
     69.8731000             -0.03571460             0.03266790
     22.3363000             -0.11498500             0.13472100
      8.1503900              0.09356340             0.32867800
      3.1345800              0.60301700             0.44964000
      1.2254300              0.41895900             0.26137200
SP   3   1.00
      1.7273800             -0.24463000            -0.01779510
      0.5729220              0.00431572             0.25353900
      0.2221920              1.09818000             0.80066900
SP   1   1.00
      0.0778369              1.00000000             1.00000000
D    1   1.00
      0.9000000              1.0000000
D    1   1.00
      0.2250000              1.0000000
F    1   1.00
      0.3200000              1.0000000
****
P     0
S    6   1.00
  19413.3000000              0.0018516
   2909.4200000              0.0142062
    661.3640000              0.0699995
    185.7590000              0.2400790
     59.1943000              0.4847620
     20.0310000              0.3352000
SP   6   1.00
    339.4780000             -0.00278217             0.00456462
     81.0101000             -0.0360499              0.03369360
     25.8780000             -0.1166310              0.13975500
      9.4522100              0.0968328              0.33936200
      3.6656600              0.6144180              0.45092100
      1.4674600              0.4037980              0.23858600
SP   3   1.00
      2.1562300             -0.2529230             -0.01776530
      0.7489970              0.0328517              0.27405800
      0.2831450              1.0812500              0.78542100
SP   1   1.00
      0.0998317              1.0000000              1.00000000
D    1   1.00
      1.1000000              1.0000000
D    1   1.00
      0.2750000              1.0000000
F    1   1.00
      0.4500000              1.0000000
****
S     0
S    6   1.00
  21917.1000000              0.0018690
   3301.4900000              0.0142300
    754.1460000              0.0696960
    212.7110000              0.2384870
     67.9896000              0.4833070
     23.0515000              0.3380740
SP   6   1.00
    423.7350000             -0.0023767              0.0040610
    100.7100000             -0.0316930              0.0306810
     32.1599000             -0.1133170              0.1304520
     11.8079000              0.0560900              0.3272050
      4.6311000              0.5922550              0.4528510
      1.8702500              0.4550060              0.2560420
SP   3   1.00
      2.6158400             -0.2503740             -0.0145110
      0.9221670              0.0669570              0.3102630
      0.3412870              1.0545100              0.7544830
SP   1   1.00
      0.1171670              1.0000000              1.0000000
D    1   1.00
      1.3000000              1.0000000
D    1   1.00
      0.3250000              1.0000000
F    1   1.00
      0.5500000              1.0000000
****
Cl     0
S    6   1.00
  25180.1000000              0.0018330
   3780.3500000              0.0140340
    860.4740000              0.0690970
    242.1450000              0.2374520
     77.3349000              0.4830340
     26.2470000              0.3398560
SP   6   1.00
    491.7650000             -0.0022974              0.0039894
    116.9840000             -0.0307140              0.0303180
     37.4153000             -0.1125280              0.1298800
     13.7834000              0.0450160              0.3279510
      5.4521500              0.5893530              0.4535270
      2.2258800              0.4652060              0.2521540
SP   3   1.00
      3.1864900             -0.2518300             -0.0142990
      1.1442700              0.0615890              0.3235720
      0.4203770              1.0601800              0.7435070
SP   1   1.00
      0.1426570              1.0000000              1.0000000
D    1   1.00
      1.5000000              1.0000000
D    1   1.00
      0.3750000              1.0000000
F    1   1.00
      0.7000000              1.0000000
****
}


set {
reference rhf                          
freeze_core true
e_convergence 10                       
d_convergence 10                      
dft_spherical_points 1202
dft_radial_points 99
}

e = energy('b3lyp')

print_out('Grab this energy {0}'.format(e))
--------------------------------------------------------------------------

  Memory set to  13.039 GiB by Python driver.

Scratch directory: /tmp/

*** tstart() called on n086
*** at Fri Nov 12 16:35:46 2021

   => Loading Basis Set <=

    Name: ANONYMOUSF669CDEA
    Role: ORBITAL
    Keyword: BASIS
    atoms 1, 6-14 entry H          line    15 inputblock 6-31g_2dfp_ 
    atoms 2-5     entry C          line    48 inputblock 6-31g_2dfp_ 


         ---------------------------------------------------------
                                   SCF
               by Justin Turney, Rob Parrish, Andy Simmonett
                          and Daniel G. A. Smith
                              RKS Reference
                        4 Threads,  13351 MiB Core
         ---------------------------------------------------------

  ==> Geometry <==

    Molecular point group: c1
    Full point group: C1

    Geometry (in Bohr), charge = 0, multiplicity = 1:

       Center              X                  Y                   Z               Mass       
    ------------   -----------------  -----------------  -----------------  -----------------
         H           -2.775783977136     0.000000433105    -0.006459584614     1.007825032230
         C           -0.704547323836    -0.000000090195    -0.003001558414    12.000000000000
         C            0.199286777364    -1.369980156595    -2.376925048314    12.000000000000
         C            0.200965717264     2.745784759305     0.000543110686    12.000000000000
         C            0.202650603864    -1.375805690095     2.378916253386    12.000000000000
         H            2.263115613364    -1.409720494395    -2.438222003214     1.007825032230
         H           -0.469345854336    -0.427903503695    -4.088809587414     1.007825032230
         H           -0.472459252336    -3.324527685695    -2.413454533314     1.007825032230
         H            2.266180670164     2.818389668505     0.001718862086     1.007825032230
         H           -0.472464492136     3.754622187905     1.670862903386     1.007825032230
         H           -0.465029798536     3.759182112405    -1.675472274514     1.007825032230
         H            2.269245499564    -1.408661657795     2.443375740086     1.007825032230
         H           -0.465039664136    -3.330389497895     2.420518039086     1.007825032230
         H           -0.468158366836    -0.430977541195     4.091505816686     1.007825032230

  Running in c1 symmetry.

  Rotational constants: A =      0.26102  B =      0.26044  C =      0.15137 [cm^-1]
  Rotational constants: A =   7825.30117  B =   7807.83763  C =   4537.82929 [MHz]
  Nuclear repulsion =  134.696943188970579

  Charge       = 0
  Multiplicity = 1
  Electrons    = 34
  Nalpha       = 17
  Nbeta        = 17

  ==> Algorithm <==

  SCF Algorithm Type is DF.
  DIIS enabled.
  MOM disabled.
  Fractional occupation disabled.
  Guess Type is SAD.
  Energy threshold   = 1.00e-10
  Density threshold  = 1.00e-10
  Integral threshold = 0.00e+00

  ==> Primary Basis <==

  Basis Set: ANONYMOUSF669CDEA
    Blend: 6-31G_2DFP_
    Number of shells: 72
    Number of basis function: 184
    Number of Cartesian functions: 204
    Spherical Harmonics?: true
    Max angular momentum: 3

  ==> DFT Potential <==

   => Composite Functional: B3LYP <= 

    B3LYP Hyb-GGA Exchange-Correlation Functional

    P. J. Stephens, F. J. Devlin, C. F. Chabalowski, and M. J. Frisch, J. Phys. Chem. 98, 11623 (1994)

    Deriv               =              1
    GGA                 =           TRUE
    Meta                =          FALSE

    Exchange Hybrid     =           TRUE
    MP2 Hybrid          =          FALSE

   => Exchange Functionals <=

    0.0800   Slater exchange
    0.7200         Becke 88

   => Exact (HF) Exchange <=

    0.2000               HF 

   => Correlation Functionals <=

    0.1900   Vosko, Wilk & Nusair (VWN5_RPA)
    0.8100   Lee, Yang & Parr

   => Molecular Quadrature <=

    Radial Scheme          =       TREUTLER
    Pruning Scheme         =           NONE
    Nuclear Scheme         =       TREUTLER

    BS radius alpha        =              1
    Pruning alpha          =              1
    Radial Points          =             99
    Spherical Points       =           1202
    Total Points           =        1546594
    Total Blocks           =          10379
    Max Points             =            256
    Max Functions          =            184
    Weights Tolerance      =       1.00E-15

   => Loading Basis Set <=

    Name: (ANONYMOUSF669CDEA AUX)
    Role: JKFIT
    Keyword: DF_BASIS_SCF
    atoms 1, 6-14 entry H          line    18 file /opt/psi/4/master/share/psi4/basis/def2-universal-jkfit.gbs 
    atoms 2-5     entry C          line   198 file /opt/psi/4/master/share/psi4/basis/def2-universal-jkfit.gbs 

  ==> Integral Setup <==

  DFHelper Memory: AOs need 0.129 GiB; user supplied 3.158 GiB. Using in-core AOs.

  ==> MemDFJK: Density-Fitted J/K Matrices <==

    J tasked:                   Yes
    K tasked:                   Yes
    wK tasked:                   No
    OpenMP threads:               4
    Memory [MiB]:              3233
    Algorithm:                 Core
    Schwarz Cutoff:           1E-12
    Mask sparsity (%):       1.1697
    Fitting Condition:        1E-10

   => Auxiliary Basis Set <=

  Basis Set: (ANONYMOUSF669CDEA AUX)
    Blend: DEF2-UNIVERSAL-JKFIT
    Number of shells: 160
    Number of basis function: 480
    Number of Cartesian functions: 556
    Spherical Harmonics?: true
    Max angular momentum: 4

  Cached 100.0% of DFT collocation blocks in 6.621 [GiB].

  Minimum eigenvalue in the overlap matrix is 1.3313711128E-03.
  Reciprocal condition number of the overlap matrix is 2.1019064316E-04.
    Using symmetric orthogonalization.

  ==> Pre-Iterations <==

  SCF Guess: Superposition of Atomic Densities via on-the-fly atomic UHF (no occupation information).

   -------------------------
    Irrep   Nso     Nmo    
   -------------------------
     A        184     184 
   -------------------------
    Total     184     184
   -------------------------

  ==> Iterations <==

                           Total Energy        Delta E     RMS |[F,P]|

   @DF-RKS iter SAD:  -157.74017693463722   -1.57740e+02   0.00000e+00 
   @DF-RKS iter   1:  -158.05179223142568   -3.11615e-01   4.78763e-03 DIIS
   @DF-RKS iter   2:  -157.82409619863651    2.27696e-01   5.81983e-03 DIIS
   @DF-RKS iter   3:  -158.47125653649942   -6.47160e-01   4.68914e-04 DIIS
   @DF-RKS iter   4:  -158.47412367442942   -2.86714e-03   2.27290e-04 DIIS
   @DF-RKS iter   5:  -158.47493474820490   -8.11074e-04   3.51513e-05 DIIS
   @DF-RKS iter   6:  -158.47495409859587   -1.93504e-05   7.03307e-06 DIIS
   @DF-RKS iter   7:  -158.47495505534371   -9.56748e-07   1.33399e-06 DIIS
   @DF-RKS iter   8:  -158.47495509154464   -3.62009e-08   9.74568e-08 DIIS
   @DF-RKS iter   9:  -158.47495509160009   -5.54508e-11   8.16549e-08 DIIS
   @DF-RKS iter  10:  -158.47495509171375   -1.13658e-10   4.33992e-09 DIIS
   @DF-RKS iter  11:  -158.47495509171409   -3.41061e-13   5.87411e-10 DIIS
   @DF-RKS iter  12:  -158.47495509171415   -5.68434e-14   5.27811e-11 DIIS
  Energy and wave function converged.


  ==> Post-Iterations <==

    Orbital Energies [Eh]
    ---------------------

    Doubly Occupied:                                                      

       1A    -10.178079     2A    -10.162701     3A    -10.162414  
       4A    -10.162127     5A     -0.798841     6A     -0.677856  
       7A     -0.677517     8A     -0.555581     9A     -0.459543  
      10A     -0.426647    11A     -0.426398    12A     -0.379175  
      13A     -0.378991    14A     -0.358916    15A     -0.323286  
      16A     -0.322720    17A     -0.319156  

    Virtual:                                                              

      18A      0.073479    19A      0.122286    20A      0.137059  
      21A      0.137188    22A      0.148245    23A      0.148347  
      24A      0.161224    25A      0.188162    26A      0.188284  
      27A      0.213633    28A      0.216282    29A      0.241670  
      30A      0.242785    31A      0.392942    32A      0.392967  
      33A      0.396144    34A      0.422163    35A      0.422165  
      36A      0.445829    37A      0.485010    38A      0.485299  
      39A      0.534313    40A      0.564695    41A      0.565701  
      42A      0.568333    43A      0.589030    44A      0.589366  
      45A      0.615652    46A      0.616177    47A      0.616486  
      48A      0.628014    49A      0.631131    50A      0.654910  
      51A      0.654925    52A      0.674294    53A      0.674444  
      54A      0.676151    55A      0.795733    56A      0.796217  
      57A      0.863705    58A      0.897754    59A      0.897907  
      60A      0.945319    61A      0.954636    62A      0.999659  
      63A      1.000108    64A      1.055235    65A      1.056039  
      66A      1.057741    67A      1.070809    68A      1.135080  
      69A      1.169726    70A      1.171025    71A      1.214782  
      72A      1.215907    73A      1.270519    74A      1.298378  
      75A      1.298936    76A      1.316800    77A      1.317360  
      78A      1.329261    79A      1.377567    80A      1.378077  
      81A      1.398991    82A      1.414614    83A      1.415647  
      84A      1.425498    85A      1.475521    86A      1.497266  
      87A      1.503442    88A      1.504136    89A      1.538462  
      90A      1.582883    91A      1.583249    92A      1.672444  
      93A      1.672531    94A      1.682176    95A      1.705487  
      96A      1.706681    97A      1.786883    98A      1.796977  
      99A      1.834884   100A      1.836669   101A      2.010166  
     102A      2.010604   103A      2.027517   104A      2.074742  
     105A      2.076613   106A      2.293035   107A      2.724464  
     108A      2.724607   109A      2.825825   110A      2.827110  
     111A      2.869794   112A      2.871639   113A      2.931635  
     114A      2.931851   115A      2.947116   116A      2.947700  
     117A      2.947874   118A      2.974491   119A      3.004879  
     120A      3.005052   121A      3.137834   122A      3.163744  
     123A      3.167483   124A      3.167841   125A      3.251681  
     126A      3.384840   127A      3.385859   128A      3.425147  
     129A      3.460337   130A      3.470677   131A      3.471018  
     132A      3.512483   133A      3.513175   134A      3.563397  
     135A      3.563521   136A      3.597508   137A      3.613587  
     138A      3.620633   139A      3.621629   140A      3.679635  
     141A      3.682245   142A      3.719082   143A      3.721566  
     144A      3.723254   145A      3.891191   146A      3.896890  
     147A      3.898816   148A      4.045985   149A      4.108369  
     150A      4.110065   151A      4.130946   152A      4.146898  
     153A      4.149571   154A      4.171608   155A      4.193615  
     156A      4.216853   157A      4.217908   158A      4.263592  
     159A      4.264018   160A      4.378354   161A      4.378571  
     162A      4.382346   163A      4.481461   164A      4.517023  
     165A      4.517492   166A      4.533130   167A      4.569076  
     168A      4.571620   169A      4.611468   170A      4.662313  
     171A      4.665239   172A      4.735486   173A      4.736123  
     174A      4.756019   175A      4.981226   176A      5.005344  
     177A      5.006285   178A      5.176292   179A      5.255017  
     180A      5.255721   181A      5.333312   182A      5.366511  
     183A      5.369188   184A      5.389890  

    Final Occupation by Irrep:
              A 
    DOCC [    17 ]

  @DF-RKS Final Energy:  -158.47495509171415

   => Energetics <=

    Nuclear Repulsion Energy =            134.6969431889705788
    One-Electron Energy =                -477.9661131317324703
    Two-Electron Energy =                 205.4308160940142045
    DFT Exchange-Correlation Energy =     -20.6366012429664636
    Empirical Dispersion Energy =           0.0000000000000000
    VV10 Nonlocal Energy =                  0.0000000000000000
    Total Energy =                       -158.4749550917141505

Computation Completed


Properties will be evaluated at   0.000000,   0.000000,   0.000000 [a0]

Properties computed using the SCF density matrix

  Nuclear Dipole Moment: [e a0]
     X:     0.6004      Y:     0.0000      Z:     0.0028

  Electronic Dipole Moment: [e a0]
     X:    -0.6343      Y:    -0.0000      Z:    -0.0028

  Dipole Moment: [e a0]
     X:    -0.0340      Y:    -0.0000      Z:    -0.0000     Total:     0.0340

  Dipole Moment: [D]
     X:    -0.0863      Y:    -0.0000      Z:    -0.0001     Total:     0.0863


*** tstop() called on n086 at Fri Nov 12 16:36:16 2021
Module time:
	user time   =     115.02 seconds =       1.92 minutes
	system time =       1.83 seconds =       0.03 minutes
	total time  =         30 seconds =       0.50 minutes
Total time:
	user time   =     115.02 seconds =       1.92 minutes
	system time =       1.83 seconds =       0.03 minutes
	total time  =         30 seconds =       0.50 minutes
Grab this energy -158.47495509171415
    Psi4 stopped on: Friday, 12 November 2021 04:36PM
    Psi4 wall time for execution: 0:00:30.00

*** Psi4 exiting successfully. Buy a developer a beer!
