
    -----------------------------------------------------------------------
          Psi4: An Open-Source Ab Initio Electronic Structure Package
                               Psi4 1.4a2.dev629 

                         Git: Rev {master} 2938fc2 dirty


    D. G. A. Smith, L. A. Burns, A. C. Simmonett, R. M. Parrish,
    M. C. Schieber, R. Galvelis, P. Kraus, H. Kruse, R. Di Remigio,
    A. Alenaizan, A. M. James, S. Lehtola, J. P. Misiewicz, M. Scheurer,
    R. A. Shaw, J. B. Schriber, Y. Xie, Z. L. Glick, D. A. Sirianni,
    J. S. O'Brien, J. M. Waldrop, A. Kumar, E. G. Hohenstein,
    B. P. Pritchard, B. R. Brooks, H. F. Schaefer III, A. Yu. Sokolov,
    K. Patkowski, A. E. DePrince III, U. Bozkaya, R. A. King,
    F. A. Evangelista, J. M. Turney, T. D. Crawford, C. D. Sherrill,
    J. Chem. Phys. 152(18) 184108 (2020). https://doi.org/10.1063/5.0006002

                            Additional Code Authors
    E. T. Seidl, C. L. Janssen, E. F. Valeev, M. L. Leininger,
    J. F. Gonthier, R. M. Richard, H. R. McAlexander, M. Saitow, X. Wang,
    P. Verma, and M. H. Lechner

             Previous Authors, Complete List of Code Contributors,
                       and Citations for Specific Modules
    https://github.com/psi4/psi4/blob/master/codemeta.json
    https://github.com/psi4/psi4/graphs/contributors
    http://psicode.org/psi4manual/master/introduction.html#citing-psifour

    -----------------------------------------------------------------------


    Psi4 started on: Friday, 12 November 2021 05:34PM

    Process ID: 16850
    Host:       n076
    PSIDATADIR: /opt/psi/4/master/share/psi4
    Memory:     500.0 MiB
    Threads:    4
    
  ==> Input File <==

--------------------------------------------------------------------------
import os
memory 14 GB 
 
molecule {
 H   -2.7757783674   -0.0049925079    0.0000016042
 C   -0.7045411337   -0.0019015928    0.0000008886
 C    0.2005012648   -1.3707661118   -2.3822865928
 C    0.2019028138    2.7403429374   -0.0003307602
 C    0.2005020305   -1.3701901460    2.3826189526
 H    2.2656079831   -1.4082172406   -2.4459269315
 H   -0.4700489050   -0.4213534986   -4.0904494828
 H   -0.4694136196   -3.3260598859   -2.4281791328
 H    2.2673290590    2.8104953404   -0.0039638792
 H   -0.4642344878    3.7493422620    1.6733719040
 H   -0.4693506512    3.7540233183   -1.6722383714
 H    2.2655986404   -1.4013443881    2.4498784535
 H   -0.4642920673   -3.3247060108    2.4235647017
 H   -0.4751720797   -0.4246724756    4.0939386461
units bohr
}

basis {

assign 6-31g_2dfp_

[ 6-31g_2dfp_ ]

spherical

!----------------------------------------------------------------------
! Basis Set Exchange
! Version v0.8.13
! https://www.basissetexchange.org
!----------------------------------------------------------------------
!   Basis set: 6-31G(2df,p)
! Description: 6-31G(2df,p)
!        Role: orbital
!     Version: 0  (Data from the original Basis Set Exchange)
!----------------------------------------------------------------------


****
H     0
S    3   1.00
     18.7311370              0.03349460
      2.8253937              0.23472695
      0.6401217              0.81375733
S    1   1.00
      0.1612778              1.00000000
P    1   1.00
      1.5000000              1.0000000
P    1   1.00
      0.3750000              1.0000000
****
B     0
S    6   1.00
   2068.8823000              0.0018663
    310.6495700              0.0142515
     70.6830330              0.0695516
     19.8610800              0.2325729
      6.2993048              0.4670787
      2.1270270              0.3634314
SP   3   1.00
      4.7279710             -0.1303938              0.0745976
      1.1903377             -0.1307889              0.3078467
      0.3594117              1.1309444              0.7434568
SP   1   1.00
      0.1267512              1.0000000              1.0000000
D    1   1.00
      0.8020000              1.0000000
D    1   1.00
      0.2005000              1.0000000
F    1   1.00
      0.5000000              1.0000000
****
C     0
S    6   1.00
   3047.5249000              0.0018347
    457.3695100              0.0140373
    103.9486900              0.0688426
     29.2101550              0.2321844
      9.2866630              0.4679413
      3.1639270              0.3623120
SP   3   1.00
      7.8682724             -0.1193324              0.0689991
      1.8812885             -0.1608542              0.3164240
      0.5442493              1.1434564              0.7443083
SP   1   1.00
      0.1687144              1.0000000              1.0000000
D    1   1.00
      1.2520000              1.0000000
D    1   1.00
      0.3130000              1.0000000
F    1   1.00
      0.8000000              1.0000000
****
N     0
S    6   1.00
   4173.5110000              0.0018348
    627.4579000              0.0139950
    142.9021000              0.0685870
     40.2343300              0.2322410
     12.8202100              0.4690700
      4.3904370              0.3604550
SP   3   1.00
     11.6263580             -0.1149610              0.0675800
      2.7162800             -0.1691180              0.3239070
      0.7722180              1.1458520              0.7408950
SP   1   1.00
      0.2120313              1.0000000              1.0000000
D    1   1.00
      1.8260000              1.0000000
D    1   1.00
      0.4565000              1.0000000
F    1   1.00
      1.0000000              1.0000000
****
O     0
S    6   1.00
   5484.6717000              0.0018311
    825.2349500              0.0139501
    188.0469600              0.0684451
     52.9645000              0.2327143
     16.8975700              0.4701930
      5.7996353              0.3585209
SP   3   1.00
     15.5396160             -0.1107775              0.0708743
      3.5999336             -0.1480263              0.3397528
      1.0137618              1.1307670              0.7271586
SP   1   1.00
      0.2700058              1.0000000              1.0000000
D    1   1.00
      2.5840000              1.0000000
D    1   1.00
      0.6460000              1.0000000
F    1   1.00
      1.4000000              1.0000000
****
F     0
S    6   1.00
   7001.7130900              0.0018196169
   1051.3660900              0.0139160796
    239.2856900              0.0684053245
     67.3974453              0.233185760
     21.5199573              0.471267439
      7.40310130             0.356618546
SP   3   1.00
     20.8479528             -0.108506975            0.0716287243
      4.80830834            -0.146451658            0.3459121030
      1.34406986             1.128688580            0.7224699570
SP   1   1.00
      0.358151393            1.0000000              1.0000000
D    1   1.00
      3.5000000              1.0000000
D    1   1.00
      0.8750000              1.0000000
F    1   1.00
      1.8500000              1.0000000
****
Al     0
S    6   1.00
  13983.1000000              0.00194267
   2098.7500000              0.0148599
    477.7050000              0.0728494
    134.3600000              0.2468300
     42.8709000              0.4872580
     14.5189000              0.3234960
SP   6   1.00
    239.6680000             -0.00292619             0.00460285
     57.4419000             -0.0374080              0.0331990
     18.2859000             -0.1144870              0.1362820
      6.5991400              0.1156350              0.3304760
      2.4904900              0.6125950              0.4491460
      0.9445400              0.3937990              0.2657040
SP   3   1.00
      1.2779000             -0.2276060             -0.0175130
      0.3975900              0.00144583             0.2445330
      0.1600950              1.0927900              0.8049340
SP   1   1.00
      0.0556577              1.0000000              1.0000000
D    1   1.00
      0.6500000              1.0000000
D    1   1.00
      0.1625000              1.0000000
F    1   1.00
      0.2500000              1.0000000
****
Si     0
S    6   1.00
  16115.9000000              0.00195948
   2425.5800000              0.01492880
    553.8670000              0.07284780
    156.3400000              0.24613000
     50.0683000              0.48591400
     17.0178000              0.32500200
SP   6   1.00
    292.7180000             -0.00278094             0.00443826
     69.8731000             -0.03571460             0.03266790
     22.3363000             -0.11498500             0.13472100
      8.1503900              0.09356340             0.32867800
      3.1345800              0.60301700             0.44964000
      1.2254300              0.41895900             0.26137200
SP   3   1.00
      1.7273800             -0.24463000            -0.01779510
      0.5729220              0.00431572             0.25353900
      0.2221920              1.09818000             0.80066900
SP   1   1.00
      0.0778369              1.00000000             1.00000000
D    1   1.00
      0.9000000              1.0000000
D    1   1.00
      0.2250000              1.0000000
F    1   1.00
      0.3200000              1.0000000
****
P     0
S    6   1.00
  19413.3000000              0.0018516
   2909.4200000              0.0142062
    661.3640000              0.0699995
    185.7590000              0.2400790
     59.1943000              0.4847620
     20.0310000              0.3352000
SP   6   1.00
    339.4780000             -0.00278217             0.00456462
     81.0101000             -0.0360499              0.03369360
     25.8780000             -0.1166310              0.13975500
      9.4522100              0.0968328              0.33936200
      3.6656600              0.6144180              0.45092100
      1.4674600              0.4037980              0.23858600
SP   3   1.00
      2.1562300             -0.2529230             -0.01776530
      0.7489970              0.0328517              0.27405800
      0.2831450              1.0812500              0.78542100
SP   1   1.00
      0.0998317              1.0000000              1.00000000
D    1   1.00
      1.1000000              1.0000000
D    1   1.00
      0.2750000              1.0000000
F    1   1.00
      0.4500000              1.0000000
****
S     0
S    6   1.00
  21917.1000000              0.0018690
   3301.4900000              0.0142300
    754.1460000              0.0696960
    212.7110000              0.2384870
     67.9896000              0.4833070
     23.0515000              0.3380740
SP   6   1.00
    423.7350000             -0.0023767              0.0040610
    100.7100000             -0.0316930              0.0306810
     32.1599000             -0.1133170              0.1304520
     11.8079000              0.0560900              0.3272050
      4.6311000              0.5922550              0.4528510
      1.8702500              0.4550060              0.2560420
SP   3   1.00
      2.6158400             -0.2503740             -0.0145110
      0.9221670              0.0669570              0.3102630
      0.3412870              1.0545100              0.7544830
SP   1   1.00
      0.1171670              1.0000000              1.0000000
D    1   1.00
      1.3000000              1.0000000
D    1   1.00
      0.3250000              1.0000000
F    1   1.00
      0.5500000              1.0000000
****
Cl     0
S    6   1.00
  25180.1000000              0.0018330
   3780.3500000              0.0140340
    860.4740000              0.0690970
    242.1450000              0.2374520
     77.3349000              0.4830340
     26.2470000              0.3398560
SP   6   1.00
    491.7650000             -0.0022974              0.0039894
    116.9840000             -0.0307140              0.0303180
     37.4153000             -0.1125280              0.1298800
     13.7834000              0.0450160              0.3279510
      5.4521500              0.5893530              0.4535270
      2.2258800              0.4652060              0.2521540
SP   3   1.00
      3.1864900             -0.2518300             -0.0142990
      1.1442700              0.0615890              0.3235720
      0.4203770              1.0601800              0.7435070
SP   1   1.00
      0.1426570              1.0000000              1.0000000
D    1   1.00
      1.5000000              1.0000000
D    1   1.00
      0.3750000              1.0000000
F    1   1.00
      0.7000000              1.0000000
****
}


set {
reference rhf                          
freeze_core true
e_convergence 10                       
d_convergence 10                      
dft_spherical_points 1202
dft_radial_points 99
}

e = energy('b3lyp')

print_out('Grab this energy {0}'.format(e))
--------------------------------------------------------------------------

  Memory set to  13.039 GiB by Python driver.

Scratch directory: /tmp/

*** tstart() called on n076
*** at Fri Nov 12 17:34:17 2021

   => Loading Basis Set <=

    Name: ANONYMOUS479D208D
    Role: ORBITAL
    Keyword: BASIS
    atoms 1, 6-14 entry H          line    15 inputblock 6-31g_2dfp_ 
    atoms 2-5     entry C          line    48 inputblock 6-31g_2dfp_ 


         ---------------------------------------------------------
                                   SCF
               by Justin Turney, Rob Parrish, Andy Simmonett
                          and Daniel G. A. Smith
                              RKS Reference
                        4 Threads,  13351 MiB Core
         ---------------------------------------------------------

  ==> Geometry <==

    Molecular point group: c1
    Full point group: C1

    Geometry (in Bohr), charge = 0, multiplicity = 1:

       Center              X                  Y                   Z               Mass       
    ------------   -----------------  -----------------  -----------------  -----------------
         H           -2.775780010345    -0.004516523073     0.000001133271     1.007825032230
         C           -0.704542776645    -0.001425607973     0.000000417671    12.000000000000
         C            0.200499621855    -1.370290126973    -2.382287063729    12.000000000000
         C            0.201901170855     2.740818922227    -0.000331231129    12.000000000000
         C            0.200500387555    -1.369714161173     2.382618481671    12.000000000000
         H            2.265606340155    -1.407741255773    -2.445927402429     1.007825032230
         H           -0.470050547945    -0.420877513773    -4.090449953729     1.007825032230
         H           -0.469415262545    -3.325583901073    -2.428179603729     1.007825032230
         H            2.267327416055     2.810971325227    -0.003964350129     1.007825032230
         H           -0.464236130745     3.749818246827     1.673371433071     1.007825032230
         H           -0.469352294145     3.754499303127    -1.672238842329     1.007825032230
         H            2.265596997455    -1.400868403273     2.449877982571     1.007825032230
         H           -0.464293710245    -3.324230025973     2.423564230771     1.007825032230
         H           -0.475173722645    -0.424196490773     4.093938175171     1.007825032230

  Running in c1 symmetry.

  Rotational constants: A =      0.26153  B =      0.25994  C =      0.15137 [cm^-1]
  Rotational constants: A =   7840.50673  B =   7792.75061  C =   4537.82630 [MHz]
  Nuclear repulsion =  134.696941226955687

  Charge       = 0
  Multiplicity = 1
  Electrons    = 34
  Nalpha       = 17
  Nbeta        = 17

  ==> Algorithm <==

  SCF Algorithm Type is DF.
  DIIS enabled.
  MOM disabled.
  Fractional occupation disabled.
  Guess Type is SAD.
  Energy threshold   = 1.00e-10
  Density threshold  = 1.00e-10
  Integral threshold = 0.00e+00

  ==> Primary Basis <==

  Basis Set: ANONYMOUS479D208D
    Blend: 6-31G_2DFP_
    Number of shells: 72
    Number of basis function: 184
    Number of Cartesian functions: 204
    Spherical Harmonics?: true
    Max angular momentum: 3

  ==> DFT Potential <==

   => Composite Functional: B3LYP <= 

    B3LYP Hyb-GGA Exchange-Correlation Functional

    P. J. Stephens, F. J. Devlin, C. F. Chabalowski, and M. J. Frisch, J. Phys. Chem. 98, 11623 (1994)

    Deriv               =              1
    GGA                 =           TRUE
    Meta                =          FALSE

    Exchange Hybrid     =           TRUE
    MP2 Hybrid          =          FALSE

   => Exchange Functionals <=

    0.0800   Slater exchange
    0.7200         Becke 88

   => Exact (HF) Exchange <=

    0.2000               HF 

   => Correlation Functionals <=

    0.1900   Vosko, Wilk & Nusair (VWN5_RPA)
    0.8100   Lee, Yang & Parr

   => Molecular Quadrature <=

    Radial Scheme          =       TREUTLER
    Pruning Scheme         =           NONE
    Nuclear Scheme         =       TREUTLER

    BS radius alpha        =              1
    Pruning alpha          =              1
    Radial Points          =             99
    Spherical Points       =           1202
    Total Points           =        1546461
    Total Blocks           =          10319
    Max Points             =            256
    Max Functions          =            184
    Weights Tolerance      =       1.00E-15

   => Loading Basis Set <=

    Name: (ANONYMOUS479D208D AUX)
    Role: JKFIT
    Keyword: DF_BASIS_SCF
    atoms 1, 6-14 entry H          line    18 file /opt/psi/4/master/share/psi4/basis/def2-universal-jkfit.gbs 
    atoms 2-5     entry C          line   198 file /opt/psi/4/master/share/psi4/basis/def2-universal-jkfit.gbs 

  ==> Integral Setup <==

  DFHelper Memory: AOs need 0.129 GiB; user supplied 3.151 GiB. Using in-core AOs.

  ==> MemDFJK: Density-Fitted J/K Matrices <==

    J tasked:                   Yes
    K tasked:                   Yes
    wK tasked:                   No
    OpenMP threads:               4
    Memory [MiB]:              3226
    Algorithm:                 Core
    Schwarz Cutoff:           1E-12
    Mask sparsity (%):       1.1697
    Fitting Condition:        1E-10

   => Auxiliary Basis Set <=

  Basis Set: (ANONYMOUS479D208D AUX)
    Blend: DEF2-UNIVERSAL-JKFIT
    Number of shells: 160
    Number of basis function: 480
    Number of Cartesian functions: 556
    Spherical Harmonics?: true
    Max angular momentum: 4

  Cached 100.0% of DFT collocation blocks in 6.628 [GiB].

  Minimum eigenvalue in the overlap matrix is 1.3313854787E-03.
  Reciprocal condition number of the overlap matrix is 2.1019245784E-04.
    Using symmetric orthogonalization.

  ==> Pre-Iterations <==

  SCF Guess: Superposition of Atomic Densities via on-the-fly atomic UHF (no occupation information).

   -------------------------
    Irrep   Nso     Nmo    
   -------------------------
     A        184     184 
   -------------------------
    Total     184     184
   -------------------------

  ==> Iterations <==

                           Total Energy        Delta E     RMS |[F,P]|

   @DF-RKS iter SAD:  -157.74017550065432   -1.57740e+02   0.00000e+00 
   @DF-RKS iter   1:  -158.05180026558230   -3.11625e-01   4.78761e-03 DIIS
   @DF-RKS iter   2:  -157.82410523294092    2.27695e-01   5.81981e-03 DIIS
   @DF-RKS iter   3:  -158.47126101661104   -6.47156e-01   4.68908e-04 DIIS
   @DF-RKS iter   4:  -158.47412806376920   -2.86705e-03   2.27289e-04 DIIS
   @DF-RKS iter   5:  -158.47493912843365   -8.11065e-04   3.51493e-05 DIIS
   @DF-RKS iter   6:  -158.47495847715470   -1.93487e-05   7.03001e-06 DIIS
   @DF-RKS iter   7:  -158.47495943341755   -9.56263e-07   1.32856e-06 DIIS
   @DF-RKS iter   8:  -158.47495946947896   -3.60614e-08   6.15873e-08 DIIS
   @DF-RKS iter   9:  -158.47495946952279   -4.38263e-11   4.06376e-08 DIIS
   @DF-RKS iter  10:  -158.47495946955047   -2.76827e-11   7.09731e-09 DIIS
   @DF-RKS iter  11:  -158.47495946955132   -8.52651e-13   6.07437e-10 DIIS
   @DF-RKS iter  12:  -158.47495946955138   -5.68434e-14   5.16651e-11 DIIS
  Energy and wave function converged.


  ==> Post-Iterations <==

    Orbital Energies [Eh]
    ---------------------

    Doubly Occupied:                                                      

       1A    -10.178079     2A    -10.162522     3A    -10.162491  
       4A    -10.162230     5A     -0.798840     6A     -0.677809  
       7A     -0.677564     8A     -0.555582     9A     -0.459541  
      10A     -0.426775    11A     -0.426269    12A     -0.379218  
      13A     -0.378946    14A     -0.358916    15A     -0.323084  
      16A     -0.322934    17A     -0.319147  

    Virtual:                                                              

      18A      0.073479    19A      0.122285    20A      0.136962  
      21A      0.137283    22A      0.148186    23A      0.148416  
      24A      0.161221    25A      0.188004    26A      0.188444  
      27A      0.213621    28A      0.216300    29A      0.242108  
      30A      0.242343    31A      0.392832    32A      0.393066  
      33A      0.396165    34A      0.422137    35A      0.422192  
      36A      0.445828    37A      0.484717    38A      0.485592  
      39A      0.534320    40A      0.565202    41A      0.565244  
      42A      0.568280    43A      0.588848    44A      0.589531  
      45A      0.615778    46A      0.616171    47A      0.616372  
      48A      0.628017    49A      0.631113    50A      0.654803  
      51A      0.655039    52A      0.674298    53A      0.674474  
      54A      0.676116    55A      0.795420    56A      0.796528  
      57A      0.863701    58A      0.897142    59A      0.898512  
      60A      0.945280    61A      0.954650    62A      0.999674  
      63A      1.000144    64A      1.055869    65A      1.056401  
      66A      1.056739    67A      1.070828    68A      1.135074  
      69A      1.169887    70A      1.170863    71A      1.214829  
      72A      1.215863    73A      1.270496    74A      1.298489  
      75A      1.298889    76A      1.316432    77A      1.317659  
      78A      1.329299    79A      1.377821    80A      1.377857  
      81A      1.398956    82A      1.414464    83A      1.415820  
      84A      1.425488    85A      1.475513    86A      1.497221  
      87A      1.503236    88A      1.504382    89A      1.538472  
      90A      1.582842    91A      1.583288    92A      1.671463  
      93A      1.673547    94A      1.682169    95A      1.705578  
      96A      1.706550    97A      1.786878    98A      1.796974  
      99A      1.835549   100A      1.836008   101A      2.009226  
     102A      2.011572   103A      2.027462   104A      2.074188  
     105A      2.077235   106A      2.293034   107A      2.724016  
     108A      2.725046   109A      2.825832   110A      2.827109  
     111A      2.870118   112A      2.871300   113A      2.931454  
     114A      2.932042   115A      2.947151   116A      2.947277  
     117A      2.948267   118A      2.974506   119A      3.004229  
     120A      3.005689   121A      3.137731   122A      3.163801  
     123A      3.166412   124A      3.168985   125A      3.251661  
     126A      3.384951   127A      3.385742   128A      3.425132  
     129A      3.460359   130A      3.470516   131A      3.471167  
     132A      3.512786   133A      3.512878   134A      3.563408  
     135A      3.563588   136A      3.597411   137A      3.613691  
     138A      3.621035   139A      3.621266   140A      3.680478  
     141A      3.681358   142A      3.719349   143A      3.721539  
     144A      3.723004   145A      3.891318   146A      3.897510  
     147A      3.898083   148A      4.045981   149A      4.108415  
     150A      4.110041   151A      4.130965   152A      4.147442  
     153A      4.148995   154A      4.171621   155A      4.193582  
     156A      4.216147   157A      4.218613   158A      4.263029  
     159A      4.264611   160A      4.377942   161A      4.378995  
     162A      4.382353   163A      4.481510   164A      4.516288  
     165A      4.518511   166A      4.532898   167A      4.570145  
     168A      4.570634   169A      4.611411   170A      4.663673  
     171A      4.663750   172A      4.735036   173A      4.736593  
     174A      4.755918   175A      4.981280   176A      5.005361  
     177A      5.006208   178A      5.176274   179A      5.255161  
     180A      5.255567   181A      5.333463   182A      5.367541  
     183A      5.368018   184A      5.389873  

    Final Occupation by Irrep:
              A 
    DOCC [    17 ]

  @DF-RKS Final Energy:  -158.47495946955138

   => Energetics <=

    Nuclear Repulsion Energy =            134.6969412269556869
    One-Electron Energy =                -477.9661245020082561
    Two-Electron Energy =                 205.4308225861106791
    DFT Exchange-Correlation Energy =     -20.6365987806094751
    Empirical Dispersion Energy =           0.0000000000000000
    VV10 Nonlocal Energy =                  0.0000000000000000
    Total Energy =                       -158.4749594695513792

Computation Completed


Properties will be evaluated at   0.000000,   0.000000,   0.000000 [a0]

Properties computed using the SCF density matrix

  Nuclear Dipole Moment: [e a0]
     X:     0.6004      Y:     0.0036      Z:    -0.0000

  Electronic Dipole Moment: [e a0]
     X:    -0.6343      Y:    -0.0037      Z:     0.0000

  Dipole Moment: [e a0]
     X:    -0.0340      Y:    -0.0001      Z:     0.0000     Total:     0.0340

  Dipole Moment: [D]
     X:    -0.0863      Y:    -0.0002      Z:     0.0000     Total:     0.0863


*** tstop() called on n076 at Fri Nov 12 17:34:47 2021
Module time:
	user time   =     115.26 seconds =       1.92 minutes
	system time =       1.86 seconds =       0.03 minutes
	total time  =         30 seconds =       0.50 minutes
Total time:
	user time   =     115.26 seconds =       1.92 minutes
	system time =       1.86 seconds =       0.03 minutes
	total time  =         30 seconds =       0.50 minutes
Grab this energy -158.47495946955138
    Psi4 stopped on: Friday, 12 November 2021 05:34PM
    Psi4 wall time for execution: 0:00:30.06

*** Psi4 exiting successfully. Buy a developer a beer!
