
    -----------------------------------------------------------------------
          Psi4: An Open-Source Ab Initio Electronic Structure Package
                               Psi4 1.4a2.dev629 

                         Git: Rev {master} 2938fc2 dirty


    D. G. A. Smith, L. A. Burns, A. C. Simmonett, R. M. Parrish,
    M. C. Schieber, R. Galvelis, P. Kraus, H. Kruse, R. Di Remigio,
    A. Alenaizan, A. M. James, S. Lehtola, J. P. Misiewicz, M. Scheurer,
    R. A. Shaw, J. B. Schriber, Y. Xie, Z. L. Glick, D. A. Sirianni,
    J. S. O'Brien, J. M. Waldrop, A. Kumar, E. G. Hohenstein,
    B. P. Pritchard, B. R. Brooks, H. F. Schaefer III, A. Yu. Sokolov,
    K. Patkowski, A. E. DePrince III, U. Bozkaya, R. A. King,
    F. A. Evangelista, J. M. Turney, T. D. Crawford, C. D. Sherrill,
    J. Chem. Phys. 152(18) 184108 (2020). https://doi.org/10.1063/5.0006002

                            Additional Code Authors
    E. T. Seidl, C. L. Janssen, E. F. Valeev, M. L. Leininger,
    J. F. Gonthier, R. M. Richard, H. R. McAlexander, M. Saitow, X. Wang,
    P. Verma, and M. H. Lechner

             Previous Authors, Complete List of Code Contributors,
                       and Citations for Specific Modules
    https://github.com/psi4/psi4/blob/master/codemeta.json
    https://github.com/psi4/psi4/graphs/contributors
    http://psicode.org/psi4manual/master/introduction.html#citing-psifour

    -----------------------------------------------------------------------


    Psi4 started on: Friday, 12 November 2021 04:23PM

    Process ID: 7562
    Host:       n086
    PSIDATADIR: /opt/psi/4/master/share/psi4
    Memory:     500.0 MiB
    Threads:    4
    
  ==> Input File <==

--------------------------------------------------------------------------
import os
memory 14 GB 
 
molecule {
 H   -2.7757832774   -0.0000005311    0.0015762521
 C   -0.7045475984   -0.0000011666   -0.0024229952
 C    0.1989842938   -1.3730999432   -2.3789823251
 C    0.2009679367    2.7457846134   -0.0007026464
 C    0.2029530915   -1.3726854292    2.3768590764
 H    2.2664003095   -1.4093923157   -2.4403356668
 H   -0.4680979548   -0.4289690212   -4.0898913994
 H   -0.4680420673   -3.3276493209   -2.4164406883
 H    2.2661826678    2.8183897057    0.0008042687
 H   -0.4686967701    3.7569902602    1.6733341492
 H   -0.4688056608    3.7568110513   -1.6730107638
 H    2.2659665265   -1.4089965702    2.4412587521
 H   -0.4694620100   -3.3272662328    2.4175318677
 H   -0.4694090069   -0.4299150998    4.0904221187
units bohr
}

basis {

assign 6-31g_2dfp_

[ 6-31g_2dfp_ ]

spherical

!----------------------------------------------------------------------
! Basis Set Exchange
! Version v0.8.13
! https://www.basissetexchange.org
!----------------------------------------------------------------------
!   Basis set: 6-31G(2df,p)
! Description: 6-31G(2df,p)
!        Role: orbital
!     Version: 0  (Data from the original Basis Set Exchange)
!----------------------------------------------------------------------


****
H     0
S    3   1.00
     18.7311370              0.03349460
      2.8253937              0.23472695
      0.6401217              0.81375733
S    1   1.00
      0.1612778              1.00000000
P    1   1.00
      1.5000000              1.0000000
P    1   1.00
      0.3750000              1.0000000
****
B     0
S    6   1.00
   2068.8823000              0.0018663
    310.6495700              0.0142515
     70.6830330              0.0695516
     19.8610800              0.2325729
      6.2993048              0.4670787
      2.1270270              0.3634314
SP   3   1.00
      4.7279710             -0.1303938              0.0745976
      1.1903377             -0.1307889              0.3078467
      0.3594117              1.1309444              0.7434568
SP   1   1.00
      0.1267512              1.0000000              1.0000000
D    1   1.00
      0.8020000              1.0000000
D    1   1.00
      0.2005000              1.0000000
F    1   1.00
      0.5000000              1.0000000
****
C     0
S    6   1.00
   3047.5249000              0.0018347
    457.3695100              0.0140373
    103.9486900              0.0688426
     29.2101550              0.2321844
      9.2866630              0.4679413
      3.1639270              0.3623120
SP   3   1.00
      7.8682724             -0.1193324              0.0689991
      1.8812885             -0.1608542              0.3164240
      0.5442493              1.1434564              0.7443083
SP   1   1.00
      0.1687144              1.0000000              1.0000000
D    1   1.00
      1.2520000              1.0000000
D    1   1.00
      0.3130000              1.0000000
F    1   1.00
      0.8000000              1.0000000
****
N     0
S    6   1.00
   4173.5110000              0.0018348
    627.4579000              0.0139950
    142.9021000              0.0685870
     40.2343300              0.2322410
     12.8202100              0.4690700
      4.3904370              0.3604550
SP   3   1.00
     11.6263580             -0.1149610              0.0675800
      2.7162800             -0.1691180              0.3239070
      0.7722180              1.1458520              0.7408950
SP   1   1.00
      0.2120313              1.0000000              1.0000000
D    1   1.00
      1.8260000              1.0000000
D    1   1.00
      0.4565000              1.0000000
F    1   1.00
      1.0000000              1.0000000
****
O     0
S    6   1.00
   5484.6717000              0.0018311
    825.2349500              0.0139501
    188.0469600              0.0684451
     52.9645000              0.2327143
     16.8975700              0.4701930
      5.7996353              0.3585209
SP   3   1.00
     15.5396160             -0.1107775              0.0708743
      3.5999336             -0.1480263              0.3397528
      1.0137618              1.1307670              0.7271586
SP   1   1.00
      0.2700058              1.0000000              1.0000000
D    1   1.00
      2.5840000              1.0000000
D    1   1.00
      0.6460000              1.0000000
F    1   1.00
      1.4000000              1.0000000
****
F     0
S    6   1.00
   7001.7130900              0.0018196169
   1051.3660900              0.0139160796
    239.2856900              0.0684053245
     67.3974453              0.233185760
     21.5199573              0.471267439
      7.40310130             0.356618546
SP   3   1.00
     20.8479528             -0.108506975            0.0716287243
      4.80830834            -0.146451658            0.3459121030
      1.34406986             1.128688580            0.7224699570
SP   1   1.00
      0.358151393            1.0000000              1.0000000
D    1   1.00
      3.5000000              1.0000000
D    1   1.00
      0.8750000              1.0000000
F    1   1.00
      1.8500000              1.0000000
****
Al     0
S    6   1.00
  13983.1000000              0.00194267
   2098.7500000              0.0148599
    477.7050000              0.0728494
    134.3600000              0.2468300
     42.8709000              0.4872580
     14.5189000              0.3234960
SP   6   1.00
    239.6680000             -0.00292619             0.00460285
     57.4419000             -0.0374080              0.0331990
     18.2859000             -0.1144870              0.1362820
      6.5991400              0.1156350              0.3304760
      2.4904900              0.6125950              0.4491460
      0.9445400              0.3937990              0.2657040
SP   3   1.00
      1.2779000             -0.2276060             -0.0175130
      0.3975900              0.00144583             0.2445330
      0.1600950              1.0927900              0.8049340
SP   1   1.00
      0.0556577              1.0000000              1.0000000
D    1   1.00
      0.6500000              1.0000000
D    1   1.00
      0.1625000              1.0000000
F    1   1.00
      0.2500000              1.0000000
****
Si     0
S    6   1.00
  16115.9000000              0.00195948
   2425.5800000              0.01492880
    553.8670000              0.07284780
    156.3400000              0.24613000
     50.0683000              0.48591400
     17.0178000              0.32500200
SP   6   1.00
    292.7180000             -0.00278094             0.00443826
     69.8731000             -0.03571460             0.03266790
     22.3363000             -0.11498500             0.13472100
      8.1503900              0.09356340             0.32867800
      3.1345800              0.60301700             0.44964000
      1.2254300              0.41895900             0.26137200
SP   3   1.00
      1.7273800             -0.24463000            -0.01779510
      0.5729220              0.00431572             0.25353900
      0.2221920              1.09818000             0.80066900
SP   1   1.00
      0.0778369              1.00000000             1.00000000
D    1   1.00
      0.9000000              1.0000000
D    1   1.00
      0.2250000              1.0000000
F    1   1.00
      0.3200000              1.0000000
****
P     0
S    6   1.00
  19413.3000000              0.0018516
   2909.4200000              0.0142062
    661.3640000              0.0699995
    185.7590000              0.2400790
     59.1943000              0.4847620
     20.0310000              0.3352000
SP   6   1.00
    339.4780000             -0.00278217             0.00456462
     81.0101000             -0.0360499              0.03369360
     25.8780000             -0.1166310              0.13975500
      9.4522100              0.0968328              0.33936200
      3.6656600              0.6144180              0.45092100
      1.4674600              0.4037980              0.23858600
SP   3   1.00
      2.1562300             -0.2529230             -0.01776530
      0.7489970              0.0328517              0.27405800
      0.2831450              1.0812500              0.78542100
SP   1   1.00
      0.0998317              1.0000000              1.00000000
D    1   1.00
      1.1000000              1.0000000
D    1   1.00
      0.2750000              1.0000000
F    1   1.00
      0.4500000              1.0000000
****
S     0
S    6   1.00
  21917.1000000              0.0018690
   3301.4900000              0.0142300
    754.1460000              0.0696960
    212.7110000              0.2384870
     67.9896000              0.4833070
     23.0515000              0.3380740
SP   6   1.00
    423.7350000             -0.0023767              0.0040610
    100.7100000             -0.0316930              0.0306810
     32.1599000             -0.1133170              0.1304520
     11.8079000              0.0560900              0.3272050
      4.6311000              0.5922550              0.4528510
      1.8702500              0.4550060              0.2560420
SP   3   1.00
      2.6158400             -0.2503740             -0.0145110
      0.9221670              0.0669570              0.3102630
      0.3412870              1.0545100              0.7544830
SP   1   1.00
      0.1171670              1.0000000              1.0000000
D    1   1.00
      1.3000000              1.0000000
D    1   1.00
      0.3250000              1.0000000
F    1   1.00
      0.5500000              1.0000000
****
Cl     0
S    6   1.00
  25180.1000000              0.0018330
   3780.3500000              0.0140340
    860.4740000              0.0690970
    242.1450000              0.2374520
     77.3349000              0.4830340
     26.2470000              0.3398560
SP   6   1.00
    491.7650000             -0.0022974              0.0039894
    116.9840000             -0.0307140              0.0303180
     37.4153000             -0.1125280              0.1298800
     13.7834000              0.0450160              0.3279510
      5.4521500              0.5893530              0.4535270
      2.2258800              0.4652060              0.2521540
SP   3   1.00
      3.1864900             -0.2518300             -0.0142990
      1.1442700              0.0615890              0.3235720
      0.4203770              1.0601800              0.7435070
SP   1   1.00
      0.1426570              1.0000000              1.0000000
D    1   1.00
      1.5000000              1.0000000
D    1   1.00
      0.3750000              1.0000000
F    1   1.00
      0.7000000              1.0000000
****
}


set {
reference rhf                          
freeze_core true
e_convergence 10                       
d_convergence 10                      
dft_spherical_points 1202
dft_radial_points 99
}

e = energy('b3lyp')

print_out('Grab this energy {0}'.format(e))
--------------------------------------------------------------------------

  Memory set to  13.039 GiB by Python driver.

Scratch directory: /tmp/

*** tstart() called on n086
*** at Fri Nov 12 16:23:01 2021

   => Loading Basis Set <=

    Name: ANONYMOUSA8BD1F03
    Role: ORBITAL
    Keyword: BASIS
    atoms 1, 6-14 entry H          line    15 inputblock 6-31g_2dfp_ 
    atoms 2-5     entry C          line    48 inputblock 6-31g_2dfp_ 


         ---------------------------------------------------------
                                   SCF
               by Justin Turney, Rob Parrish, Andy Simmonett
                          and Daniel G. A. Smith
                              RKS Reference
                        4 Threads,  13351 MiB Core
         ---------------------------------------------------------

  ==> Geometry <==

    Molecular point group: c1
    Full point group: C1

    Geometry (in Bohr), charge = 0, multiplicity = 1:

       Center              X                  Y                   Z               Mass       
    ------------   -----------------  -----------------  -----------------  -----------------
         H           -2.775783547837    -0.000000166650     0.002569682865     1.007825032230
         C           -0.704547868837    -0.000000802150    -0.001429564435    12.000000000000
         C            0.198984023363    -1.373099578750    -2.377988894335    12.000000000000
         C            0.200967666263     2.745784977850     0.000290784365    12.000000000000
         C            0.202952821063    -1.372685064750     2.377852507165    12.000000000000
         H            2.266400039063    -1.409391951250    -2.439342236035     1.007825032230
         H           -0.468098225237    -0.428968656750    -4.088897968635     1.007825032230
         H           -0.468042337737    -3.327648956450    -2.415447257535     1.007825032230
         H            2.266182397363     2.818390070150     0.001797699465     1.007825032230
         H           -0.468697040537     3.756990624650     1.674327579965     1.007825032230
         H           -0.468805931237     3.756811415750    -1.672017333035     1.007825032230
         H            2.265966256063    -1.408996205750     2.442252182865     1.007825032230
         H           -0.469462280437    -3.327265868350     2.418525298465     1.007825032230
         H           -0.469409277337    -0.429914735350     4.091415549465     1.007825032230

  Running in c1 symmetry.

  Rotational constants: A =      0.26076  B =      0.26071  C =      0.15137 [cm^-1]
  Rotational constants: A =   7817.25108  B =   7815.87830  C =   4537.83581 [MHz]
  Nuclear repulsion =  134.696855415434982

  Charge       = 0
  Multiplicity = 1
  Electrons    = 34
  Nalpha       = 17
  Nbeta        = 17

  ==> Algorithm <==

  SCF Algorithm Type is DF.
  DIIS enabled.
  MOM disabled.
  Fractional occupation disabled.
  Guess Type is SAD.
  Energy threshold   = 1.00e-10
  Density threshold  = 1.00e-10
  Integral threshold = 0.00e+00

  ==> Primary Basis <==

  Basis Set: ANONYMOUSA8BD1F03
    Blend: 6-31G_2DFP_
    Number of shells: 72
    Number of basis function: 184
    Number of Cartesian functions: 204
    Spherical Harmonics?: true
    Max angular momentum: 3

  ==> DFT Potential <==

   => Composite Functional: B3LYP <= 

    B3LYP Hyb-GGA Exchange-Correlation Functional

    P. J. Stephens, F. J. Devlin, C. F. Chabalowski, and M. J. Frisch, J. Phys. Chem. 98, 11623 (1994)

    Deriv               =              1
    GGA                 =           TRUE
    Meta                =          FALSE

    Exchange Hybrid     =           TRUE
    MP2 Hybrid          =          FALSE

   => Exchange Functionals <=

    0.0800   Slater exchange
    0.7200         Becke 88

   => Exact (HF) Exchange <=

    0.2000               HF 

   => Correlation Functionals <=

    0.1900   Vosko, Wilk & Nusair (VWN5_RPA)
    0.8100   Lee, Yang & Parr

   => Molecular Quadrature <=

    Radial Scheme          =       TREUTLER
    Pruning Scheme         =           NONE
    Nuclear Scheme         =       TREUTLER

    BS radius alpha        =              1
    Pruning alpha          =              1
    Radial Points          =             99
    Spherical Points       =           1202
    Total Points           =        1546591
    Total Blocks           =          10382
    Max Points             =            256
    Max Functions          =            184
    Weights Tolerance      =       1.00E-15

   => Loading Basis Set <=

    Name: (ANONYMOUSA8BD1F03 AUX)
    Role: JKFIT
    Keyword: DF_BASIS_SCF
    atoms 1, 6-14 entry H          line    18 file /opt/psi/4/master/share/psi4/basis/def2-universal-jkfit.gbs 
    atoms 2-5     entry C          line   198 file /opt/psi/4/master/share/psi4/basis/def2-universal-jkfit.gbs 

  ==> Integral Setup <==

  DFHelper Memory: AOs need 0.129 GiB; user supplied 3.159 GiB. Using in-core AOs.

  ==> MemDFJK: Density-Fitted J/K Matrices <==

    J tasked:                   Yes
    K tasked:                   Yes
    wK tasked:                   No
    OpenMP threads:               4
    Memory [MiB]:              3234
    Algorithm:                 Core
    Schwarz Cutoff:           1E-12
    Mask sparsity (%):       1.1697
    Fitting Condition:        1E-10

   => Auxiliary Basis Set <=

  Basis Set: (ANONYMOUSA8BD1F03 AUX)
    Blend: DEF2-UNIVERSAL-JKFIT
    Number of shells: 160
    Number of basis function: 480
    Number of Cartesian functions: 556
    Spherical Harmonics?: true
    Max angular momentum: 4

  Cached 100.0% of DFT collocation blocks in 6.620 [GiB].

  Minimum eigenvalue in the overlap matrix is 1.3314079287E-03.
  Reciprocal condition number of the overlap matrix is 2.1019717461E-04.
    Using symmetric orthogonalization.

  ==> Pre-Iterations <==

  SCF Guess: Superposition of Atomic Densities via on-the-fly atomic UHF (no occupation information).

   -------------------------
    Irrep   Nso     Nmo    
   -------------------------
     A        184     184 
   -------------------------
    Total     184     184
   -------------------------

  ==> Iterations <==

                           Total Energy        Delta E     RMS |[F,P]|

   @DF-RKS iter SAD:  -157.74016447260672   -1.57740e+02   0.00000e+00 
   @DF-RKS iter   1:  -158.05180386509136   -3.11639e-01   4.78760e-03 DIIS
   @DF-RKS iter   2:  -157.82411291620031    2.27691e-01   5.81978e-03 DIIS
   @DF-RKS iter   3:  -158.47126401921784   -6.47151e-01   4.68904e-04 DIIS
   @DF-RKS iter   4:  -158.47413102801409   -2.86701e-03   2.27285e-04 DIIS
   @DF-RKS iter   5:  -158.47494206540065   -8.11037e-04   3.51486e-05 DIIS
   @DF-RKS iter   6:  -158.47496141320522   -1.93478e-05   7.02997e-06 DIIS
   @DF-RKS iter   7:  -158.47496236946472   -9.56259e-07   1.32867e-06 DIIS
   @DF-RKS iter   8:  -158.47496240553011   -3.60654e-08   6.28445e-08 DIIS
   @DF-RKS iter   9:  -158.47496240557322   -4.31157e-11   4.29175e-08 DIIS
   @DF-RKS iter  10:  -158.47496240560378   -3.05533e-11   6.86815e-09 DIIS
   @DF-RKS iter  11:  -158.47496240560466   -8.81073e-13   5.97331e-10 DIIS
   @DF-RKS iter  12:  -158.47496240560454    1.13687e-13   3.15442e-11 DIIS
  Energy and wave function converged.


  ==> Post-Iterations <==

    Orbital Energies [Eh]
    ---------------------

    Doubly Occupied:                                                      

       1A    -10.178079     2A    -10.162447     3A    -10.162422  
       4A    -10.162375     5A     -0.798838     6A     -0.677769  
       7A     -0.677604     8A     -0.555582     9A     -0.459540  
      10A     -0.426725    11A     -0.426319    12A     -0.379206  
      13A     -0.378962    14A     -0.358915    15A     -0.323146  
      16A     -0.322855    17A     -0.319163  

    Virtual:                                                              

      18A      0.073479    19A      0.122284    20A      0.137106  
      21A      0.137141    22A      0.148265    23A      0.148336  
      24A      0.161220    25A      0.188153    26A      0.188293  
      27A      0.213643    28A      0.216280    29A      0.242103  
      30A      0.242344    31A      0.392760    32A      0.393156  
      33A      0.396139    34A      0.422115    35A      0.422211  
      36A      0.445830    37A      0.485036    38A      0.485273  
      39A      0.534315    40A      0.565144    41A      0.565312  
      42A      0.568267    43A      0.589084    44A      0.589302  
      45A      0.615769    46A      0.616063    47A      0.616495  
      48A      0.628012    49A      0.631115    50A      0.654856  
      51A      0.654980    52A      0.674357    53A      0.674417  
      54A      0.676111    55A      0.795939    56A      0.796012  
      57A      0.863705    58A      0.897782    59A      0.897879  
      60A      0.945320    61A      0.954639    62A      0.999803  
      63A      0.999964    64A      1.055902    65A      1.056450  
      66A      1.056650    67A      1.070809    68A      1.135087  
      69A      1.170055    70A      1.170691    71A      1.215167  
      72A      1.215522    73A      1.270517    74A      1.298476  
      75A      1.298869    76A      1.316894    77A      1.317242  
      78A      1.329264    79A      1.377545    80A      1.378129  
      81A      1.398967    82A      1.415112    83A      1.415141  
      84A      1.425497    85A      1.475524    86A      1.497276  
      87A      1.503632    88A      1.503949    89A      1.538464  
      90A      1.582997    91A      1.583133    92A      1.672383  
      93A      1.672628    94A      1.682161    95A      1.705631  
      96A      1.706510    97A      1.786879    98A      1.796996  
      99A      1.835658   100A      1.835877   101A      2.009820  
     102A      2.010968   103A      2.027515   104A      2.075637  
     105A      2.075687   106A      2.293040   107A      2.724502  
     108A      2.724561   109A      2.825845   110A      2.827107  
     111A      2.870681   112A      2.870724   113A      2.931569  
     114A      2.931927   115A      2.947139   116A      2.947628  
     117A      2.947929   118A      2.974494   119A      3.004519  
     120A      3.005383   121A      3.137840   122A      3.163791  
     123A      3.167322   124A      3.167961   125A      3.251673  
     126A      3.385255   127A      3.385444   128A      3.425145  
     129A      3.460354   130A      3.470675   131A      3.471027  
     132A      3.512703   133A      3.512953   134A      3.563419  
     135A      3.563559   136A      3.597519   137A      3.613585  
     138A      3.620989   139A      3.621292   140A      3.680464  
     141A      3.681363   142A      3.720284   143A      3.720456  
     144A      3.723151   145A      3.891312   146A      3.897371  
     147A      3.898214   148A      4.045990   149A      4.109021  
     150A      4.109443   151A      4.130951   152A      4.148052  
     153A      4.148394   154A      4.171619   155A      4.193589  
     156A      4.217113   157A      4.217627   158A      4.263778  
     159A      4.263832   160A      4.377999   161A      4.378560  
     162A      4.382709   163A      4.481508   164A      4.516653  
     165A      4.518111   166A      4.532918   167A      4.569185  
     168A      4.571558   169A      4.611421   170A      4.663557  
     171A      4.663939   172A      4.735756   173A      4.735829  
     174A      4.755928   175A      4.981297   176A      5.005517  
     177A      5.006008   178A      5.176294   179A      5.255097  
     180A      5.255623   181A      5.333485   182A      5.367476  
     183A      5.368075   184A      5.389856  

    Final Occupation by Irrep:
              A 
    DOCC [    17 ]

  @DF-RKS Final Energy:  -158.47496240560454

   => Energetics <=

    Nuclear Repulsion Energy =            134.6968554154349818
    One-Electron Energy =                -477.9659608372657544
    Two-Electron Energy =                 205.4307398076512072
    DFT Exchange-Correlation Energy =     -20.6365967914249744
    Empirical Dispersion Energy =           0.0000000000000000
    VV10 Nonlocal Energy =                  0.0000000000000000
    Total Energy =                       -158.4749624056045434

Computation Completed


Properties will be evaluated at   0.000000,   0.000000,   0.000000 [a0]

Properties computed using the SCF density matrix

  Nuclear Dipole Moment: [e a0]
     X:     0.6004      Y:     0.0000      Z:     0.0075

  Electronic Dipole Moment: [e a0]
     X:    -0.6343      Y:    -0.0000      Z:    -0.0081

  Dipole Moment: [e a0]
     X:    -0.0340      Y:     0.0000      Z:    -0.0005     Total:     0.0340

  Dipole Moment: [D]
     X:    -0.0863      Y:     0.0000      Z:    -0.0013     Total:     0.0863


*** tstop() called on n086 at Fri Nov 12 16:23:36 2021
Module time:
	user time   =     133.85 seconds =       2.23 minutes
	system time =       1.91 seconds =       0.03 minutes
	total time  =         35 seconds =       0.58 minutes
Total time:
	user time   =     133.85 seconds =       2.23 minutes
	system time =       1.91 seconds =       0.03 minutes
	total time  =         35 seconds =       0.58 minutes
Grab this energy -158.47496240560454
    Psi4 stopped on: Friday, 12 November 2021 04:23PM
    Psi4 wall time for execution: 0:00:34.75

*** Psi4 exiting successfully. Buy a developer a beer!
