
    -----------------------------------------------------------------------
          Psi4: An Open-Source Ab Initio Electronic Structure Package
                               Psi4 1.4a2.dev629 

                         Git: Rev {master} 2938fc2 dirty


    D. G. A. Smith, L. A. Burns, A. C. Simmonett, R. M. Parrish,
    M. C. Schieber, R. Galvelis, P. Kraus, H. Kruse, R. Di Remigio,
    A. Alenaizan, A. M. James, S. Lehtola, J. P. Misiewicz, M. Scheurer,
    R. A. Shaw, J. B. Schriber, Y. Xie, Z. L. Glick, D. A. Sirianni,
    J. S. O'Brien, J. M. Waldrop, A. Kumar, E. G. Hohenstein,
    B. P. Pritchard, B. R. Brooks, H. F. Schaefer III, A. Yu. Sokolov,
    K. Patkowski, A. E. DePrince III, U. Bozkaya, R. A. King,
    F. A. Evangelista, J. M. Turney, T. D. Crawford, C. D. Sherrill,
    J. Chem. Phys. 152(18) 184108 (2020). https://doi.org/10.1063/5.0006002

                            Additional Code Authors
    E. T. Seidl, C. L. Janssen, E. F. Valeev, M. L. Leininger,
    J. F. Gonthier, R. M. Richard, H. R. McAlexander, M. Saitow, X. Wang,
    P. Verma, and M. H. Lechner

             Previous Authors, Complete List of Code Contributors,
                       and Citations for Specific Modules
    https://github.com/psi4/psi4/blob/master/codemeta.json
    https://github.com/psi4/psi4/graphs/contributors
    http://psicode.org/psi4manual/master/introduction.html#citing-psifour

    -----------------------------------------------------------------------


    Psi4 started on: Friday, 12 November 2021 04:46PM

    Process ID: 12045
    Host:       n076
    PSIDATADIR: /opt/psi/4/master/share/psi4
    Memory:     500.0 MiB
    Threads:    4
    
  ==> Input File <==

--------------------------------------------------------------------------
import os
memory 14 GB 
 
molecule {
 H   -2.7757945692   -0.0043029750   -0.0000000090
 C   -0.7044773069   -0.0022862626   -0.0000000048
 C    0.2002356561   -1.3726525299   -2.3760961155
 C    0.2012064467    2.7444619394   -0.0000000017
 C    0.2002356585   -1.3726525318    2.3760961154
 H    2.2676183154   -1.4111068102   -2.4398141035
 H   -0.4686321731   -0.4284671059   -4.0924380865
 H   -0.4694001828   -3.3245652303   -2.4172356931
 H    2.2634109644    2.8196917599   -0.0000000052
 H   -0.4676891415    3.7580094490    1.6734766116
 H   -0.4676891434    3.7580094424   -1.6734766005
 H    2.2676183053   -1.4111068161    2.4398141034
 H   -0.4694001805   -3.3245652263    2.4172356944
 H   -0.4686321689   -0.4284671026    4.0924380949
units bohr
}

basis {

assign 6-31g_2dfp_

[ 6-31g_2dfp_ ]

spherical

!----------------------------------------------------------------------
! Basis Set Exchange
! Version v0.8.13
! https://www.basissetexchange.org
!----------------------------------------------------------------------
!   Basis set: 6-31G(2df,p)
! Description: 6-31G(2df,p)
!        Role: orbital
!     Version: 0  (Data from the original Basis Set Exchange)
!----------------------------------------------------------------------


****
H     0
S    3   1.00
     18.7311370              0.03349460
      2.8253937              0.23472695
      0.6401217              0.81375733
S    1   1.00
      0.1612778              1.00000000
P    1   1.00
      1.5000000              1.0000000
P    1   1.00
      0.3750000              1.0000000
****
B     0
S    6   1.00
   2068.8823000              0.0018663
    310.6495700              0.0142515
     70.6830330              0.0695516
     19.8610800              0.2325729
      6.2993048              0.4670787
      2.1270270              0.3634314
SP   3   1.00
      4.7279710             -0.1303938              0.0745976
      1.1903377             -0.1307889              0.3078467
      0.3594117              1.1309444              0.7434568
SP   1   1.00
      0.1267512              1.0000000              1.0000000
D    1   1.00
      0.8020000              1.0000000
D    1   1.00
      0.2005000              1.0000000
F    1   1.00
      0.5000000              1.0000000
****
C     0
S    6   1.00
   3047.5249000              0.0018347
    457.3695100              0.0140373
    103.9486900              0.0688426
     29.2101550              0.2321844
      9.2866630              0.4679413
      3.1639270              0.3623120
SP   3   1.00
      7.8682724             -0.1193324              0.0689991
      1.8812885             -0.1608542              0.3164240
      0.5442493              1.1434564              0.7443083
SP   1   1.00
      0.1687144              1.0000000              1.0000000
D    1   1.00
      1.2520000              1.0000000
D    1   1.00
      0.3130000              1.0000000
F    1   1.00
      0.8000000              1.0000000
****
N     0
S    6   1.00
   4173.5110000              0.0018348
    627.4579000              0.0139950
    142.9021000              0.0685870
     40.2343300              0.2322410
     12.8202100              0.4690700
      4.3904370              0.3604550
SP   3   1.00
     11.6263580             -0.1149610              0.0675800
      2.7162800             -0.1691180              0.3239070
      0.7722180              1.1458520              0.7408950
SP   1   1.00
      0.2120313              1.0000000              1.0000000
D    1   1.00
      1.8260000              1.0000000
D    1   1.00
      0.4565000              1.0000000
F    1   1.00
      1.0000000              1.0000000
****
O     0
S    6   1.00
   5484.6717000              0.0018311
    825.2349500              0.0139501
    188.0469600              0.0684451
     52.9645000              0.2327143
     16.8975700              0.4701930
      5.7996353              0.3585209
SP   3   1.00
     15.5396160             -0.1107775              0.0708743
      3.5999336             -0.1480263              0.3397528
      1.0137618              1.1307670              0.7271586
SP   1   1.00
      0.2700058              1.0000000              1.0000000
D    1   1.00
      2.5840000              1.0000000
D    1   1.00
      0.6460000              1.0000000
F    1   1.00
      1.4000000              1.0000000
****
F     0
S    6   1.00
   7001.7130900              0.0018196169
   1051.3660900              0.0139160796
    239.2856900              0.0684053245
     67.3974453              0.233185760
     21.5199573              0.471267439
      7.40310130             0.356618546
SP   3   1.00
     20.8479528             -0.108506975            0.0716287243
      4.80830834            -0.146451658            0.3459121030
      1.34406986             1.128688580            0.7224699570
SP   1   1.00
      0.358151393            1.0000000              1.0000000
D    1   1.00
      3.5000000              1.0000000
D    1   1.00
      0.8750000              1.0000000
F    1   1.00
      1.8500000              1.0000000
****
Al     0
S    6   1.00
  13983.1000000              0.00194267
   2098.7500000              0.0148599
    477.7050000              0.0728494
    134.3600000              0.2468300
     42.8709000              0.4872580
     14.5189000              0.3234960
SP   6   1.00
    239.6680000             -0.00292619             0.00460285
     57.4419000             -0.0374080              0.0331990
     18.2859000             -0.1144870              0.1362820
      6.5991400              0.1156350              0.3304760
      2.4904900              0.6125950              0.4491460
      0.9445400              0.3937990              0.2657040
SP   3   1.00
      1.2779000             -0.2276060             -0.0175130
      0.3975900              0.00144583             0.2445330
      0.1600950              1.0927900              0.8049340
SP   1   1.00
      0.0556577              1.0000000              1.0000000
D    1   1.00
      0.6500000              1.0000000
D    1   1.00
      0.1625000              1.0000000
F    1   1.00
      0.2500000              1.0000000
****
Si     0
S    6   1.00
  16115.9000000              0.00195948
   2425.5800000              0.01492880
    553.8670000              0.07284780
    156.3400000              0.24613000
     50.0683000              0.48591400
     17.0178000              0.32500200
SP   6   1.00
    292.7180000             -0.00278094             0.00443826
     69.8731000             -0.03571460             0.03266790
     22.3363000             -0.11498500             0.13472100
      8.1503900              0.09356340             0.32867800
      3.1345800              0.60301700             0.44964000
      1.2254300              0.41895900             0.26137200
SP   3   1.00
      1.7273800             -0.24463000            -0.01779510
      0.5729220              0.00431572             0.25353900
      0.2221920              1.09818000             0.80066900
SP   1   1.00
      0.0778369              1.00000000             1.00000000
D    1   1.00
      0.9000000              1.0000000
D    1   1.00
      0.2250000              1.0000000
F    1   1.00
      0.3200000              1.0000000
****
P     0
S    6   1.00
  19413.3000000              0.0018516
   2909.4200000              0.0142062
    661.3640000              0.0699995
    185.7590000              0.2400790
     59.1943000              0.4847620
     20.0310000              0.3352000
SP   6   1.00
    339.4780000             -0.00278217             0.00456462
     81.0101000             -0.0360499              0.03369360
     25.8780000             -0.1166310              0.13975500
      9.4522100              0.0968328              0.33936200
      3.6656600              0.6144180              0.45092100
      1.4674600              0.4037980              0.23858600
SP   3   1.00
      2.1562300             -0.2529230             -0.01776530
      0.7489970              0.0328517              0.27405800
      0.2831450              1.0812500              0.78542100
SP   1   1.00
      0.0998317              1.0000000              1.00000000
D    1   1.00
      1.1000000              1.0000000
D    1   1.00
      0.2750000              1.0000000
F    1   1.00
      0.4500000              1.0000000
****
S     0
S    6   1.00
  21917.1000000              0.0018690
   3301.4900000              0.0142300
    754.1460000              0.0696960
    212.7110000              0.2384870
     67.9896000              0.4833070
     23.0515000              0.3380740
SP   6   1.00
    423.7350000             -0.0023767              0.0040610
    100.7100000             -0.0316930              0.0306810
     32.1599000             -0.1133170              0.1304520
     11.8079000              0.0560900              0.3272050
      4.6311000              0.5922550              0.4528510
      1.8702500              0.4550060              0.2560420
SP   3   1.00
      2.6158400             -0.2503740             -0.0145110
      0.9221670              0.0669570              0.3102630
      0.3412870              1.0545100              0.7544830
SP   1   1.00
      0.1171670              1.0000000              1.0000000
D    1   1.00
      1.3000000              1.0000000
D    1   1.00
      0.3250000              1.0000000
F    1   1.00
      0.5500000              1.0000000
****
Cl     0
S    6   1.00
  25180.1000000              0.0018330
   3780.3500000              0.0140340
    860.4740000              0.0690970
    242.1450000              0.2374520
     77.3349000              0.4830340
     26.2470000              0.3398560
SP   6   1.00
    491.7650000             -0.0022974              0.0039894
    116.9840000             -0.0307140              0.0303180
     37.4153000             -0.1125280              0.1298800
     13.7834000              0.0450160              0.3279510
      5.4521500              0.5893530              0.4535270
      2.2258800              0.4652060              0.2521540
SP   3   1.00
      3.1864900             -0.2518300             -0.0142990
      1.1442700              0.0615890              0.3235720
      0.4203770              1.0601800              0.7435070
SP   1   1.00
      0.1426570              1.0000000              1.0000000
D    1   1.00
      1.5000000              1.0000000
D    1   1.00
      0.3750000              1.0000000
F    1   1.00
      0.7000000              1.0000000
****
}


set {
reference rhf                          
freeze_core true
e_convergence 10                       
d_convergence 10                      
dft_spherical_points 1202
dft_radial_points 99
}

e = energy('b3lyp')

print_out('Grab this energy {0}'.format(e))
--------------------------------------------------------------------------

  Memory set to  13.039 GiB by Python driver.

Scratch directory: /tmp/

*** tstart() called on n076
*** at Fri Nov 12 16:46:17 2021

   => Loading Basis Set <=

    Name: ANONYMOUS8D314C0B
    Role: ORBITAL
    Keyword: BASIS
    atoms 1, 6-14 entry H          line    15 inputblock 6-31g_2dfp_ 
    atoms 2-5     entry C          line    48 inputblock 6-31g_2dfp_ 


         ---------------------------------------------------------
                                   SCF
               by Justin Turney, Rob Parrish, Andy Simmonett
                          and Daniel G. A. Smith
                              RKS Reference
                        4 Threads,  13351 MiB Core
         ---------------------------------------------------------

  ==> Geometry <==

    Molecular point group: c1
    Full point group: C1

    Geometry (in Bohr), charge = 0, multiplicity = 1:

       Center              X                  Y                   Z               Mass       
    ------------   -----------------  -----------------  -----------------  -----------------
         H           -2.775575809183    -0.003710692241    -0.000000007749     1.007825032230
         C           -0.704258546883    -0.001693979841    -0.000000003549    12.000000000000
         C            0.200454416117    -1.372060247141    -2.376096114249    12.000000000000
         C            0.201425206717     2.745054222159    -0.000000000449    12.000000000000
         C            0.200454418517    -1.372060249041     2.376096116651    12.000000000000
         H            2.267837075417    -1.410514527441    -2.439814102249     1.007825032230
         H           -0.468413413083    -0.427874823141    -4.092438085249     1.007825032230
         H           -0.469181422783    -3.323972947541    -2.417235691849     1.007825032230
         H            2.263629724417     2.820284042659    -0.000000003949     1.007825032230
         H           -0.467470381483     3.758601731759     1.673476612851     1.007825032230
         H           -0.467470383383     3.758601725159    -1.673476599249     1.007825032230
         H            2.267837065317    -1.410514533341     2.439814104651     1.007825032230
         H           -0.469181420483    -3.323972943541     2.417235695651     1.007825032230
         H           -0.468413408883    -0.427874819841     4.092438096151     1.007825032230

  Running in c1 symmetry.

  Rotational constants: A =      0.26094  B =      0.26086  C =      0.15147 [cm^-1]
  Rotational constants: A =   7822.77635  B =   7820.49583  C =   4541.08047 [MHz]
  Nuclear repulsion =  134.725442068481073

  Charge       = 0
  Multiplicity = 1
  Electrons    = 34
  Nalpha       = 17
  Nbeta        = 17

  ==> Algorithm <==

  SCF Algorithm Type is DF.
  DIIS enabled.
  MOM disabled.
  Fractional occupation disabled.
  Guess Type is SAD.
  Energy threshold   = 1.00e-10
  Density threshold  = 1.00e-10
  Integral threshold = 0.00e+00

  ==> Primary Basis <==

  Basis Set: ANONYMOUS8D314C0B
    Blend: 6-31G_2DFP_
    Number of shells: 72
    Number of basis function: 184
    Number of Cartesian functions: 204
    Spherical Harmonics?: true
    Max angular momentum: 3

  ==> DFT Potential <==

   => Composite Functional: B3LYP <= 

    B3LYP Hyb-GGA Exchange-Correlation Functional

    P. J. Stephens, F. J. Devlin, C. F. Chabalowski, and M. J. Frisch, J. Phys. Chem. 98, 11623 (1994)

    Deriv               =              1
    GGA                 =           TRUE
    Meta                =          FALSE

    Exchange Hybrid     =           TRUE
    MP2 Hybrid          =          FALSE

   => Exchange Functionals <=

    0.0800   Slater exchange
    0.7200         Becke 88

   => Exact (HF) Exchange <=

    0.2000               HF 

   => Correlation Functionals <=

    0.1900   Vosko, Wilk & Nusair (VWN5_RPA)
    0.8100   Lee, Yang & Parr

   => Molecular Quadrature <=

    Radial Scheme          =       TREUTLER
    Pruning Scheme         =           NONE
    Nuclear Scheme         =       TREUTLER

    BS radius alpha        =              1
    Pruning alpha          =              1
    Radial Points          =             99
    Spherical Points       =           1202
    Total Points           =        1546520
    Total Blocks           =          10319
    Max Points             =            256
    Max Functions          =            184
    Weights Tolerance      =       1.00E-15

   => Loading Basis Set <=

    Name: (ANONYMOUS8D314C0B AUX)
    Role: JKFIT
    Keyword: DF_BASIS_SCF
    atoms 1, 6-14 entry H          line    18 file /opt/psi/4/master/share/psi4/basis/def2-universal-jkfit.gbs 
    atoms 2-5     entry C          line   198 file /opt/psi/4/master/share/psi4/basis/def2-universal-jkfit.gbs 

  ==> Integral Setup <==

  DFHelper Memory: AOs need 0.129 GiB; user supplied 3.151 GiB. Using in-core AOs.

  ==> MemDFJK: Density-Fitted J/K Matrices <==

    J tasked:                   Yes
    K tasked:                   Yes
    wK tasked:                   No
    OpenMP threads:               4
    Memory [MiB]:              3226
    Algorithm:                 Core
    Schwarz Cutoff:           1E-12
    Mask sparsity (%):       1.1697
    Fitting Condition:        1E-10

   => Auxiliary Basis Set <=

  Basis Set: (ANONYMOUS8D314C0B AUX)
    Blend: DEF2-UNIVERSAL-JKFIT
    Number of shells: 160
    Number of basis function: 480
    Number of Cartesian functions: 556
    Spherical Harmonics?: true
    Max angular momentum: 4

  Cached 100.0% of DFT collocation blocks in 6.628 [GiB].

  Minimum eigenvalue in the overlap matrix is 1.3278270465E-03.
  Reciprocal condition number of the overlap matrix is 2.0959839615E-04.
    Using symmetric orthogonalization.

  ==> Pre-Iterations <==

  SCF Guess: Superposition of Atomic Densities via on-the-fly atomic UHF (no occupation information).

   -------------------------
    Irrep   Nso     Nmo    
   -------------------------
     A        184     184 
   -------------------------
    Total     184     184
   -------------------------

  ==> Iterations <==

                           Total Energy        Delta E     RMS |[F,P]|

   @DF-RKS iter SAD:  -157.74202620583299   -1.57742e+02   0.00000e+00 
   @DF-RKS iter   1:  -158.05137663449000   -3.09350e-01   4.78996e-03 DIIS
   @DF-RKS iter   2:  -157.82192137676682    2.29455e-01   5.82929e-03 DIIS
   @DF-RKS iter   3:  -158.47125346553992   -6.49332e-01   4.69476e-04 DIIS
   @DF-RKS iter   4:  -158.47412771492193   -2.87425e-03   2.27406e-04 DIIS
   @DF-RKS iter   5:  -158.47493936861363   -8.11654e-04   3.51463e-05 DIIS
   @DF-RKS iter   6:  -158.47495870038782   -1.93318e-05   7.03421e-06 DIIS
   @DF-RKS iter   7:  -158.47495965747174   -9.57084e-07   1.33171e-06 DIIS
   @DF-RKS iter   8:  -158.47495969371164   -3.62399e-08   6.42980e-08 DIIS
   @DF-RKS iter   9:  -158.47495969375493   -4.32863e-11   4.51225e-08 DIIS
   @DF-RKS iter  10:  -158.47495969378917   -3.42482e-11   6.65715e-09 DIIS
   @DF-RKS iter  11:  -158.47495969378991   -7.38964e-13   5.97362e-10 DIIS
   @DF-RKS iter  12:  -158.47495969378991    0.00000e+00   3.63166e-11 DIIS
  Energy and wave function converged.


  ==> Post-Iterations <==

    Orbital Energies [Eh]
    ---------------------

    Doubly Occupied:                                                      

       1A    -10.178029     2A    -10.162539     3A    -10.162509  
       4A    -10.162355     5A     -0.799101     6A     -0.677701  
       7A     -0.677670     8A     -0.555662     9A     -0.459649  
      10A     -0.426599    11A     -0.426515    12A     -0.379008  
      13A     -0.378924    14A     -0.358702    15A     -0.323315  
      16A     -0.322977    17A     -0.319156  

    Virtual:                                                              

      18A      0.073484    19A      0.122199    20A      0.136973  
      21A      0.137179    22A      0.148006    23A      0.148345  
      24A      0.161228    25A      0.187996    26A      0.188150  
      27A      0.213541    28A      0.216470    29A      0.242235  
      30A      0.242741    31A      0.392981    32A      0.392982  
      33A      0.396112    34A      0.422000    35A      0.422243  
      36A      0.445770    37A      0.485112    38A      0.485264  
      39A      0.534247    40A      0.565282    41A      0.565287  
      42A      0.568639    43A      0.588987    44A      0.589266  
      45A      0.615712    46A      0.615800    47A      0.616358  
      48A      0.627817    49A      0.631049    50A      0.654859  
      51A      0.655123    52A      0.674228    53A      0.674480  
      54A      0.676130    55A      0.795808    56A      0.796328  
      57A      0.863871    58A      0.897853    59A      0.897926  
      60A      0.945562    61A      0.954660    62A      0.999877  
      63A      0.999884    64A      1.055997    65A      1.056195  
      66A      1.056429    67A      1.070412    68A      1.135784  
      69A      1.170492    70A      1.170697    71A      1.214957  
      72A      1.215073    73A      1.270641    74A      1.298401  
      75A      1.298760    76A      1.317522    77A      1.317663  
      78A      1.329771    79A      1.378144    80A      1.378256  
      81A      1.398501    82A      1.414177    83A      1.414673  
      84A      1.425089    85A      1.475006    86A      1.497944  
      87A      1.503467    88A      1.503563    89A      1.538253  
      90A      1.582771    91A      1.582976    92A      1.672732  
      93A      1.672976    94A      1.682077    95A      1.706358  
      96A      1.706524    97A      1.786636    98A      1.796603  
      99A      1.834603   100A      1.835651   101A      2.011008  
     102A      2.011452   103A      2.028268   104A      2.076019  
     105A      2.076839   106A      2.293041   107A      2.724703  
     108A      2.724857   109A      2.825937   110A      2.827297  
     111A      2.870480   112A      2.870566   113A      2.931428  
     114A      2.931874   115A      2.946725   116A      2.947742  
     117A      2.947843   118A      2.974420   119A      3.004840  
     120A      3.004882   121A      3.138342   122A      3.164681  
     123A      3.167325   124A      3.168618   125A      3.252322  
     126A      3.384866   127A      3.385748   128A      3.426200  
     129A      3.460565   130A      3.470909   131A      3.472083  
     132A      3.513116   133A      3.513220   134A      3.562758  
     135A      3.563212   136A      3.597302   137A      3.613243  
     138A      3.620850   139A      3.620957   140A      3.680382  
     141A      3.680651   142A      3.720218   143A      3.720682  
     144A      3.723718   145A      3.891115   146A      3.897534  
     147A      3.898364   148A      4.045637   149A      4.109241  
     150A      4.109332   151A      4.131578   152A      4.148165  
     153A      4.149085   154A      4.172484   155A      4.193590  
     156A      4.217458   157A      4.217903   158A      4.263615  
     159A      4.264306   160A      4.376635   161A      4.377844  
     162A      4.381881   163A      4.479591   164A      4.517504  
     165A      4.517576   166A      4.533405   167A      4.570861  
     168A      4.570919   169A      4.612250   170A      4.664505  
     171A      4.664592   172A      4.736099   173A      4.737270  
     174A      4.757873   175A      4.979964   176A      5.004433  
     177A      5.004788   178A      5.176422   179A      5.254825  
     180A      5.255016   181A      5.333468   182A      5.366859  
     183A      5.369142   184A      5.390668  

    Final Occupation by Irrep:
              A 
    DOCC [    17 ]

  @DF-RKS Final Energy:  -158.47495969378991

   => Energetics <=

    Nuclear Repulsion Energy =            134.7254420684810725
    One-Electron Energy =                -478.0222853203051727
    Two-Electron Energy =                 205.4583853745397448
    DFT Exchange-Correlation Energy =     -20.6365018165055432
    Empirical Dispersion Energy =           0.0000000000000000
    VV10 Nonlocal Energy =                  0.0000000000000000
    Total Energy =                       -158.4749596937899128

Computation Completed


Properties will be evaluated at   0.000000,   0.000000,   0.000000 [a0]

Properties computed using the SCF density matrix

  Nuclear Dipole Moment: [e a0]
     X:     0.6021      Y:     0.0045      Z:     0.0000

  Electronic Dipole Moment: [e a0]
     X:    -0.6360      Y:    -0.0061      Z:    -0.0000

  Dipole Moment: [e a0]
     X:    -0.0339      Y:    -0.0016      Z:    -0.0000     Total:     0.0339

  Dipole Moment: [D]
     X:    -0.0862      Y:    -0.0041      Z:    -0.0000     Total:     0.0863


*** tstop() called on n076 at Fri Nov 12 16:46:47 2021
Module time:
	user time   =     114.95 seconds =       1.92 minutes
	system time =       1.79 seconds =       0.03 minutes
	total time  =         30 seconds =       0.50 minutes
Total time:
	user time   =     114.95 seconds =       1.92 minutes
	system time =       1.79 seconds =       0.03 minutes
	total time  =         30 seconds =       0.50 minutes
Grab this energy -158.4749596937899
    Psi4 stopped on: Friday, 12 November 2021 04:46PM
    Psi4 wall time for execution: 0:00:29.98

*** Psi4 exiting successfully. Buy a developer a beer!
