
    -----------------------------------------------------------------------
          Psi4: An Open-Source Ab Initio Electronic Structure Package
                               Psi4 1.4a2.dev629 

                         Git: Rev {master} 2938fc2 dirty


    D. G. A. Smith, L. A. Burns, A. C. Simmonett, R. M. Parrish,
    M. C. Schieber, R. Galvelis, P. Kraus, H. Kruse, R. Di Remigio,
    A. Alenaizan, A. M. James, S. Lehtola, J. P. Misiewicz, M. Scheurer,
    R. A. Shaw, J. B. Schriber, Y. Xie, Z. L. Glick, D. A. Sirianni,
    J. S. O'Brien, J. M. Waldrop, A. Kumar, E. G. Hohenstein,
    B. P. Pritchard, B. R. Brooks, H. F. Schaefer III, A. Yu. Sokolov,
    K. Patkowski, A. E. DePrince III, U. Bozkaya, R. A. King,
    F. A. Evangelista, J. M. Turney, T. D. Crawford, C. D. Sherrill,
    J. Chem. Phys. 152(18) 184108 (2020). https://doi.org/10.1063/5.0006002

                            Additional Code Authors
    E. T. Seidl, C. L. Janssen, E. F. Valeev, M. L. Leininger,
    J. F. Gonthier, R. M. Richard, H. R. McAlexander, M. Saitow, X. Wang,
    P. Verma, and M. H. Lechner

             Previous Authors, Complete List of Code Contributors,
                       and Citations for Specific Modules
    https://github.com/psi4/psi4/blob/master/codemeta.json
    https://github.com/psi4/psi4/graphs/contributors
    http://psicode.org/psi4manual/master/introduction.html#citing-psifour

    -----------------------------------------------------------------------


    Psi4 started on: Friday, 12 November 2021 05:35PM

    Process ID: 15635
    Host:       n086
    PSIDATADIR: /opt/psi/4/master/share/psi4
    Memory:     500.0 MiB
    Threads:    4
    
  ==> Input File <==

--------------------------------------------------------------------------
import os
memory 14 GB 
 
molecule {
 H   -2.7757840277    0.0012251404   -0.0068237669
 C   -0.7045475878    0.0002859794   -0.0033654201
 C    0.1997849200   -1.3715879735   -2.3762124532
 C    0.1999683754    2.7460419389   -0.0013530047
 C    0.2031491114   -1.3747634826    2.3790063141
 H    2.2651014718   -1.4119303564   -2.4401523646
 H   -0.4688970970   -0.4255904584   -4.0854384481
 H   -0.4720648171   -3.3249551319   -2.4149643206
 H    2.2621975366    2.8134780393    0.0019386755
 H   -0.4731063334    3.7577117495    1.6708538726
 H   -0.4660688992    3.7624775922   -1.6756037194
 H    2.2712346114   -1.4118985262    2.4439923382
 H   -0.4642439669   -3.3312186565    2.4208312052
 H   -0.4681128174   -0.4292758542    4.0872910923
units bohr
}

basis {

assign 6-31g_2dfp_

[ 6-31g_2dfp_ ]

spherical

!----------------------------------------------------------------------
! Basis Set Exchange
! Version v0.8.13
! https://www.basissetexchange.org
!----------------------------------------------------------------------
!   Basis set: 6-31G(2df,p)
! Description: 6-31G(2df,p)
!        Role: orbital
!     Version: 0  (Data from the original Basis Set Exchange)
!----------------------------------------------------------------------


****
H     0
S    3   1.00
     18.7311370              0.03349460
      2.8253937              0.23472695
      0.6401217              0.81375733
S    1   1.00
      0.1612778              1.00000000
P    1   1.00
      1.5000000              1.0000000
P    1   1.00
      0.3750000              1.0000000
****
B     0
S    6   1.00
   2068.8823000              0.0018663
    310.6495700              0.0142515
     70.6830330              0.0695516
     19.8610800              0.2325729
      6.2993048              0.4670787
      2.1270270              0.3634314
SP   3   1.00
      4.7279710             -0.1303938              0.0745976
      1.1903377             -0.1307889              0.3078467
      0.3594117              1.1309444              0.7434568
SP   1   1.00
      0.1267512              1.0000000              1.0000000
D    1   1.00
      0.8020000              1.0000000
D    1   1.00
      0.2005000              1.0000000
F    1   1.00
      0.5000000              1.0000000
****
C     0
S    6   1.00
   3047.5249000              0.0018347
    457.3695100              0.0140373
    103.9486900              0.0688426
     29.2101550              0.2321844
      9.2866630              0.4679413
      3.1639270              0.3623120
SP   3   1.00
      7.8682724             -0.1193324              0.0689991
      1.8812885             -0.1608542              0.3164240
      0.5442493              1.1434564              0.7443083
SP   1   1.00
      0.1687144              1.0000000              1.0000000
D    1   1.00
      1.2520000              1.0000000
D    1   1.00
      0.3130000              1.0000000
F    1   1.00
      0.8000000              1.0000000
****
N     0
S    6   1.00
   4173.5110000              0.0018348
    627.4579000              0.0139950
    142.9021000              0.0685870
     40.2343300              0.2322410
     12.8202100              0.4690700
      4.3904370              0.3604550
SP   3   1.00
     11.6263580             -0.1149610              0.0675800
      2.7162800             -0.1691180              0.3239070
      0.7722180              1.1458520              0.7408950
SP   1   1.00
      0.2120313              1.0000000              1.0000000
D    1   1.00
      1.8260000              1.0000000
D    1   1.00
      0.4565000              1.0000000
F    1   1.00
      1.0000000              1.0000000
****
O     0
S    6   1.00
   5484.6717000              0.0018311
    825.2349500              0.0139501
    188.0469600              0.0684451
     52.9645000              0.2327143
     16.8975700              0.4701930
      5.7996353              0.3585209
SP   3   1.00
     15.5396160             -0.1107775              0.0708743
      3.5999336             -0.1480263              0.3397528
      1.0137618              1.1307670              0.7271586
SP   1   1.00
      0.2700058              1.0000000              1.0000000
D    1   1.00
      2.5840000              1.0000000
D    1   1.00
      0.6460000              1.0000000
F    1   1.00
      1.4000000              1.0000000
****
F     0
S    6   1.00
   7001.7130900              0.0018196169
   1051.3660900              0.0139160796
    239.2856900              0.0684053245
     67.3974453              0.233185760
     21.5199573              0.471267439
      7.40310130             0.356618546
SP   3   1.00
     20.8479528             -0.108506975            0.0716287243
      4.80830834            -0.146451658            0.3459121030
      1.34406986             1.128688580            0.7224699570
SP   1   1.00
      0.358151393            1.0000000              1.0000000
D    1   1.00
      3.5000000              1.0000000
D    1   1.00
      0.8750000              1.0000000
F    1   1.00
      1.8500000              1.0000000
****
Al     0
S    6   1.00
  13983.1000000              0.00194267
   2098.7500000              0.0148599
    477.7050000              0.0728494
    134.3600000              0.2468300
     42.8709000              0.4872580
     14.5189000              0.3234960
SP   6   1.00
    239.6680000             -0.00292619             0.00460285
     57.4419000             -0.0374080              0.0331990
     18.2859000             -0.1144870              0.1362820
      6.5991400              0.1156350              0.3304760
      2.4904900              0.6125950              0.4491460
      0.9445400              0.3937990              0.2657040
SP   3   1.00
      1.2779000             -0.2276060             -0.0175130
      0.3975900              0.00144583             0.2445330
      0.1600950              1.0927900              0.8049340
SP   1   1.00
      0.0556577              1.0000000              1.0000000
D    1   1.00
      0.6500000              1.0000000
D    1   1.00
      0.1625000              1.0000000
F    1   1.00
      0.2500000              1.0000000
****
Si     0
S    6   1.00
  16115.9000000              0.00195948
   2425.5800000              0.01492880
    553.8670000              0.07284780
    156.3400000              0.24613000
     50.0683000              0.48591400
     17.0178000              0.32500200
SP   6   1.00
    292.7180000             -0.00278094             0.00443826
     69.8731000             -0.03571460             0.03266790
     22.3363000             -0.11498500             0.13472100
      8.1503900              0.09356340             0.32867800
      3.1345800              0.60301700             0.44964000
      1.2254300              0.41895900             0.26137200
SP   3   1.00
      1.7273800             -0.24463000            -0.01779510
      0.5729220              0.00431572             0.25353900
      0.2221920              1.09818000             0.80066900
SP   1   1.00
      0.0778369              1.00000000             1.00000000
D    1   1.00
      0.9000000              1.0000000
D    1   1.00
      0.2250000              1.0000000
F    1   1.00
      0.3200000              1.0000000
****
P     0
S    6   1.00
  19413.3000000              0.0018516
   2909.4200000              0.0142062
    661.3640000              0.0699995
    185.7590000              0.2400790
     59.1943000              0.4847620
     20.0310000              0.3352000
SP   6   1.00
    339.4780000             -0.00278217             0.00456462
     81.0101000             -0.0360499              0.03369360
     25.8780000             -0.1166310              0.13975500
      9.4522100              0.0968328              0.33936200
      3.6656600              0.6144180              0.45092100
      1.4674600              0.4037980              0.23858600
SP   3   1.00
      2.1562300             -0.2529230             -0.01776530
      0.7489970              0.0328517              0.27405800
      0.2831450              1.0812500              0.78542100
SP   1   1.00
      0.0998317              1.0000000              1.00000000
D    1   1.00
      1.1000000              1.0000000
D    1   1.00
      0.2750000              1.0000000
F    1   1.00
      0.4500000              1.0000000
****
S     0
S    6   1.00
  21917.1000000              0.0018690
   3301.4900000              0.0142300
    754.1460000              0.0696960
    212.7110000              0.2384870
     67.9896000              0.4833070
     23.0515000              0.3380740
SP   6   1.00
    423.7350000             -0.0023767              0.0040610
    100.7100000             -0.0316930              0.0306810
     32.1599000             -0.1133170              0.1304520
     11.8079000              0.0560900              0.3272050
      4.6311000              0.5922550              0.4528510
      1.8702500              0.4550060              0.2560420
SP   3   1.00
      2.6158400             -0.2503740             -0.0145110
      0.9221670              0.0669570              0.3102630
      0.3412870              1.0545100              0.7544830
SP   1   1.00
      0.1171670              1.0000000              1.0000000
D    1   1.00
      1.3000000              1.0000000
D    1   1.00
      0.3250000              1.0000000
F    1   1.00
      0.5500000              1.0000000
****
Cl     0
S    6   1.00
  25180.1000000              0.0018330
   3780.3500000              0.0140340
    860.4740000              0.0690970
    242.1450000              0.2374520
     77.3349000              0.4830340
     26.2470000              0.3398560
SP   6   1.00
    491.7650000             -0.0022974              0.0039894
    116.9840000             -0.0307140              0.0303180
     37.4153000             -0.1125280              0.1298800
     13.7834000              0.0450160              0.3279510
      5.4521500              0.5893530              0.4535270
      2.2258800              0.4652060              0.2521540
SP   3   1.00
      3.1864900             -0.2518300             -0.0142990
      1.1442700              0.0615890              0.3235720
      0.4203770              1.0601800              0.7435070
SP   1   1.00
      0.1426570              1.0000000              1.0000000
D    1   1.00
      1.5000000              1.0000000
D    1   1.00
      0.3750000              1.0000000
F    1   1.00
      0.7000000              1.0000000
****
}


set {
reference rhf                          
freeze_core true
e_convergence 10                       
d_convergence 10                      
dft_spherical_points 1202
dft_radial_points 99
}

e = energy('b3lyp')

print_out('Grab this energy {0}'.format(e))
--------------------------------------------------------------------------

  Memory set to  13.039 GiB by Python driver.

Scratch directory: /tmp/

*** tstart() called on n086
*** at Fri Nov 12 17:35:47 2021

   => Loading Basis Set <=

    Name: ANONYMOUS205AF142
    Role: ORBITAL
    Keyword: BASIS
    atoms 1, 6-14 entry H          line    15 inputblock 6-31g_2dfp_ 
    atoms 2-5     entry C          line    48 inputblock 6-31g_2dfp_ 


         ---------------------------------------------------------
                                   SCF
               by Justin Turney, Rob Parrish, Andy Simmonett
                          and Daniel G. A. Smith
                              RKS Reference
                        4 Threads,  13351 MiB Core
         ---------------------------------------------------------

  ==> Geometry <==

    Molecular point group: c1
    Full point group: C1

    Geometry (in Bohr), charge = 0, multiplicity = 1:

       Center              X                  Y                   Z               Mass       
    ------------   -----------------  -----------------  -----------------  -----------------
         H           -2.775783748398     0.001229595280    -0.006459514487     1.007825032230
         C           -0.704547308498     0.000290434280    -0.003001167687    12.000000000000
         C            0.199785199302    -1.371583518620    -2.375848200787    12.000000000000
         C            0.199968654702     2.746046393780    -0.000988752287    12.000000000000
         C            0.203149390702    -1.374759027720     2.379370566513    12.000000000000
         H            2.265101751102    -1.411925901520    -2.439788112187     1.007825032230
         H           -0.468896817698    -0.425586003520    -4.085074195687     1.007825032230
         H           -0.472064537798    -3.324950677020    -2.414600068187     1.007825032230
         H            2.262197815902     2.813482494180     0.002302927913     1.007825032230
         H           -0.473106054098     3.757716204380     1.671218125013     1.007825032230
         H           -0.466068619898     3.762482047080    -1.675239466987     1.007825032230
         H            2.271234890702    -1.411894071320     2.444356590613     1.007825032230
         H           -0.464243687598    -3.331214201620     2.421195457613     1.007825032230
         H           -0.468112538098    -0.429271399320     4.087655344713     1.007825032230

  Running in c1 symmetry.

  Rotational constants: A =      0.26104  B =      0.26043  C =      0.15137 [cm^-1]
  Rotational constants: A =   7825.68109  B =   7807.45360  C =   4537.82573 [MHz]
  Nuclear repulsion =  134.696951925557073

  Charge       = 0
  Multiplicity = 1
  Electrons    = 34
  Nalpha       = 17
  Nbeta        = 17

  ==> Algorithm <==

  SCF Algorithm Type is DF.
  DIIS enabled.
  MOM disabled.
  Fractional occupation disabled.
  Guess Type is SAD.
  Energy threshold   = 1.00e-10
  Density threshold  = 1.00e-10
  Integral threshold = 0.00e+00

  ==> Primary Basis <==

  Basis Set: ANONYMOUS205AF142
    Blend: 6-31G_2DFP_
    Number of shells: 72
    Number of basis function: 184
    Number of Cartesian functions: 204
    Spherical Harmonics?: true
    Max angular momentum: 3

  ==> DFT Potential <==

   => Composite Functional: B3LYP <= 

    B3LYP Hyb-GGA Exchange-Correlation Functional

    P. J. Stephens, F. J. Devlin, C. F. Chabalowski, and M. J. Frisch, J. Phys. Chem. 98, 11623 (1994)

    Deriv               =              1
    GGA                 =           TRUE
    Meta                =          FALSE

    Exchange Hybrid     =           TRUE
    MP2 Hybrid          =          FALSE

   => Exchange Functionals <=

    0.0800   Slater exchange
    0.7200         Becke 88

   => Exact (HF) Exchange <=

    0.2000               HF 

   => Correlation Functionals <=

    0.1900   Vosko, Wilk & Nusair (VWN5_RPA)
    0.8100   Lee, Yang & Parr

   => Molecular Quadrature <=

    Radial Scheme          =       TREUTLER
    Pruning Scheme         =           NONE
    Nuclear Scheme         =       TREUTLER

    BS radius alpha        =              1
    Pruning alpha          =              1
    Radial Points          =             99
    Spherical Points       =           1202
    Total Points           =        1546450
    Total Blocks           =          10387
    Max Points             =            256
    Max Functions          =            184
    Weights Tolerance      =       1.00E-15

   => Loading Basis Set <=

    Name: (ANONYMOUS205AF142 AUX)
    Role: JKFIT
    Keyword: DF_BASIS_SCF
    atoms 1, 6-14 entry H          line    18 file /opt/psi/4/master/share/psi4/basis/def2-universal-jkfit.gbs 
    atoms 2-5     entry C          line   198 file /opt/psi/4/master/share/psi4/basis/def2-universal-jkfit.gbs 

  ==> Integral Setup <==

  DFHelper Memory: AOs need 0.129 GiB; user supplied 3.158 GiB. Using in-core AOs.

  ==> MemDFJK: Density-Fitted J/K Matrices <==

    J tasked:                   Yes
    K tasked:                   Yes
    wK tasked:                   No
    OpenMP threads:               4
    Memory [MiB]:              3233
    Algorithm:                 Core
    Schwarz Cutoff:           1E-12
    Mask sparsity (%):       1.1697
    Fitting Condition:        1E-10

   => Auxiliary Basis Set <=

  Basis Set: (ANONYMOUS205AF142 AUX)
    Blend: DEF2-UNIVERSAL-JKFIT
    Number of shells: 160
    Number of basis function: 480
    Number of Cartesian functions: 556
    Spherical Harmonics?: true
    Max angular momentum: 4

  Cached 100.0% of DFT collocation blocks in 6.621 [GiB].

  Minimum eigenvalue in the overlap matrix is 1.3313664088E-03.
  Reciprocal condition number of the overlap matrix is 2.1018970648E-04.
    Using symmetric orthogonalization.

  ==> Pre-Iterations <==

  SCF Guess: Superposition of Atomic Densities via on-the-fly atomic UHF (no occupation information).

   -------------------------
    Irrep   Nso     Nmo    
   -------------------------
     A        184     184 
   -------------------------
    Total     184     184
   -------------------------

  ==> Iterations <==

                           Total Energy        Delta E     RMS |[F,P]|

   @DF-RKS iter SAD:  -157.74017696668503   -1.57740e+02   0.00000e+00 
   @DF-RKS iter   1:  -158.05178532501301   -3.11608e-01   4.78764e-03 DIIS
   @DF-RKS iter   2:  -157.82408541882546    2.27700e-01   5.81985e-03 DIIS
   @DF-RKS iter   3:  -158.47125152645037   -6.47166e-01   4.68921e-04 DIIS
   @DF-RKS iter   4:  -158.47411873876928   -2.86721e-03   2.27294e-04 DIIS
   @DF-RKS iter   5:  -158.47492983437357   -8.11096e-04   3.51517e-05 DIIS
   @DF-RKS iter   6:  -158.47494918523307   -1.93509e-05   7.03315e-06 DIIS
   @DF-RKS iter   7:  -158.47495014199717   -9.56764e-07   1.33408e-06 DIIS
   @DF-RKS iter   8:  -158.47495017820108   -3.62039e-08   9.78795e-08 DIIS
   @DF-RKS iter   9:  -158.47495017825702   -5.59339e-11   8.19703e-08 DIIS
   @DF-RKS iter  10:  -158.47495017837173   -1.14710e-10   4.32826e-09 DIIS
   @DF-RKS iter  11:  -158.47495017837173    0.00000e+00   5.87590e-10 DIIS
   @DF-RKS iter  12:  -158.47495017837218   -4.54747e-13   5.32669e-11 DIIS
  Energy and wave function converged.


  ==> Post-Iterations <==

    Orbital Energies [Eh]
    ---------------------

    Doubly Occupied:                                                      

       1A    -10.178079     2A    -10.162703     3A    -10.162410  
       4A    -10.162129     5A     -0.798842     6A     -0.677857  
       7A     -0.677517     8A     -0.555581     9A     -0.459543  
      10A     -0.426660    11A     -0.426386    12A     -0.379295  
      13A     -0.378870    14A     -0.358915    15A     -0.323386  
      16A     -0.322631    17A     -0.319145  

    Virtual:                                                              

      18A      0.073479    19A      0.122282    20A      0.137053  
      21A      0.137195    22A      0.148041    23A      0.148550  
      24A      0.161224    25A      0.188001    26A      0.188441  
      27A      0.213642    28A      0.216276    29A      0.241670  
      30A      0.242785    31A      0.392856    32A      0.393049  
      33A      0.396149    34A      0.422045    35A      0.422285  
      36A      0.445830    37A      0.485001    38A      0.485307  
      39A      0.534314    40A      0.564685    41A      0.565711  
      42A      0.568331    43A      0.589018    44A      0.589373  
      45A      0.615428    46A      0.616284    47A      0.616596  
      48A      0.628029    49A      0.631124    50A      0.654911  
      51A      0.654927    52A      0.674291    53A      0.674446  
      54A      0.676155    55A      0.795629    56A      0.796321  
      57A      0.863704    58A      0.897751    59A      0.897904  
      60A      0.945316    61A      0.954631    62A      0.999593  
      63A      1.000181    64A      1.054832    65A      1.056460  
      66A      1.057726    67A      1.070804    68A      1.135083  
      69A      1.169723    70A      1.171026    71A      1.214696  
      72A      1.216002    73A      1.270521    74A      1.298255  
      75A      1.299062    76A      1.316760    77A      1.317390  
      78A      1.329266    79A      1.377498    80A      1.378140  
      81A      1.398992    82A      1.414531    83A      1.415715  
      84A      1.425512    85A      1.475518    86A      1.497190  
      87A      1.503253    88A      1.504405    89A      1.538445  
      90A      1.582482    91A      1.583651    92A      1.671989  
      93A      1.673003    94A      1.682167    95A      1.705420  
      96A      1.706752    97A      1.786887    98A      1.796975  
      99A      1.834831   100A      1.836734   101A      2.010068  
     102A      2.010709   103A      2.027516   104A      2.074728  
     105A      2.076622   106A      2.293031   107A      2.724467  
     108A      2.724609   109A      2.825824   110A      2.827105  
     111A      2.869797   112A      2.871648   113A      2.931587  
     114A      2.931891   115A      2.947138   116A      2.947655  
     117A      2.947903   118A      2.974490   119A      3.004525  
     120A      3.005414   121A      3.137842   122A      3.163739  
     123A      3.167469   124A      3.167859   125A      3.251679  
     126A      3.384317   127A      3.386372   128A      3.425128  
     129A      3.460320   130A      3.470146   131A      3.471534  
     132A      3.512253   133A      3.513407   134A      3.562939  
     135A      3.564016   136A      3.597533   137A      3.613503  
     138A      3.620316   139A      3.622032   140A      3.679574  
     141A      3.682293   142A      3.719042   143A      3.721619  
     144A      3.723240   145A      3.890855   146A      3.896865  
     147A      3.899180   148A      4.045991   149A      4.108221  
     150A      4.110217   151A      4.130953   152A      4.146854  
     153A      4.149608   154A      4.171621   155A      4.193598  
     156A      4.216712   157A      4.218048   158A      4.263508  
     159A      4.264104   160A      4.378192   161A      4.378713  
     162A      4.382381   163A      4.481458   164A      4.516972  
     165A      4.517562   166A      4.533096   167A      4.568942  
     168A      4.571763   169A      4.611461   170A      4.662318  
     171A      4.665227   172A      4.735183   173A      4.736428  
     174A      4.756029   175A      4.981228   176A      5.005344  
     177A      5.006305   178A      5.176298   179A      5.254712  
     180A      5.256020   181A      5.333287   182A      5.366520  
     183A      5.369225   184A      5.389886  

    Final Occupation by Irrep:
              A 
    DOCC [    17 ]

  @DF-RKS Final Energy:  -158.47495017837218

   => Energetics <=

    Nuclear Repulsion Energy =            134.6969519255570731
    One-Electron Energy =                -477.9661180871133297
    Two-Electron Energy =                 205.4308181642860802
    DFT Exchange-Correlation Energy =     -20.6366021811020026
    Empirical Dispersion Energy =           0.0000000000000000
    VV10 Nonlocal Energy =                  0.0000000000000000
    Total Energy =                       -158.4749501783721826

Computation Completed


Properties will be evaluated at   0.000000,   0.000000,   0.000000 [a0]

Properties computed using the SCF density matrix

  Nuclear Dipole Moment: [e a0]
     X:     0.6004      Y:     0.0000      Z:     0.0028

  Electronic Dipole Moment: [e a0]
     X:    -0.6343      Y:     0.0001      Z:    -0.0028

  Dipole Moment: [e a0]
     X:    -0.0340      Y:     0.0002      Z:    -0.0000     Total:     0.0340

  Dipole Moment: [D]
     X:    -0.0863      Y:     0.0004      Z:    -0.0001     Total:     0.0863


*** tstop() called on n086 at Fri Nov 12 17:36:17 2021
Module time:
	user time   =     115.75 seconds =       1.93 minutes
	system time =       1.84 seconds =       0.03 minutes
	total time  =         30 seconds =       0.50 minutes
Total time:
	user time   =     115.75 seconds =       1.93 minutes
	system time =       1.84 seconds =       0.03 minutes
	total time  =         30 seconds =       0.50 minutes
Grab this energy -158.47495017837218
    Psi4 stopped on: Friday, 12 November 2021 05:36PM
    Psi4 wall time for execution: 0:00:30.18

*** Psi4 exiting successfully. Buy a developer a beer!
