
    -----------------------------------------------------------------------
          Psi4: An Open-Source Ab Initio Electronic Structure Package
                               Psi4 1.4a2.dev629 

                         Git: Rev {master} 2938fc2 dirty


    D. G. A. Smith, L. A. Burns, A. C. Simmonett, R. M. Parrish,
    M. C. Schieber, R. Galvelis, P. Kraus, H. Kruse, R. Di Remigio,
    A. Alenaizan, A. M. James, S. Lehtola, J. P. Misiewicz, M. Scheurer,
    R. A. Shaw, J. B. Schriber, Y. Xie, Z. L. Glick, D. A. Sirianni,
    J. S. O'Brien, J. M. Waldrop, A. Kumar, E. G. Hohenstein,
    B. P. Pritchard, B. R. Brooks, H. F. Schaefer III, A. Yu. Sokolov,
    K. Patkowski, A. E. DePrince III, U. Bozkaya, R. A. King,
    F. A. Evangelista, J. M. Turney, T. D. Crawford, C. D. Sherrill,
    J. Chem. Phys. 152(18) 184108 (2020). https://doi.org/10.1063/5.0006002

                            Additional Code Authors
    E. T. Seidl, C. L. Janssen, E. F. Valeev, M. L. Leininger,
    J. F. Gonthier, R. M. Richard, H. R. McAlexander, M. Saitow, X. Wang,
    P. Verma, and M. H. Lechner

             Previous Authors, Complete List of Code Contributors,
                       and Citations for Specific Modules
    https://github.com/psi4/psi4/blob/master/codemeta.json
    https://github.com/psi4/psi4/graphs/contributors
    http://psicode.org/psi4manual/master/introduction.html#citing-psifour

    -----------------------------------------------------------------------


    Psi4 started on: Friday, 12 November 2021 04:21PM

    Process ID: 29092
    Host:       n041
    PSIDATADIR: /opt/psi/4/master/share/psi4
    Memory:     500.0 MiB
    Threads:    4
    
  ==> Input File <==

--------------------------------------------------------------------------
import os
memory 14 GB 
 
molecule {
 H   -2.7757866801   -0.0000010045    0.0000355479
 C   -0.7045471403   -0.0000004483    0.0000591615
 C    0.2026094461   -1.3723157455   -2.3777122021
 C    0.2009681009    2.7457858351   -0.0007922346
 C    0.1993276292   -1.3734707388    2.3781282378
 H    2.2660325099   -1.4093424712   -2.4407987266
 H   -0.4693363370   -0.4297645619   -4.0901546425
 H   -0.4692136729   -3.3274032968   -2.4171333917
 H    2.2661831057    2.8183912776    0.0002559147
 H   -0.4686283595    3.7568415479    1.6733304140
 H   -0.4688736738    3.7569620337   -1.6730145089
 H    2.2663348154   -1.4090469760    2.4407987417
 H   -0.4682909578   -3.3275161238    2.4168389490
 H   -0.4681683060   -0.4291193274    4.0901587398
units bohr
}

basis {

assign 6-31g_2dfp_

[ 6-31g_2dfp_ ]

spherical

!----------------------------------------------------------------------
! Basis Set Exchange
! Version v0.8.13
! https://www.basissetexchange.org
!----------------------------------------------------------------------
!   Basis set: 6-31G(2df,p)
! Description: 6-31G(2df,p)
!        Role: orbital
!     Version: 0  (Data from the original Basis Set Exchange)
!----------------------------------------------------------------------


****
H     0
S    3   1.00
     18.7311370              0.03349460
      2.8253937              0.23472695
      0.6401217              0.81375733
S    1   1.00
      0.1612778              1.00000000
P    1   1.00
      1.5000000              1.0000000
P    1   1.00
      0.3750000              1.0000000
****
B     0
S    6   1.00
   2068.8823000              0.0018663
    310.6495700              0.0142515
     70.6830330              0.0695516
     19.8610800              0.2325729
      6.2993048              0.4670787
      2.1270270              0.3634314
SP   3   1.00
      4.7279710             -0.1303938              0.0745976
      1.1903377             -0.1307889              0.3078467
      0.3594117              1.1309444              0.7434568
SP   1   1.00
      0.1267512              1.0000000              1.0000000
D    1   1.00
      0.8020000              1.0000000
D    1   1.00
      0.2005000              1.0000000
F    1   1.00
      0.5000000              1.0000000
****
C     0
S    6   1.00
   3047.5249000              0.0018347
    457.3695100              0.0140373
    103.9486900              0.0688426
     29.2101550              0.2321844
      9.2866630              0.4679413
      3.1639270              0.3623120
SP   3   1.00
      7.8682724             -0.1193324              0.0689991
      1.8812885             -0.1608542              0.3164240
      0.5442493              1.1434564              0.7443083
SP   1   1.00
      0.1687144              1.0000000              1.0000000
D    1   1.00
      1.2520000              1.0000000
D    1   1.00
      0.3130000              1.0000000
F    1   1.00
      0.8000000              1.0000000
****
N     0
S    6   1.00
   4173.5110000              0.0018348
    627.4579000              0.0139950
    142.9021000              0.0685870
     40.2343300              0.2322410
     12.8202100              0.4690700
      4.3904370              0.3604550
SP   3   1.00
     11.6263580             -0.1149610              0.0675800
      2.7162800             -0.1691180              0.3239070
      0.7722180              1.1458520              0.7408950
SP   1   1.00
      0.2120313              1.0000000              1.0000000
D    1   1.00
      1.8260000              1.0000000
D    1   1.00
      0.4565000              1.0000000
F    1   1.00
      1.0000000              1.0000000
****
O     0
S    6   1.00
   5484.6717000              0.0018311
    825.2349500              0.0139501
    188.0469600              0.0684451
     52.9645000              0.2327143
     16.8975700              0.4701930
      5.7996353              0.3585209
SP   3   1.00
     15.5396160             -0.1107775              0.0708743
      3.5999336             -0.1480263              0.3397528
      1.0137618              1.1307670              0.7271586
SP   1   1.00
      0.2700058              1.0000000              1.0000000
D    1   1.00
      2.5840000              1.0000000
D    1   1.00
      0.6460000              1.0000000
F    1   1.00
      1.4000000              1.0000000
****
F     0
S    6   1.00
   7001.7130900              0.0018196169
   1051.3660900              0.0139160796
    239.2856900              0.0684053245
     67.3974453              0.233185760
     21.5199573              0.471267439
      7.40310130             0.356618546
SP   3   1.00
     20.8479528             -0.108506975            0.0716287243
      4.80830834            -0.146451658            0.3459121030
      1.34406986             1.128688580            0.7224699570
SP   1   1.00
      0.358151393            1.0000000              1.0000000
D    1   1.00
      3.5000000              1.0000000
D    1   1.00
      0.8750000              1.0000000
F    1   1.00
      1.8500000              1.0000000
****
Al     0
S    6   1.00
  13983.1000000              0.00194267
   2098.7500000              0.0148599
    477.7050000              0.0728494
    134.3600000              0.2468300
     42.8709000              0.4872580
     14.5189000              0.3234960
SP   6   1.00
    239.6680000             -0.00292619             0.00460285
     57.4419000             -0.0374080              0.0331990
     18.2859000             -0.1144870              0.1362820
      6.5991400              0.1156350              0.3304760
      2.4904900              0.6125950              0.4491460
      0.9445400              0.3937990              0.2657040
SP   3   1.00
      1.2779000             -0.2276060             -0.0175130
      0.3975900              0.00144583             0.2445330
      0.1600950              1.0927900              0.8049340
SP   1   1.00
      0.0556577              1.0000000              1.0000000
D    1   1.00
      0.6500000              1.0000000
D    1   1.00
      0.1625000              1.0000000
F    1   1.00
      0.2500000              1.0000000
****
Si     0
S    6   1.00
  16115.9000000              0.00195948
   2425.5800000              0.01492880
    553.8670000              0.07284780
    156.3400000              0.24613000
     50.0683000              0.48591400
     17.0178000              0.32500200
SP   6   1.00
    292.7180000             -0.00278094             0.00443826
     69.8731000             -0.03571460             0.03266790
     22.3363000             -0.11498500             0.13472100
      8.1503900              0.09356340             0.32867800
      3.1345800              0.60301700             0.44964000
      1.2254300              0.41895900             0.26137200
SP   3   1.00
      1.7273800             -0.24463000            -0.01779510
      0.5729220              0.00431572             0.25353900
      0.2221920              1.09818000             0.80066900
SP   1   1.00
      0.0778369              1.00000000             1.00000000
D    1   1.00
      0.9000000              1.0000000
D    1   1.00
      0.2250000              1.0000000
F    1   1.00
      0.3200000              1.0000000
****
P     0
S    6   1.00
  19413.3000000              0.0018516
   2909.4200000              0.0142062
    661.3640000              0.0699995
    185.7590000              0.2400790
     59.1943000              0.4847620
     20.0310000              0.3352000
SP   6   1.00
    339.4780000             -0.00278217             0.00456462
     81.0101000             -0.0360499              0.03369360
     25.8780000             -0.1166310              0.13975500
      9.4522100              0.0968328              0.33936200
      3.6656600              0.6144180              0.45092100
      1.4674600              0.4037980              0.23858600
SP   3   1.00
      2.1562300             -0.2529230             -0.01776530
      0.7489970              0.0328517              0.27405800
      0.2831450              1.0812500              0.78542100
SP   1   1.00
      0.0998317              1.0000000              1.00000000
D    1   1.00
      1.1000000              1.0000000
D    1   1.00
      0.2750000              1.0000000
F    1   1.00
      0.4500000              1.0000000
****
S     0
S    6   1.00
  21917.1000000              0.0018690
   3301.4900000              0.0142300
    754.1460000              0.0696960
    212.7110000              0.2384870
     67.9896000              0.4833070
     23.0515000              0.3380740
SP   6   1.00
    423.7350000             -0.0023767              0.0040610
    100.7100000             -0.0316930              0.0306810
     32.1599000             -0.1133170              0.1304520
     11.8079000              0.0560900              0.3272050
      4.6311000              0.5922550              0.4528510
      1.8702500              0.4550060              0.2560420
SP   3   1.00
      2.6158400             -0.2503740             -0.0145110
      0.9221670              0.0669570              0.3102630
      0.3412870              1.0545100              0.7544830
SP   1   1.00
      0.1171670              1.0000000              1.0000000
D    1   1.00
      1.3000000              1.0000000
D    1   1.00
      0.3250000              1.0000000
F    1   1.00
      0.5500000              1.0000000
****
Cl     0
S    6   1.00
  25180.1000000              0.0018330
   3780.3500000              0.0140340
    860.4740000              0.0690970
    242.1450000              0.2374520
     77.3349000              0.4830340
     26.2470000              0.3398560
SP   6   1.00
    491.7650000             -0.0022974              0.0039894
    116.9840000             -0.0307140              0.0303180
     37.4153000             -0.1125280              0.1298800
     13.7834000              0.0450160              0.3279510
      5.4521500              0.5893530              0.4535270
      2.2258800              0.4652060              0.2521540
SP   3   1.00
      3.1864900             -0.2518300             -0.0142990
      1.1442700              0.0615890              0.3235720
      0.4203770              1.0601800              0.7435070
SP   1   1.00
      0.1426570              1.0000000              1.0000000
D    1   1.00
      1.5000000              1.0000000
D    1   1.00
      0.3750000              1.0000000
F    1   1.00
      0.7000000              1.0000000
****
}


set {
reference rhf                          
freeze_core true
e_convergence 10                       
d_convergence 10                      
dft_spherical_points 1202
dft_radial_points 99
}

e = energy('b3lyp')

print_out('Grab this energy {0}'.format(e))
--------------------------------------------------------------------------

  Memory set to  13.039 GiB by Python driver.

Scratch directory: /tmp/

*** tstart() called on n041
*** at Fri Nov 12 16:21:54 2021

   => Loading Basis Set <=

    Name: ANONYMOUS239D447F
    Role: ORBITAL
    Keyword: BASIS
    atoms 1, 6-14 entry H          line    15 inputblock 6-31g_2dfp_ 
    atoms 2-5     entry C          line    48 inputblock 6-31g_2dfp_ 


         ---------------------------------------------------------
                                   SCF
               by Justin Turney, Rob Parrish, Andy Simmonett
                          and Daniel G. A. Smith
                              RKS Reference
                        4 Threads,  13351 MiB Core
         ---------------------------------------------------------

  ==> Geometry <==

    Molecular point group: c1
    Full point group: C1

    Geometry (in Bohr), charge = 0, multiplicity = 1:

       Center              X                  Y                   Z               Mass       
    ------------   -----------------  -----------------  -----------------  -----------------
         H           -2.775787009640    -0.000000796783     0.000095551956     1.007825032230
         C           -0.704547469840    -0.000000240583     0.000119165556    12.000000000000
         C            0.202609116560    -1.372315537783    -2.377652198044    12.000000000000
         C            0.200967771360     2.745786042817    -0.000732230544    12.000000000000
         C            0.199327299660    -1.373470531083     2.378188241856    12.000000000000
         H            2.266032180360    -1.409342263483    -2.440738722544     1.007825032230
         H           -0.469336666540    -0.429764354183    -4.090094638444     1.007825032230
         H           -0.469214002440    -3.327403089083    -2.417073387644     1.007825032230
         H            2.266182776160     2.818391485317     0.000315918756     1.007825032230
         H           -0.468628689040     3.756841755617     1.673390418056     1.007825032230
         H           -0.468874003340     3.756962241417    -1.672954504844     1.007825032230
         H            2.266334485860    -1.409046768283     2.440858745756     1.007825032230
         H           -0.468291287340    -3.327515916083     2.416898953056     1.007825032230
         H           -0.468168635540    -0.429119119683     4.090218743856     1.007825032230

  Running in c1 symmetry.

  Rotational constants: A =      0.26080  B =      0.26066  C =      0.15137 [cm^-1]
  Rotational constants: A =   7818.59818  B =   7814.52898  C =   4537.83516 [MHz]
  Nuclear repulsion =  134.696830079468356

  Charge       = 0
  Multiplicity = 1
  Electrons    = 34
  Nalpha       = 17
  Nbeta        = 17

  ==> Algorithm <==

  SCF Algorithm Type is DF.
  DIIS enabled.
  MOM disabled.
  Fractional occupation disabled.
  Guess Type is SAD.
  Energy threshold   = 1.00e-10
  Density threshold  = 1.00e-10
  Integral threshold = 0.00e+00

  ==> Primary Basis <==

  Basis Set: ANONYMOUS239D447F
    Blend: 6-31G_2DFP_
    Number of shells: 72
    Number of basis function: 184
    Number of Cartesian functions: 204
    Spherical Harmonics?: true
    Max angular momentum: 3

  ==> DFT Potential <==

   => Composite Functional: B3LYP <= 

    B3LYP Hyb-GGA Exchange-Correlation Functional

    P. J. Stephens, F. J. Devlin, C. F. Chabalowski, and M. J. Frisch, J. Phys. Chem. 98, 11623 (1994)

    Deriv               =              1
    GGA                 =           TRUE
    Meta                =          FALSE

    Exchange Hybrid     =           TRUE
    MP2 Hybrid          =          FALSE

   => Exchange Functionals <=

    0.0800   Slater exchange
    0.7200         Becke 88

   => Exact (HF) Exchange <=

    0.2000               HF 

   => Correlation Functionals <=

    0.1900   Vosko, Wilk & Nusair (VWN5_RPA)
    0.8100   Lee, Yang & Parr

   => Molecular Quadrature <=

    Radial Scheme          =       TREUTLER
    Pruning Scheme         =           NONE
    Nuclear Scheme         =       TREUTLER

    BS radius alpha        =              1
    Pruning alpha          =              1
    Radial Points          =             99
    Spherical Points       =           1202
    Total Points           =        1546608
    Total Blocks           =          10371
    Max Points             =            256
    Max Functions          =            184
    Weights Tolerance      =       1.00E-15

   => Loading Basis Set <=

    Name: (ANONYMOUS239D447F AUX)
    Role: JKFIT
    Keyword: DF_BASIS_SCF
    atoms 1, 6-14 entry H          line    18 file /opt/psi/4/master/share/psi4/basis/def2-universal-jkfit.gbs 
    atoms 2-5     entry C          line   198 file /opt/psi/4/master/share/psi4/basis/def2-universal-jkfit.gbs 

  ==> Integral Setup <==

  DFHelper Memory: AOs need 0.129 GiB; user supplied 3.158 GiB. Using in-core AOs.

  ==> MemDFJK: Density-Fitted J/K Matrices <==

    J tasked:                   Yes
    K tasked:                   Yes
    wK tasked:                   No
    OpenMP threads:               4
    Memory [MiB]:              3234
    Algorithm:                 Core
    Schwarz Cutoff:           1E-12
    Mask sparsity (%):       1.1697
    Fitting Condition:        1E-10

   => Auxiliary Basis Set <=

  Basis Set: (ANONYMOUS239D447F AUX)
    Blend: DEF2-UNIVERSAL-JKFIT
    Number of shells: 160
    Number of basis function: 480
    Number of Cartesian functions: 556
    Spherical Harmonics?: true
    Max angular momentum: 4

  Cached 100.0% of DFT collocation blocks in 6.620 [GiB].

  Minimum eigenvalue in the overlap matrix is 1.3314139499E-03.
  Reciprocal condition number of the overlap matrix is 2.1019822709E-04.
    Using symmetric orthogonalization.

  ==> Pre-Iterations <==

  SCF Guess: Superposition of Atomic Densities via on-the-fly atomic UHF (no occupation information).

   -------------------------
    Irrep   Nso     Nmo    
   -------------------------
     A        184     184 
   -------------------------
    Total     184     184
   -------------------------

  ==> Iterations <==

                           Total Energy        Delta E     RMS |[F,P]|

   @DF-RKS iter SAD:  -157.74016353781036   -1.57740e+02   0.00000e+00 
   @DF-RKS iter   1:  -158.05180727648715   -3.11644e-01   4.78760e-03 DIIS
   @DF-RKS iter   2:  -157.82411742420246    2.27690e-01   5.81977e-03 DIIS
   @DF-RKS iter   3:  -158.47126647466814   -6.47149e-01   4.68902e-04 DIIS
   @DF-RKS iter   4:  -158.47413345870049   -2.86698e-03   2.27284e-04 DIIS
   @DF-RKS iter   5:  -158.47494448846604   -8.11030e-04   3.51482e-05 DIIS
   @DF-RKS iter   6:  -158.47496383585957   -1.93474e-05   7.02924e-06 DIIS
   @DF-RKS iter   7:  -158.47496479199293   -9.56133e-07   1.32740e-06 DIIS
   @DF-RKS iter   8:  -158.47496482802481   -3.60319e-08   5.10180e-08 DIIS
   @DF-RKS iter   9:  -158.47496482807526   -5.04485e-11   9.44764e-09 DIIS
   @DF-RKS iter  10:  -158.47496482807597   -7.10543e-13   6.39186e-09 DIIS
   @DF-RKS iter  11:  -158.47496482807688   -9.09495e-13   9.31820e-10 DIIS
   @DF-RKS iter  12:  -158.47496482807659    2.84217e-13   4.11763e-11 DIIS
  Energy and wave function converged.


  ==> Post-Iterations <==

    Orbital Energies [Eh]
    ---------------------

    Doubly Occupied:                                                      

       1A    -10.178079     2A    -10.162434     3A    -10.162428  
       4A    -10.162381     5A     -0.798837     6A     -0.677714  
       7A     -0.677659     8A     -0.555582     9A     -0.459540  
      10A     -0.426621    11A     -0.426422    12A     -0.379255  
      13A     -0.378912    14A     -0.358917    15A     -0.323081  
      16A     -0.322918    17A     -0.319165  

    Virtual:                                                              

      18A      0.073479    19A      0.122286    20A      0.137116  
      21A      0.137131    22A      0.148225    23A      0.148377  
      24A      0.161220    25A      0.188128    26A      0.188319  
      27A      0.213643    28A      0.216280    29A      0.242167  
      30A      0.242278    31A      0.392785    32A      0.393127  
      33A      0.396144    34A      0.422119    35A      0.422206  
      36A      0.445830    37A      0.485143    38A      0.485167  
      39A      0.534315    40A      0.565186    41A      0.565285  
      42A      0.568252    43A      0.589121    44A      0.589267  
      45A      0.615761    46A      0.616144    47A      0.616419  
      48A      0.628013    49A      0.631117    50A      0.654775  
      51A      0.655058    52A      0.674372    53A      0.674399  
      54A      0.676114    55A      0.795927    56A      0.796024  
      57A      0.863705    58A      0.897828    59A      0.897832  
      60A      0.945322    61A      0.954639    62A      0.999835  
      63A      0.999931    64A      1.055804    65A      1.056322  
      66A      1.056884    67A      1.070811    68A      1.135081  
      69A      1.170317    70A      1.170427    71A      1.215185  
      72A      1.215503    73A      1.270519    74A      1.298421  
      75A      1.298932    76A      1.317005    77A      1.317119  
      78A      1.329270    79A      1.377692    80A      1.377983  
      81A      1.398971    82A      1.415114    83A      1.415141  
      84A      1.425497    85A      1.475520    86A      1.497284  
      87A      1.503785    88A      1.503790    89A      1.538461  
      90A      1.582858    91A      1.583270    92A      1.672114  
      93A      1.672904    94A      1.682170    95A      1.705555  
      96A      1.706561    97A      1.786881    98A      1.796996  
      99A      1.835624   100A      1.835909   101A      2.009822  
     102A      2.010962   103A      2.027515   104A      2.075310  
     105A      2.076013   106A      2.293032   107A      2.724400  
     108A      2.724663   109A      2.825846   110A      2.827107  
     111A      2.870660   112A      2.870751   113A      2.931718  
     114A      2.931779   115A      2.947144   116A      2.947749  
     117A      2.947796   118A      2.974492   119A      3.004916  
     120A      3.004981   121A      3.137840   122A      3.163795  
     123A      3.167382   124A      3.167893   125A      3.251675  
     126A      3.385255   127A      3.385452   128A      3.425150  
     129A      3.460353   130A      3.470661   131A      3.471034  
     132A      3.512747   133A      3.512916   134A      3.563312  
     135A      3.563658   136A      3.597522   137A      3.613590  
     138A      3.621074   139A      3.621203   140A      3.680813  
     141A      3.681014   142A      3.720403   143A      3.720472  
     144A      3.723009   145A      3.891316   146A      3.897513  
     147A      3.898065   148A      4.045995   149A      4.109192  
     150A      4.109260   151A      4.130958   152A      4.148183  
     153A      4.148265   154A      4.171615   155A      4.193591  
     156A      4.217369   157A      4.217374   158A      4.263745  
     159A      4.263866   160A      4.378107   161A      4.378520  
     162A      4.382647   163A      4.481508   164A      4.517336  
     165A      4.517484   166A      4.532881   167A      4.569436  
     168A      4.571307   169A      4.611401   170A      4.663709  
     171A      4.663787   172A      4.735345   173A      4.736236  
     174A      4.755911   175A      4.981297   176A      5.005596  
     177A      5.005935   178A      5.176287   179A      5.255325  
     180A      5.255397   181A      5.333480   182A      5.367706  
     183A      5.367837   184A      5.389855  

    Final Occupation by Irrep:
              A 
    DOCC [    17 ]

  @DF-RKS Final Energy:  -158.47496482807659

   => Energetics <=

    Nuclear Repulsion Energy =            134.6968300794683557
    One-Electron Energy =                -477.9659170734717009
    Two-Electron Energy =                 205.4307180138191598
    DFT Exchange-Correlation Energy =     -20.6365958478923801
    Empirical Dispersion Energy =           0.0000000000000000
    VV10 Nonlocal Energy =                  0.0000000000000000
    Total Energy =                       -158.4749648280765939

Computation Completed


Properties will be evaluated at   0.000000,   0.000000,   0.000000 [a0]

Properties computed using the SCF density matrix

  Nuclear Dipole Moment: [e a0]
     X:     0.6004      Y:     0.0000      Z:     0.0005

  Electronic Dipole Moment: [e a0]
     X:    -0.6343      Y:    -0.0000      Z:    -0.0005

  Dipole Moment: [e a0]
     X:    -0.0340      Y:     0.0000      Z:    -0.0001     Total:     0.0340

  Dipole Moment: [D]
     X:    -0.0863      Y:     0.0000      Z:    -0.0002     Total:     0.0863


*** tstop() called on n041 at Fri Nov 12 16:22:38 2021
Module time:
	user time   =     158.70 seconds =       2.65 minutes
	system time =       1.62 seconds =       0.03 minutes
	total time  =         44 seconds =       0.73 minutes
Total time:
	user time   =     158.70 seconds =       2.65 minutes
	system time =       1.62 seconds =       0.03 minutes
	total time  =         44 seconds =       0.73 minutes
Grab this energy -158.4749648280766
    Psi4 stopped on: Friday, 12 November 2021 04:22PM
    Psi4 wall time for execution: 0:00:43.89

*** Psi4 exiting successfully. Buy a developer a beer!
