
    -----------------------------------------------------------------------
          Psi4: An Open-Source Ab Initio Electronic Structure Package
                               Psi4 1.4a2.dev629 

                         Git: Rev {master} 2938fc2 dirty


    D. G. A. Smith, L. A. Burns, A. C. Simmonett, R. M. Parrish,
    M. C. Schieber, R. Galvelis, P. Kraus, H. Kruse, R. Di Remigio,
    A. Alenaizan, A. M. James, S. Lehtola, J. P. Misiewicz, M. Scheurer,
    R. A. Shaw, J. B. Schriber, Y. Xie, Z. L. Glick, D. A. Sirianni,
    J. S. O'Brien, J. M. Waldrop, A. Kumar, E. G. Hohenstein,
    B. P. Pritchard, B. R. Brooks, H. F. Schaefer III, A. Yu. Sokolov,
    K. Patkowski, A. E. DePrince III, U. Bozkaya, R. A. King,
    F. A. Evangelista, J. M. Turney, T. D. Crawford, C. D. Sherrill,
    J. Chem. Phys. 152(18) 184108 (2020). https://doi.org/10.1063/5.0006002

                            Additional Code Authors
    E. T. Seidl, C. L. Janssen, E. F. Valeev, M. L. Leininger,
    J. F. Gonthier, R. M. Richard, H. R. McAlexander, M. Saitow, X. Wang,
    P. Verma, and M. H. Lechner

             Previous Authors, Complete List of Code Contributors,
                       and Citations for Specific Modules
    https://github.com/psi4/psi4/blob/master/codemeta.json
    https://github.com/psi4/psi4/graphs/contributors
    http://psicode.org/psi4manual/master/introduction.html#citing-psifour

    -----------------------------------------------------------------------


    Psi4 started on: Friday, 12 November 2021 05:13PM

    Process ID: 15639
    Host:       n091
    PSIDATADIR: /opt/psi/4/master/share/psi4
    Memory:     500.0 MiB
    Threads:    4
    
  ==> Input File <==

--------------------------------------------------------------------------
import os
memory 14 GB 
 
molecule {
 H   -2.7757773846   -0.0000020414    0.0055602514
 C   -0.7045409365    0.0000023495    0.0019814369
 C    0.2027224820   -1.3677806302   -2.3750732552
 C    0.2009669966    2.7457795764   -0.0060021110
 C    0.1992127557   -1.3779977287    2.3807655679
 H    2.2645560352   -1.4013595576   -2.4383391395
 H   -0.4666033825   -0.4214630253   -4.0860657682
 H   -0.4652191548   -3.3254595499   -2.4156648323
 H    2.2661761956    2.8183776135   -0.0111159140
 H   -0.4673738088    3.7622775388    1.6672367952
 H   -0.4701305460    3.7515171755   -1.6790907157
 H    2.2678060981   -1.4170326007    2.4432537671
 H   -0.4722787088   -3.3294514637    2.4183144369
 H   -0.4709061612   -0.4374076563    4.0942394803
units bohr
}

basis {

assign 6-31g_2dfp_

[ 6-31g_2dfp_ ]

spherical

!----------------------------------------------------------------------
! Basis Set Exchange
! Version v0.8.13
! https://www.basissetexchange.org
!----------------------------------------------------------------------
!   Basis set: 6-31G(2df,p)
! Description: 6-31G(2df,p)
!        Role: orbital
!     Version: 0  (Data from the original Basis Set Exchange)
!----------------------------------------------------------------------


****
H     0
S    3   1.00
     18.7311370              0.03349460
      2.8253937              0.23472695
      0.6401217              0.81375733
S    1   1.00
      0.1612778              1.00000000
P    1   1.00
      1.5000000              1.0000000
P    1   1.00
      0.3750000              1.0000000
****
B     0
S    6   1.00
   2068.8823000              0.0018663
    310.6495700              0.0142515
     70.6830330              0.0695516
     19.8610800              0.2325729
      6.2993048              0.4670787
      2.1270270              0.3634314
SP   3   1.00
      4.7279710             -0.1303938              0.0745976
      1.1903377             -0.1307889              0.3078467
      0.3594117              1.1309444              0.7434568
SP   1   1.00
      0.1267512              1.0000000              1.0000000
D    1   1.00
      0.8020000              1.0000000
D    1   1.00
      0.2005000              1.0000000
F    1   1.00
      0.5000000              1.0000000
****
C     0
S    6   1.00
   3047.5249000              0.0018347
    457.3695100              0.0140373
    103.9486900              0.0688426
     29.2101550              0.2321844
      9.2866630              0.4679413
      3.1639270              0.3623120
SP   3   1.00
      7.8682724             -0.1193324              0.0689991
      1.8812885             -0.1608542              0.3164240
      0.5442493              1.1434564              0.7443083
SP   1   1.00
      0.1687144              1.0000000              1.0000000
D    1   1.00
      1.2520000              1.0000000
D    1   1.00
      0.3130000              1.0000000
F    1   1.00
      0.8000000              1.0000000
****
N     0
S    6   1.00
   4173.5110000              0.0018348
    627.4579000              0.0139950
    142.9021000              0.0685870
     40.2343300              0.2322410
     12.8202100              0.4690700
      4.3904370              0.3604550
SP   3   1.00
     11.6263580             -0.1149610              0.0675800
      2.7162800             -0.1691180              0.3239070
      0.7722180              1.1458520              0.7408950
SP   1   1.00
      0.2120313              1.0000000              1.0000000
D    1   1.00
      1.8260000              1.0000000
D    1   1.00
      0.4565000              1.0000000
F    1   1.00
      1.0000000              1.0000000
****
O     0
S    6   1.00
   5484.6717000              0.0018311
    825.2349500              0.0139501
    188.0469600              0.0684451
     52.9645000              0.2327143
     16.8975700              0.4701930
      5.7996353              0.3585209
SP   3   1.00
     15.5396160             -0.1107775              0.0708743
      3.5999336             -0.1480263              0.3397528
      1.0137618              1.1307670              0.7271586
SP   1   1.00
      0.2700058              1.0000000              1.0000000
D    1   1.00
      2.5840000              1.0000000
D    1   1.00
      0.6460000              1.0000000
F    1   1.00
      1.4000000              1.0000000
****
F     0
S    6   1.00
   7001.7130900              0.0018196169
   1051.3660900              0.0139160796
    239.2856900              0.0684053245
     67.3974453              0.233185760
     21.5199573              0.471267439
      7.40310130             0.356618546
SP   3   1.00
     20.8479528             -0.108506975            0.0716287243
      4.80830834            -0.146451658            0.3459121030
      1.34406986             1.128688580            0.7224699570
SP   1   1.00
      0.358151393            1.0000000              1.0000000
D    1   1.00
      3.5000000              1.0000000
D    1   1.00
      0.8750000              1.0000000
F    1   1.00
      1.8500000              1.0000000
****
Al     0
S    6   1.00
  13983.1000000              0.00194267
   2098.7500000              0.0148599
    477.7050000              0.0728494
    134.3600000              0.2468300
     42.8709000              0.4872580
     14.5189000              0.3234960
SP   6   1.00
    239.6680000             -0.00292619             0.00460285
     57.4419000             -0.0374080              0.0331990
     18.2859000             -0.1144870              0.1362820
      6.5991400              0.1156350              0.3304760
      2.4904900              0.6125950              0.4491460
      0.9445400              0.3937990              0.2657040
SP   3   1.00
      1.2779000             -0.2276060             -0.0175130
      0.3975900              0.00144583             0.2445330
      0.1600950              1.0927900              0.8049340
SP   1   1.00
      0.0556577              1.0000000              1.0000000
D    1   1.00
      0.6500000              1.0000000
D    1   1.00
      0.1625000              1.0000000
F    1   1.00
      0.2500000              1.0000000
****
Si     0
S    6   1.00
  16115.9000000              0.00195948
   2425.5800000              0.01492880
    553.8670000              0.07284780
    156.3400000              0.24613000
     50.0683000              0.48591400
     17.0178000              0.32500200
SP   6   1.00
    292.7180000             -0.00278094             0.00443826
     69.8731000             -0.03571460             0.03266790
     22.3363000             -0.11498500             0.13472100
      8.1503900              0.09356340             0.32867800
      3.1345800              0.60301700             0.44964000
      1.2254300              0.41895900             0.26137200
SP   3   1.00
      1.7273800             -0.24463000            -0.01779510
      0.5729220              0.00431572             0.25353900
      0.2221920              1.09818000             0.80066900
SP   1   1.00
      0.0778369              1.00000000             1.00000000
D    1   1.00
      0.9000000              1.0000000
D    1   1.00
      0.2250000              1.0000000
F    1   1.00
      0.3200000              1.0000000
****
P     0
S    6   1.00
  19413.3000000              0.0018516
   2909.4200000              0.0142062
    661.3640000              0.0699995
    185.7590000              0.2400790
     59.1943000              0.4847620
     20.0310000              0.3352000
SP   6   1.00
    339.4780000             -0.00278217             0.00456462
     81.0101000             -0.0360499              0.03369360
     25.8780000             -0.1166310              0.13975500
      9.4522100              0.0968328              0.33936200
      3.6656600              0.6144180              0.45092100
      1.4674600              0.4037980              0.23858600
SP   3   1.00
      2.1562300             -0.2529230             -0.01776530
      0.7489970              0.0328517              0.27405800
      0.2831450              1.0812500              0.78542100
SP   1   1.00
      0.0998317              1.0000000              1.00000000
D    1   1.00
      1.1000000              1.0000000
D    1   1.00
      0.2750000              1.0000000
F    1   1.00
      0.4500000              1.0000000
****
S     0
S    6   1.00
  21917.1000000              0.0018690
   3301.4900000              0.0142300
    754.1460000              0.0696960
    212.7110000              0.2384870
     67.9896000              0.4833070
     23.0515000              0.3380740
SP   6   1.00
    423.7350000             -0.0023767              0.0040610
    100.7100000             -0.0316930              0.0306810
     32.1599000             -0.1133170              0.1304520
     11.8079000              0.0560900              0.3272050
      4.6311000              0.5922550              0.4528510
      1.8702500              0.4550060              0.2560420
SP   3   1.00
      2.6158400             -0.2503740             -0.0145110
      0.9221670              0.0669570              0.3102630
      0.3412870              1.0545100              0.7544830
SP   1   1.00
      0.1171670              1.0000000              1.0000000
D    1   1.00
      1.3000000              1.0000000
D    1   1.00
      0.3250000              1.0000000
F    1   1.00
      0.5500000              1.0000000
****
Cl     0
S    6   1.00
  25180.1000000              0.0018330
   3780.3500000              0.0140340
    860.4740000              0.0690970
    242.1450000              0.2374520
     77.3349000              0.4830340
     26.2470000              0.3398560
SP   6   1.00
    491.7650000             -0.0022974              0.0039894
    116.9840000             -0.0307140              0.0303180
     37.4153000             -0.1125280              0.1298800
     13.7834000              0.0450160              0.3279510
      5.4521500              0.5893530              0.4535270
      2.2258800              0.4652060              0.2521540
SP   3   1.00
      3.1864900             -0.2518300             -0.0142990
      1.1442700              0.0615890              0.3235720
      0.4203770              1.0601800              0.7435070
SP   1   1.00
      0.1426570              1.0000000              1.0000000
D    1   1.00
      1.5000000              1.0000000
D    1   1.00
      0.3750000              1.0000000
F    1   1.00
      0.7000000              1.0000000
****
}


set {
reference rhf                          
freeze_core true
e_convergence 10                       
d_convergence 10                      
dft_spherical_points 1202
dft_radial_points 99
}

e = energy('b3lyp')

print_out('Grab this energy {0}'.format(e))
--------------------------------------------------------------------------

  Memory set to  13.039 GiB by Python driver.

Scratch directory: /tmp/

*** tstart() called on n091
*** at Fri Nov 12 17:13:17 2021

   => Loading Basis Set <=

    Name: ANONYMOUSD3D7D0D3
    Role: ORBITAL
    Keyword: BASIS
    atoms 1, 6-14 entry H          line    15 inputblock 6-31g_2dfp_ 
    atoms 2-5     entry C          line    48 inputblock 6-31g_2dfp_ 


         ---------------------------------------------------------
                                   SCF
               by Justin Turney, Rob Parrish, Andy Simmonett
                          and Daniel G. A. Smith
                              RKS Reference
                        4 Threads,  13351 MiB Core
         ---------------------------------------------------------

  ==> Geometry <==

    Molecular point group: c1
    Full point group: C1

    Geometry (in Bohr), charge = 0, multiplicity = 1:

       Center              X                  Y                   Z               Mass       
    ------------   -----------------  -----------------  -----------------  -----------------
         H           -2.775778331506    -0.000002716506     0.005243868870     1.007825032230
         C           -0.704541883406     0.000001674394     0.001665054370    12.000000000000
         C            0.202721535094    -1.367781305306    -2.375389637730    12.000000000000
         C            0.200966049694     2.745778901294    -0.006318493530    12.000000000000
         C            0.199211808794    -1.377998403806     2.380449185370    12.000000000000
         H            2.264555088294    -1.401360232706    -2.438655522030     1.007825032230
         H           -0.466604329406    -0.421463700406    -4.086382150730     1.007825032230
         H           -0.465220101706    -3.325460225006    -2.415981214830     1.007825032230
         H            2.266175248694     2.818376938394    -0.011432296530     1.007825032230
         H           -0.467374755706     3.762276863694     1.666920412670     1.007825032230
         H           -0.470131492906     3.751516500394    -1.679407098230     1.007825032230
         H            2.267805151194    -1.417033275806     2.442937384570     1.007825032230
         H           -0.472279655706    -3.329452138806     2.417998054370     1.007825032230
         H           -0.470907108106    -0.437408331406     4.093923097770     1.007825032230

  Running in c1 symmetry.

  Rotational constants: A =      0.26161  B =      0.25986  C =      0.15137 [cm^-1]
  Rotational constants: A =   7842.87696  B =   7790.41489  C =   4537.82481 [MHz]
  Nuclear repulsion =  134.696998471935814

  Charge       = 0
  Multiplicity = 1
  Electrons    = 34
  Nalpha       = 17
  Nbeta        = 17

  ==> Algorithm <==

  SCF Algorithm Type is DF.
  DIIS enabled.
  MOM disabled.
  Fractional occupation disabled.
  Guess Type is SAD.
  Energy threshold   = 1.00e-10
  Density threshold  = 1.00e-10
  Integral threshold = 0.00e+00

  ==> Primary Basis <==

  Basis Set: ANONYMOUSD3D7D0D3
    Blend: 6-31G_2DFP_
    Number of shells: 72
    Number of basis function: 184
    Number of Cartesian functions: 204
    Spherical Harmonics?: true
    Max angular momentum: 3

  ==> DFT Potential <==

   => Composite Functional: B3LYP <= 

    B3LYP Hyb-GGA Exchange-Correlation Functional

    P. J. Stephens, F. J. Devlin, C. F. Chabalowski, and M. J. Frisch, J. Phys. Chem. 98, 11623 (1994)

    Deriv               =              1
    GGA                 =           TRUE
    Meta                =          FALSE

    Exchange Hybrid     =           TRUE
    MP2 Hybrid          =          FALSE

   => Exchange Functionals <=

    0.0800   Slater exchange
    0.7200         Becke 88

   => Exact (HF) Exchange <=

    0.2000               HF 

   => Correlation Functionals <=

    0.1900   Vosko, Wilk & Nusair (VWN5_RPA)
    0.8100   Lee, Yang & Parr

   => Molecular Quadrature <=

    Radial Scheme          =       TREUTLER
    Pruning Scheme         =           NONE
    Nuclear Scheme         =       TREUTLER

    BS radius alpha        =              1
    Pruning alpha          =              1
    Radial Points          =             99
    Spherical Points       =           1202
    Total Points           =        1546595
    Total Blocks           =          10387
    Max Points             =            256
    Max Functions          =            184
    Weights Tolerance      =       1.00E-15

   => Loading Basis Set <=

    Name: (ANONYMOUSD3D7D0D3 AUX)
    Role: JKFIT
    Keyword: DF_BASIS_SCF
    atoms 1, 6-14 entry H          line    18 file /opt/psi/4/master/share/psi4/basis/def2-universal-jkfit.gbs 
    atoms 2-5     entry C          line   198 file /opt/psi/4/master/share/psi4/basis/def2-universal-jkfit.gbs 

  ==> Integral Setup <==

  DFHelper Memory: AOs need 0.129 GiB; user supplied 3.158 GiB. Using in-core AOs.

  ==> MemDFJK: Density-Fitted J/K Matrices <==

    J tasked:                   Yes
    K tasked:                   Yes
    wK tasked:                   No
    OpenMP threads:               4
    Memory [MiB]:              3234
    Algorithm:                 Core
    Schwarz Cutoff:           1E-12
    Mask sparsity (%):       1.1697
    Fitting Condition:        1E-10

   => Auxiliary Basis Set <=

  Basis Set: (ANONYMOUSD3D7D0D3 AUX)
    Blend: DEF2-UNIVERSAL-JKFIT
    Number of shells: 160
    Number of basis function: 480
    Number of Cartesian functions: 556
    Spherical Harmonics?: true
    Max angular momentum: 4

  Cached 100.0% of DFT collocation blocks in 6.620 [GiB].

  Minimum eigenvalue in the overlap matrix is 1.3313756632E-03.
  Reciprocal condition number of the overlap matrix is 2.1019045759E-04.
    Using symmetric orthogonalization.

  ==> Pre-Iterations <==

  SCF Guess: Superposition of Atomic Densities via on-the-fly atomic UHF (no occupation information).

   -------------------------
    Irrep   Nso     Nmo    
   -------------------------
     A        184     184 
   -------------------------
    Total     184     184
   -------------------------

  ==> Iterations <==

                           Total Energy        Delta E     RMS |[F,P]|

   @DF-RKS iter SAD:  -157.74017516028329   -1.57740e+02   0.00000e+00 
   @DF-RKS iter   1:  -158.05179028630914   -3.11615e-01   4.78762e-03 DIIS
   @DF-RKS iter   2:  -157.82409288715803    2.27697e-01   5.81982e-03 DIIS
   @DF-RKS iter   3:  -158.47125350322756   -6.47161e-01   4.68909e-04 DIIS
   @DF-RKS iter   4:  -158.47412053850326   -2.86704e-03   2.27292e-04 DIIS
   @DF-RKS iter   5:  -158.47493163313868   -8.11095e-04   3.51493e-05 DIIS
   @DF-RKS iter   6:  -158.47495098186403   -1.93487e-05   7.02986e-06 DIIS
   @DF-RKS iter   7:  -158.47495193809505   -9.56231e-07   1.32822e-06 DIIS
   @DF-RKS iter   8:  -158.47495197414639   -3.60513e-08   5.84635e-08 DIIS
   @DF-RKS iter   9:  -158.47495197419198   -4.55884e-11   3.44055e-08 DIIS
   @DF-RKS iter  10:  -158.47495197421102   -1.90425e-11   7.83158e-09 DIIS
   @DF-RKS iter  11:  -158.47495197421236   -1.33582e-12   6.14634e-10 DIIS
   @DF-RKS iter  12:  -158.47495197421227    8.52651e-14   5.43056e-11 DIIS
  Energy and wave function converged.


  ==> Post-Iterations <==

    Orbital Energies [Eh]
    ---------------------

    Doubly Occupied:                                                      

       1A    -10.178079     2A    -10.162575     3A    -10.162415  
       4A    -10.162254     5A     -0.798841     6A     -0.677875  
       7A     -0.677499     8A     -0.555584     9A     -0.459541  
      10A     -0.426613    11A     -0.426430    12A     -0.379140  
      13A     -0.379025    14A     -0.358919    15A     -0.323303  
      16A     -0.322732    17A     -0.319126  

    Virtual:                                                              

      18A      0.073479    19A      0.122286    20A      0.136929  
      21A      0.137316    22A      0.148008    23A      0.148591  
      24A      0.161220    25A      0.187890    26A      0.188555  
      27A      0.213647    28A      0.216277    29A      0.242060  
      30A      0.242392    31A      0.392840    32A      0.393030  
      33A      0.396192    34A      0.422093    35A      0.422236  
      36A      0.445828    37A      0.484775    38A      0.485535  
      39A      0.534318    40A      0.565211    41A      0.565238  
      42A      0.568269    43A      0.588706    44A      0.589675  
      45A      0.615616    46A      0.616127    47A      0.616584  
      48A      0.628012    49A      0.631121    50A      0.654618  
      51A      0.655213    52A      0.674264    53A      0.674497  
      54A      0.676139    55A      0.795199    56A      0.796749  
      57A      0.863696    58A      0.897326    59A      0.898335  
      60A      0.945302    61A      0.954642    62A      0.999790  
      63A      1.000007    64A      1.055733    65A      1.056565  
      66A      1.056721    67A      1.070819    68A      1.135069  
      69A      1.169615    70A      1.171126    71A      1.214927  
      72A      1.215766    73A      1.270499    74A      1.298515  
      75A      1.298870    76A      1.316323    77A      1.317783  
      78A      1.329289    79A      1.377602    80A      1.378076  
      81A      1.398959    82A      1.414403    83A      1.415874  
      84A      1.425502    85A      1.475521    86A      1.497024  
      87A      1.503684    88A      1.504126    89A      1.538450  
      90A      1.582579    91A      1.583560    92A      1.671490  
      93A      1.673541    94A      1.682174    95A      1.705533  
      96A      1.706578    97A      1.786875    98A      1.796927  
      99A      1.835350   100A      1.836267   101A      2.008470  
     102A      2.012321   103A      2.027499   104A      2.072974  
     105A      2.078441   106A      2.293028   107A      2.723701  
     108A      2.725359   109A      2.825847   110A      2.827103  
     111A      2.870102   112A      2.871312   113A      2.931213  
     114A      2.932261   115A      2.946891   116A      2.947215  
     117A      2.948615   118A      2.974505   119A      3.004591  
     120A      3.005330   121A      3.137832   122A      3.163726  
     123A      3.166050   124A      3.169321   125A      3.251666  
     126A      3.385015   127A      3.385674   128A      3.425149  
     129A      3.460269   130A      3.470439   131A      3.471317  
     132A      3.512559   133A      3.513135   134A      3.563013  
     135A      3.563942   136A      3.597550   137A      3.613594  
     138A      3.620936   139A      3.621375   140A      3.680795  
     141A      3.681015   142A      3.718801   143A      3.721752  
     144A      3.723339   145A      3.891323   146A      3.897519  
     147A      3.898080   148A      4.045976   149A      4.108457  
     150A      4.109900   151A      4.130931   152A      4.147419  
     153A      4.149087   154A      4.171575   155A      4.193610  
     156A      4.217125   157A      4.217692   158A      4.263565  
     159A      4.264076   160A      4.377756   161A      4.379002  
     162A      4.382542   163A      4.481494   164A      4.516345  
     165A      4.518490   166A      4.532873   167A      4.568822  
     168A      4.571985   169A      4.611430   170A      4.663535  
     171A      4.663914   172A      4.733948   173A      4.737674  
     174A      4.755906   175A      4.981277   176A      5.004824  
     177A      5.006757   178A      5.176243   179A      5.253968  
     180A      5.256751   181A      5.333337   182A      5.366070  
     183A      5.369541   184A      5.390013  

    Final Occupation by Irrep:
              A 
    DOCC [    17 ]

  @DF-RKS Final Energy:  -158.47495197421227

   => Energetics <=

    Nuclear Repulsion Energy =            134.6969984719358138
    One-Electron Energy =                -477.9662107272948788
    Two-Electron Energy =                 205.4308609235123981
    DFT Exchange-Correlation Energy =     -20.6366006423655826
    Empirical Dispersion Energy =           0.0000000000000000
    VV10 Nonlocal Energy =                  0.0000000000000000
    Total Energy =                       -158.4749519742122743

Computation Completed


Properties will be evaluated at   0.000000,   0.000000,   0.000000 [a0]

Properties computed using the SCF density matrix

  Nuclear Dipole Moment: [e a0]
     X:     0.6004      Y:    -0.0000      Z:    -0.0024

  Electronic Dipole Moment: [e a0]
     X:    -0.6343      Y:     0.0000      Z:     0.0018

  Dipole Moment: [e a0]
     X:    -0.0340      Y:     0.0000      Z:    -0.0006     Total:     0.0340

  Dipole Moment: [D]
     X:    -0.0863      Y:     0.0000      Z:    -0.0015     Total:     0.0863


*** tstop() called on n091 at Fri Nov 12 17:13:47 2021
Module time:
	user time   =     115.46 seconds =       1.92 minutes
	system time =       1.81 seconds =       0.03 minutes
	total time  =         30 seconds =       0.50 minutes
Total time:
	user time   =     115.46 seconds =       1.92 minutes
	system time =       1.81 seconds =       0.03 minutes
	total time  =         30 seconds =       0.50 minutes
Grab this energy -158.47495197421227
    Psi4 stopped on: Friday, 12 November 2021 05:13PM
    Psi4 wall time for execution: 0:00:30.12

*** Psi4 exiting successfully. Buy a developer a beer!
