
    -----------------------------------------------------------------------
          Psi4: An Open-Source Ab Initio Electronic Structure Package
                               Psi4 1.4a2.dev629 

                         Git: Rev {master} 2938fc2 dirty


    D. G. A. Smith, L. A. Burns, A. C. Simmonett, R. M. Parrish,
    M. C. Schieber, R. Galvelis, P. Kraus, H. Kruse, R. Di Remigio,
    A. Alenaizan, A. M. James, S. Lehtola, J. P. Misiewicz, M. Scheurer,
    R. A. Shaw, J. B. Schriber, Y. Xie, Z. L. Glick, D. A. Sirianni,
    J. S. O'Brien, J. M. Waldrop, A. Kumar, E. G. Hohenstein,
    B. P. Pritchard, B. R. Brooks, H. F. Schaefer III, A. Yu. Sokolov,
    K. Patkowski, A. E. DePrince III, U. Bozkaya, R. A. King,
    F. A. Evangelista, J. M. Turney, T. D. Crawford, C. D. Sherrill,
    J. Chem. Phys. 152(18) 184108 (2020). https://doi.org/10.1063/5.0006002

                            Additional Code Authors
    E. T. Seidl, C. L. Janssen, E. F. Valeev, M. L. Leininger,
    J. F. Gonthier, R. M. Richard, H. R. McAlexander, M. Saitow, X. Wang,
    P. Verma, and M. H. Lechner

             Previous Authors, Complete List of Code Contributors,
                       and Citations for Specific Modules
    https://github.com/psi4/psi4/blob/master/codemeta.json
    https://github.com/psi4/psi4/graphs/contributors
    http://psicode.org/psi4manual/master/introduction.html#citing-psifour

    -----------------------------------------------------------------------


    Psi4 started on: Friday, 12 November 2021 05:31PM

    Process ID: 25389
    Host:       n066
    PSIDATADIR: /opt/psi/4/master/share/psi4
    Memory:     500.0 MiB
    Threads:    4
    
  ==> Input File <==

--------------------------------------------------------------------------
import os
memory 14 GB 
 
molecule {
 H   -2.7846737075   -0.0000003187    0.0010952390
 C   -0.7051950525   -0.0000001200   -0.0006990397
 C    0.2008296402   -1.3725357956   -2.3779559465
 C    0.2011305097    2.7457584516   -0.0006537619
 C    0.2014327209   -1.3732222214    2.3778373441
 H    2.2676535992   -1.4060302197   -2.4392217878
 H   -0.4681576136   -0.4323267912   -4.0919032619
 H   -0.4674699604   -3.3262950377   -2.4154210374
 H    2.2683591259    2.8197675468   -0.0039013303
 H   -0.4676407900    3.7509402078    1.6742477528
 H   -0.4690207254    3.7607297047   -1.6714527294
 H    2.2690614298   -1.4137320441    2.4447590859
 H   -0.4691954931   -3.3270125179    2.4170238799
 H   -0.4685032032   -0.4260408448    4.0862455930
units bohr
}

basis {

assign 6-31g_2dfp_

[ 6-31g_2dfp_ ]

spherical

!----------------------------------------------------------------------
! Basis Set Exchange
! Version v0.8.13
! https://www.basissetexchange.org
!----------------------------------------------------------------------
!   Basis set: 6-31G(2df,p)
! Description: 6-31G(2df,p)
!        Role: orbital
!     Version: 0  (Data from the original Basis Set Exchange)
!----------------------------------------------------------------------


****
H     0
S    3   1.00
     18.7311370              0.03349460
      2.8253937              0.23472695
      0.6401217              0.81375733
S    1   1.00
      0.1612778              1.00000000
P    1   1.00
      1.5000000              1.0000000
P    1   1.00
      0.3750000              1.0000000
****
B     0
S    6   1.00
   2068.8823000              0.0018663
    310.6495700              0.0142515
     70.6830330              0.0695516
     19.8610800              0.2325729
      6.2993048              0.4670787
      2.1270270              0.3634314
SP   3   1.00
      4.7279710             -0.1303938              0.0745976
      1.1903377             -0.1307889              0.3078467
      0.3594117              1.1309444              0.7434568
SP   1   1.00
      0.1267512              1.0000000              1.0000000
D    1   1.00
      0.8020000              1.0000000
D    1   1.00
      0.2005000              1.0000000
F    1   1.00
      0.5000000              1.0000000
****
C     0
S    6   1.00
   3047.5249000              0.0018347
    457.3695100              0.0140373
    103.9486900              0.0688426
     29.2101550              0.2321844
      9.2866630              0.4679413
      3.1639270              0.3623120
SP   3   1.00
      7.8682724             -0.1193324              0.0689991
      1.8812885             -0.1608542              0.3164240
      0.5442493              1.1434564              0.7443083
SP   1   1.00
      0.1687144              1.0000000              1.0000000
D    1   1.00
      1.2520000              1.0000000
D    1   1.00
      0.3130000              1.0000000
F    1   1.00
      0.8000000              1.0000000
****
N     0
S    6   1.00
   4173.5110000              0.0018348
    627.4579000              0.0139950
    142.9021000              0.0685870
     40.2343300              0.2322410
     12.8202100              0.4690700
      4.3904370              0.3604550
SP   3   1.00
     11.6263580             -0.1149610              0.0675800
      2.7162800             -0.1691180              0.3239070
      0.7722180              1.1458520              0.7408950
SP   1   1.00
      0.2120313              1.0000000              1.0000000
D    1   1.00
      1.8260000              1.0000000
D    1   1.00
      0.4565000              1.0000000
F    1   1.00
      1.0000000              1.0000000
****
O     0
S    6   1.00
   5484.6717000              0.0018311
    825.2349500              0.0139501
    188.0469600              0.0684451
     52.9645000              0.2327143
     16.8975700              0.4701930
      5.7996353              0.3585209
SP   3   1.00
     15.5396160             -0.1107775              0.0708743
      3.5999336             -0.1480263              0.3397528
      1.0137618              1.1307670              0.7271586
SP   1   1.00
      0.2700058              1.0000000              1.0000000
D    1   1.00
      2.5840000              1.0000000
D    1   1.00
      0.6460000              1.0000000
F    1   1.00
      1.4000000              1.0000000
****
F     0
S    6   1.00
   7001.7130900              0.0018196169
   1051.3660900              0.0139160796
    239.2856900              0.0684053245
     67.3974453              0.233185760
     21.5199573              0.471267439
      7.40310130             0.356618546
SP   3   1.00
     20.8479528             -0.108506975            0.0716287243
      4.80830834            -0.146451658            0.3459121030
      1.34406986             1.128688580            0.7224699570
SP   1   1.00
      0.358151393            1.0000000              1.0000000
D    1   1.00
      3.5000000              1.0000000
D    1   1.00
      0.8750000              1.0000000
F    1   1.00
      1.8500000              1.0000000
****
Al     0
S    6   1.00
  13983.1000000              0.00194267
   2098.7500000              0.0148599
    477.7050000              0.0728494
    134.3600000              0.2468300
     42.8709000              0.4872580
     14.5189000              0.3234960
SP   6   1.00
    239.6680000             -0.00292619             0.00460285
     57.4419000             -0.0374080              0.0331990
     18.2859000             -0.1144870              0.1362820
      6.5991400              0.1156350              0.3304760
      2.4904900              0.6125950              0.4491460
      0.9445400              0.3937990              0.2657040
SP   3   1.00
      1.2779000             -0.2276060             -0.0175130
      0.3975900              0.00144583             0.2445330
      0.1600950              1.0927900              0.8049340
SP   1   1.00
      0.0556577              1.0000000              1.0000000
D    1   1.00
      0.6500000              1.0000000
D    1   1.00
      0.1625000              1.0000000
F    1   1.00
      0.2500000              1.0000000
****
Si     0
S    6   1.00
  16115.9000000              0.00195948
   2425.5800000              0.01492880
    553.8670000              0.07284780
    156.3400000              0.24613000
     50.0683000              0.48591400
     17.0178000              0.32500200
SP   6   1.00
    292.7180000             -0.00278094             0.00443826
     69.8731000             -0.03571460             0.03266790
     22.3363000             -0.11498500             0.13472100
      8.1503900              0.09356340             0.32867800
      3.1345800              0.60301700             0.44964000
      1.2254300              0.41895900             0.26137200
SP   3   1.00
      1.7273800             -0.24463000            -0.01779510
      0.5729220              0.00431572             0.25353900
      0.2221920              1.09818000             0.80066900
SP   1   1.00
      0.0778369              1.00000000             1.00000000
D    1   1.00
      0.9000000              1.0000000
D    1   1.00
      0.2250000              1.0000000
F    1   1.00
      0.3200000              1.0000000
****
P     0
S    6   1.00
  19413.3000000              0.0018516
   2909.4200000              0.0142062
    661.3640000              0.0699995
    185.7590000              0.2400790
     59.1943000              0.4847620
     20.0310000              0.3352000
SP   6   1.00
    339.4780000             -0.00278217             0.00456462
     81.0101000             -0.0360499              0.03369360
     25.8780000             -0.1166310              0.13975500
      9.4522100              0.0968328              0.33936200
      3.6656600              0.6144180              0.45092100
      1.4674600              0.4037980              0.23858600
SP   3   1.00
      2.1562300             -0.2529230             -0.01776530
      0.7489970              0.0328517              0.27405800
      0.2831450              1.0812500              0.78542100
SP   1   1.00
      0.0998317              1.0000000              1.00000000
D    1   1.00
      1.1000000              1.0000000
D    1   1.00
      0.2750000              1.0000000
F    1   1.00
      0.4500000              1.0000000
****
S     0
S    6   1.00
  21917.1000000              0.0018690
   3301.4900000              0.0142300
    754.1460000              0.0696960
    212.7110000              0.2384870
     67.9896000              0.4833070
     23.0515000              0.3380740
SP   6   1.00
    423.7350000             -0.0023767              0.0040610
    100.7100000             -0.0316930              0.0306810
     32.1599000             -0.1133170              0.1304520
     11.8079000              0.0560900              0.3272050
      4.6311000              0.5922550              0.4528510
      1.8702500              0.4550060              0.2560420
SP   3   1.00
      2.6158400             -0.2503740             -0.0145110
      0.9221670              0.0669570              0.3102630
      0.3412870              1.0545100              0.7544830
SP   1   1.00
      0.1171670              1.0000000              1.0000000
D    1   1.00
      1.3000000              1.0000000
D    1   1.00
      0.3250000              1.0000000
F    1   1.00
      0.5500000              1.0000000
****
Cl     0
S    6   1.00
  25180.1000000              0.0018330
   3780.3500000              0.0140340
    860.4740000              0.0690970
    242.1450000              0.2374520
     77.3349000              0.4830340
     26.2470000              0.3398560
SP   6   1.00
    491.7650000             -0.0022974              0.0039894
    116.9840000             -0.0307140              0.0303180
     37.4153000             -0.1125280              0.1298800
     13.7834000              0.0450160              0.3279510
      5.4521500              0.5893530              0.4535270
      2.2258800              0.4652060              0.2521540
SP   3   1.00
      3.1864900             -0.2518300             -0.0142990
      1.1442700              0.0615890              0.3235720
      0.4203770              1.0601800              0.7435070
SP   1   1.00
      0.1426570              1.0000000              1.0000000
D    1   1.00
      1.5000000              1.0000000
D    1   1.00
      0.3750000              1.0000000
F    1   1.00
      0.7000000              1.0000000
****
}


set {
reference rhf                          
freeze_core true
e_convergence 10                       
d_convergence 10                      
dft_spherical_points 1202
dft_radial_points 99
}

e = energy('b3lyp')

print_out('Grab this energy {0}'.format(e))
--------------------------------------------------------------------------

  Memory set to  13.039 GiB by Python driver.

Scratch directory: /tmp/

*** tstart() called on n066
*** at Fri Nov 12 17:31:47 2021

   => Loading Basis Set <=

    Name: ANONYMOUSA2E3FEC8
    Role: ORBITAL
    Keyword: BASIS
    atoms 1, 6-14 entry H          line    15 inputblock 6-31g_2dfp_ 
    atoms 2-5     entry C          line    48 inputblock 6-31g_2dfp_ 


         ---------------------------------------------------------
                                   SCF
               by Justin Turney, Rob Parrish, Andy Simmonett
                          and Daniel G. A. Smith
                              RKS Reference
                        4 Threads,  13351 MiB Core
         ---------------------------------------------------------

  ==> Geometry <==

    Molecular point group: c1
    Full point group: C1

    Geometry (in Bohr), charge = 0, multiplicity = 1:

       Center              X                  Y                   Z               Mass       
    ------------   -----------------  -----------------  -----------------  -----------------
         H           -2.784643713473    -0.000000378239     0.001373724153     1.007825032230
         C           -0.705165058473    -0.000000179539    -0.000420554547    12.000000000000
         C            0.200859634227    -1.372535855139    -2.377677461347    12.000000000000
         C            0.201160503727     2.745758392061    -0.000375276747    12.000000000000
         C            0.201462714927    -1.373222280939     2.378115829253    12.000000000000
         H            2.267683593227    -1.406030279239    -2.438943302647     1.007825032230
         H           -0.468127619573    -0.432326850739    -4.091624776747     1.007825032230
         H           -0.467439966373    -3.326295097239    -2.415142552247     1.007825032230
         H            2.268389119927     2.819767487261    -0.003622845147     1.007825032230
         H           -0.467610795973     3.750940148261     1.674526237953     1.007825032230
         H           -0.468990731373     3.760729645161    -1.671174244247     1.007825032230
         H            2.269091423827    -1.413732103639     2.445037571053     1.007825032230
         H           -0.469165499073    -3.327012577439     2.417302365053     1.007825032230
         H           -0.468473209173    -0.426040904339     4.086524078153     1.007825032230

  Running in c1 symmetry.

  Rotational constants: A =      0.26072  B =      0.26058  C =      0.15138 [cm^-1]
  Rotational constants: A =   7816.21178  B =   7812.03149  C =   4538.25449 [MHz]
  Nuclear repulsion =  134.670605375698784

  Charge       = 0
  Multiplicity = 1
  Electrons    = 34
  Nalpha       = 17
  Nbeta        = 17

  ==> Algorithm <==

  SCF Algorithm Type is DF.
  DIIS enabled.
  MOM disabled.
  Fractional occupation disabled.
  Guess Type is SAD.
  Energy threshold   = 1.00e-10
  Density threshold  = 1.00e-10
  Integral threshold = 0.00e+00

  ==> Primary Basis <==

  Basis Set: ANONYMOUSA2E3FEC8
    Blend: 6-31G_2DFP_
    Number of shells: 72
    Number of basis function: 184
    Number of Cartesian functions: 204
    Spherical Harmonics?: true
    Max angular momentum: 3

  ==> DFT Potential <==

   => Composite Functional: B3LYP <= 

    B3LYP Hyb-GGA Exchange-Correlation Functional

    P. J. Stephens, F. J. Devlin, C. F. Chabalowski, and M. J. Frisch, J. Phys. Chem. 98, 11623 (1994)

    Deriv               =              1
    GGA                 =           TRUE
    Meta                =          FALSE

    Exchange Hybrid     =           TRUE
    MP2 Hybrid          =          FALSE

   => Exchange Functionals <=

    0.0800   Slater exchange
    0.7200         Becke 88

   => Exact (HF) Exchange <=

    0.2000               HF 

   => Correlation Functionals <=

    0.1900   Vosko, Wilk & Nusair (VWN5_RPA)
    0.8100   Lee, Yang & Parr

   => Molecular Quadrature <=

    Radial Scheme          =       TREUTLER
    Pruning Scheme         =           NONE
    Nuclear Scheme         =       TREUTLER

    BS radius alpha        =              1
    Pruning alpha          =              1
    Radial Points          =             99
    Spherical Points       =           1202
    Total Points           =        1546628
    Total Blocks           =          10367
    Max Points             =            256
    Max Functions          =            184
    Weights Tolerance      =       1.00E-15

   => Loading Basis Set <=

    Name: (ANONYMOUSA2E3FEC8 AUX)
    Role: JKFIT
    Keyword: DF_BASIS_SCF
    atoms 1, 6-14 entry H          line    18 file /opt/psi/4/master/share/psi4/basis/def2-universal-jkfit.gbs 
    atoms 2-5     entry C          line   198 file /opt/psi/4/master/share/psi4/basis/def2-universal-jkfit.gbs 

  ==> Integral Setup <==

  DFHelper Memory: AOs need 0.129 GiB; user supplied 3.159 GiB. Using in-core AOs.

  ==> MemDFJK: Density-Fitted J/K Matrices <==

    J tasked:                   Yes
    K tasked:                   Yes
    wK tasked:                   No
    OpenMP threads:               4
    Memory [MiB]:              3234
    Algorithm:                 Core
    Schwarz Cutoff:           1E-12
    Mask sparsity (%):       1.1697
    Fitting Condition:        1E-10

   => Auxiliary Basis Set <=

  Basis Set: (ANONYMOUSA2E3FEC8 AUX)
    Blend: DEF2-UNIVERSAL-JKFIT
    Number of shells: 160
    Number of basis function: 480
    Number of Cartesian functions: 556
    Spherical Harmonics?: true
    Max angular momentum: 4

  Cached 100.0% of DFT collocation blocks in 6.620 [GiB].

  Minimum eigenvalue in the overlap matrix is 1.3320700562E-03.
  Reciprocal condition number of the overlap matrix is 2.1043357598E-04.
    Using symmetric orthogonalization.

  ==> Pre-Iterations <==

  SCF Guess: Superposition of Atomic Densities via on-the-fly atomic UHF (no occupation information).

   -------------------------
    Irrep   Nso     Nmo    
   -------------------------
     A        184     184 
   -------------------------
    Total     184     184
   -------------------------

  ==> Iterations <==

                           Total Energy        Delta E     RMS |[F,P]|

   @DF-RKS iter SAD:  -157.73808251354239   -1.57738e+02   0.00000e+00 
   @DF-RKS iter   1:  -158.05179587090493   -3.13713e-01   4.78761e-03 DIIS
   @DF-RKS iter   2:  -157.82357494513781    2.28221e-01   5.82166e-03 DIIS
   @DF-RKS iter   3:  -158.47124311010927   -6.47668e-01   4.70561e-04 DIIS
   @DF-RKS iter   4:  -158.47413277751085   -2.88967e-03   2.27847e-04 DIIS
   @DF-RKS iter   5:  -158.47494810968550   -8.15332e-04   3.51659e-05 DIIS
   @DF-RKS iter   6:  -158.47496749177969   -1.93821e-05   7.04317e-06 DIIS
   @DF-RKS iter   7:  -158.47496845249543   -9.60716e-07   1.32846e-06 DIIS
   @DF-RKS iter   8:  -158.47496848863017   -3.61347e-08   5.11741e-08 DIIS
   @DF-RKS iter   9:  -158.47496848868062   -5.04485e-11   1.02654e-08 DIIS
   @DF-RKS iter  10:  -158.47496848868172   -1.10845e-12   7.04722e-09 DIIS
   @DF-RKS iter  11:  -158.47496848868272   -9.94760e-13   8.64801e-10 DIIS
   @DF-RKS iter  12:  -158.47496848868221    5.11591e-13   3.00826e-11 DIIS
  Energy and wave function converged.


  ==> Post-Iterations <==

    Orbital Energies [Eh]
    ---------------------

    Doubly Occupied:                                                      

       1A    -10.178594     2A    -10.162552     3A    -10.162469  
       4A    -10.162382     5A     -0.798687     6A     -0.677716  
       7A     -0.677660     8A     -0.555120     9A     -0.459344  
      10A     -0.426783    11A     -0.426489    12A     -0.378977  
      13A     -0.378903    14A     -0.359079    15A     -0.322998  
      16A     -0.322986    17A     -0.318925  

    Virtual:                                                              

      18A      0.073446    19A      0.121725    20A      0.137030  
      21A      0.137066    22A      0.148317    23A      0.148499  
      24A      0.160915    25A      0.187990    26A      0.188117  
      27A      0.213789    28A      0.216221    29A      0.242010  
      30A      0.242277    31A      0.392922    32A      0.393049  
      33A      0.395853    34A      0.422042    35A      0.422108  
      36A      0.445651    37A      0.485045    38A      0.485217  
      39A      0.534219    40A      0.564887    41A      0.565221  
      42A      0.568068    43A      0.589138    44A      0.589202  
      45A      0.614553    46A      0.615797    47A      0.616207  
      48A      0.628201    49A      0.630888    50A      0.654897  
      51A      0.654991    52A      0.674290    53A      0.674298  
      54A      0.675489    55A      0.795771    56A      0.795797  
      57A      0.863664    58A      0.897331    59A      0.897393  
      60A      0.944939    61A      0.954670    62A      0.999354  
      63A      1.000565    64A      1.056034    65A      1.056336  
      66A      1.056696    67A      1.070812    68A      1.134702  
      69A      1.169617    70A      1.169820    71A      1.214468  
      72A      1.215159    73A      1.270367    74A      1.298596  
      75A      1.298934    76A      1.316574    77A      1.316938  
      78A      1.328768    79A      1.377848    80A      1.378186  
      81A      1.399074    82A      1.414662    83A      1.415161  
      84A      1.425736    85A      1.474361    86A      1.497217  
      87A      1.503162    88A      1.503746    89A      1.538004  
      90A      1.582047    91A      1.582052    92A      1.672741  
      93A      1.672916    94A      1.680541    95A      1.705347  
      96A      1.705809    97A      1.784820    98A      1.796168  
      99A      1.835463   100A      1.836144   101A      2.010014  
     102A      2.010441   103A      2.027819   104A      2.075439  
     105A      2.075706   106A      2.289594   107A      2.724210  
     108A      2.724624   109A      2.825535   110A      2.826166  
     111A      2.870002   112A      2.870300   113A      2.931661  
     114A      2.932202   115A      2.947206   116A      2.947638  
     117A      2.948181   118A      2.974423   119A      3.003559  
     120A      3.004015   121A      3.137995   122A      3.163981  
     123A      3.167416   124A      3.167465   125A      3.250650  
     126A      3.385778   127A      3.385927   128A      3.424100  
     129A      3.460409   130A      3.470194   131A      3.470426  
     132A      3.512035   133A      3.512907   134A      3.563335  
     135A      3.563500   136A      3.597102   137A      3.613920  
     138A      3.620829   139A      3.621274   140A      3.680386  
     141A      3.681282   142A      3.721230   143A      3.721696  
     144A      3.723461   145A      3.889295   146A      3.896928  
     147A      3.896964   148A      4.045362   149A      4.108754  
     150A      4.109673   151A      4.129418   152A      4.148019  
     153A      4.148586   154A      4.171551   155A      4.193280  
     156A      4.216323   157A      4.217390   158A      4.263030  
     159A      4.263295   160A      4.378328   161A      4.378523  
     162A      4.383172   163A      4.481503   164A      4.514742  
     165A      4.515203   166A      4.533622   167A      4.569302  
     168A      4.569381   169A      4.607865   170A      4.659716  
     171A      4.660978   172A      4.734917   173A      4.736426  
     174A      4.755616   175A      4.980633   176A      5.005234  
     177A      5.005655   178A      5.172564   179A      5.255768  
     180A      5.256225   181A      5.328175   182A      5.366419  
     183A      5.366526   184A      5.390037  

    Final Occupation by Irrep:
              A 
    DOCC [    17 ]

  @DF-RKS Final Energy:  -158.47496848868221

   => Energetics <=

    Nuclear Repulsion Energy =            134.6706053756987842
    One-Electron Energy =                -477.9151115377443944
    Two-Electron Energy =                 205.4045863600250073
    DFT Exchange-Correlation Energy =     -20.6350486866616336
    Empirical Dispersion Energy =           0.0000000000000000
    VV10 Nonlocal Energy =                  0.0000000000000000
    Total Energy =                       -158.4749684886822081

Computation Completed


Properties will be evaluated at   0.000000,   0.000000,   0.000000 [a0]

Properties computed using the SCF density matrix

  Nuclear Dipole Moment: [e a0]
     X:     0.6006      Y:    -0.0000      Z:     0.0021

  Electronic Dipole Moment: [e a0]
     X:    -0.6339      Y:    -0.0000      Z:    -0.0016

  Dipole Moment: [e a0]
     X:    -0.0333      Y:    -0.0000      Z:     0.0005     Total:     0.0333

  Dipole Moment: [D]
     X:    -0.0846      Y:    -0.0000      Z:     0.0013     Total:     0.0846


*** tstop() called on n066 at Fri Nov 12 17:32:20 2021
Module time:
	user time   =     123.89 seconds =       2.06 minutes
	system time =       2.00 seconds =       0.03 minutes
	total time  =         33 seconds =       0.55 minutes
Total time:
	user time   =     123.89 seconds =       2.06 minutes
	system time =       2.00 seconds =       0.03 minutes
	total time  =         33 seconds =       0.55 minutes
Grab this energy -158.4749684886822
    Psi4 stopped on: Friday, 12 November 2021 05:32PM
    Psi4 wall time for execution: 0:00:32.36

*** Psi4 exiting successfully. Buy a developer a beer!
