
    -----------------------------------------------------------------------
          Psi4: An Open-Source Ab Initio Electronic Structure Package
                               Psi4 1.4a2.dev629 

                         Git: Rev {master} 2938fc2 dirty


    D. G. A. Smith, L. A. Burns, A. C. Simmonett, R. M. Parrish,
    M. C. Schieber, R. Galvelis, P. Kraus, H. Kruse, R. Di Remigio,
    A. Alenaizan, A. M. James, S. Lehtola, J. P. Misiewicz, M. Scheurer,
    R. A. Shaw, J. B. Schriber, Y. Xie, Z. L. Glick, D. A. Sirianni,
    J. S. O'Brien, J. M. Waldrop, A. Kumar, E. G. Hohenstein,
    B. P. Pritchard, B. R. Brooks, H. F. Schaefer III, A. Yu. Sokolov,
    K. Patkowski, A. E. DePrince III, U. Bozkaya, R. A. King,
    F. A. Evangelista, J. M. Turney, T. D. Crawford, C. D. Sherrill,
    J. Chem. Phys. 152(18) 184108 (2020). https://doi.org/10.1063/5.0006002

                            Additional Code Authors
    E. T. Seidl, C. L. Janssen, E. F. Valeev, M. L. Leininger,
    J. F. Gonthier, R. M. Richard, H. R. McAlexander, M. Saitow, X. Wang,
    P. Verma, and M. H. Lechner

             Previous Authors, Complete List of Code Contributors,
                       and Citations for Specific Modules
    https://github.com/psi4/psi4/blob/master/codemeta.json
    https://github.com/psi4/psi4/graphs/contributors
    http://psicode.org/psi4manual/master/introduction.html#citing-psifour

    -----------------------------------------------------------------------


    Psi4 started on: Friday, 12 November 2021 05:39PM

    Process ID: 6435
    Host:       n083
    PSIDATADIR: /opt/psi/4/master/share/psi4
    Memory:     500.0 MiB
    Threads:    4
    
  ==> Input File <==

--------------------------------------------------------------------------
import os
memory 14 GB 
 
molecule {
 H   -2.7757836820   -0.0010900429    0.0068236879
 C   -0.7045477992    0.0006971486    0.0033659915
 C    0.2028232751   -1.3740238994   -2.3796619708
 C    0.2006194443    2.7456448536    0.0013527234
 C    0.1994590094   -1.3708516414    2.3768678995
 H    2.2696496326   -1.4074997321   -2.4465684716
 H   -0.4692527242   -0.4336954715   -4.0935390242
 H   -0.4645391614   -3.3293689589   -2.4146814602
 H    2.2653585120    2.8134027760   -0.0019427759
 H   -0.4646323320    3.7611009448    1.6748363776
 H   -0.4716662294    3.7563372723   -1.6700881712
 H    2.2635228907   -1.4075401013    2.4427304763
 H   -0.4723588506   -3.3230975733    2.4088190922
 H   -0.4700415054   -0.4300155746    4.0916856255
units bohr
}

basis {

assign 6-31g_2dfp_

[ 6-31g_2dfp_ ]

spherical

!----------------------------------------------------------------------
! Basis Set Exchange
! Version v0.8.13
! https://www.basissetexchange.org
!----------------------------------------------------------------------
!   Basis set: 6-31G(2df,p)
! Description: 6-31G(2df,p)
!        Role: orbital
!     Version: 0  (Data from the original Basis Set Exchange)
!----------------------------------------------------------------------


****
H     0
S    3   1.00
     18.7311370              0.03349460
      2.8253937              0.23472695
      0.6401217              0.81375733
S    1   1.00
      0.1612778              1.00000000
P    1   1.00
      1.5000000              1.0000000
P    1   1.00
      0.3750000              1.0000000
****
B     0
S    6   1.00
   2068.8823000              0.0018663
    310.6495700              0.0142515
     70.6830330              0.0695516
     19.8610800              0.2325729
      6.2993048              0.4670787
      2.1270270              0.3634314
SP   3   1.00
      4.7279710             -0.1303938              0.0745976
      1.1903377             -0.1307889              0.3078467
      0.3594117              1.1309444              0.7434568
SP   1   1.00
      0.1267512              1.0000000              1.0000000
D    1   1.00
      0.8020000              1.0000000
D    1   1.00
      0.2005000              1.0000000
F    1   1.00
      0.5000000              1.0000000
****
C     0
S    6   1.00
   3047.5249000              0.0018347
    457.3695100              0.0140373
    103.9486900              0.0688426
     29.2101550              0.2321844
      9.2866630              0.4679413
      3.1639270              0.3623120
SP   3   1.00
      7.8682724             -0.1193324              0.0689991
      1.8812885             -0.1608542              0.3164240
      0.5442493              1.1434564              0.7443083
SP   1   1.00
      0.1687144              1.0000000              1.0000000
D    1   1.00
      1.2520000              1.0000000
D    1   1.00
      0.3130000              1.0000000
F    1   1.00
      0.8000000              1.0000000
****
N     0
S    6   1.00
   4173.5110000              0.0018348
    627.4579000              0.0139950
    142.9021000              0.0685870
     40.2343300              0.2322410
     12.8202100              0.4690700
      4.3904370              0.3604550
SP   3   1.00
     11.6263580             -0.1149610              0.0675800
      2.7162800             -0.1691180              0.3239070
      0.7722180              1.1458520              0.7408950
SP   1   1.00
      0.2120313              1.0000000              1.0000000
D    1   1.00
      1.8260000              1.0000000
D    1   1.00
      0.4565000              1.0000000
F    1   1.00
      1.0000000              1.0000000
****
O     0
S    6   1.00
   5484.6717000              0.0018311
    825.2349500              0.0139501
    188.0469600              0.0684451
     52.9645000              0.2327143
     16.8975700              0.4701930
      5.7996353              0.3585209
SP   3   1.00
     15.5396160             -0.1107775              0.0708743
      3.5999336             -0.1480263              0.3397528
      1.0137618              1.1307670              0.7271586
SP   1   1.00
      0.2700058              1.0000000              1.0000000
D    1   1.00
      2.5840000              1.0000000
D    1   1.00
      0.6460000              1.0000000
F    1   1.00
      1.4000000              1.0000000
****
F     0
S    6   1.00
   7001.7130900              0.0018196169
   1051.3660900              0.0139160796
    239.2856900              0.0684053245
     67.3974453              0.233185760
     21.5199573              0.471267439
      7.40310130             0.356618546
SP   3   1.00
     20.8479528             -0.108506975            0.0716287243
      4.80830834            -0.146451658            0.3459121030
      1.34406986             1.128688580            0.7224699570
SP   1   1.00
      0.358151393            1.0000000              1.0000000
D    1   1.00
      3.5000000              1.0000000
D    1   1.00
      0.8750000              1.0000000
F    1   1.00
      1.8500000              1.0000000
****
Al     0
S    6   1.00
  13983.1000000              0.00194267
   2098.7500000              0.0148599
    477.7050000              0.0728494
    134.3600000              0.2468300
     42.8709000              0.4872580
     14.5189000              0.3234960
SP   6   1.00
    239.6680000             -0.00292619             0.00460285
     57.4419000             -0.0374080              0.0331990
     18.2859000             -0.1144870              0.1362820
      6.5991400              0.1156350              0.3304760
      2.4904900              0.6125950              0.4491460
      0.9445400              0.3937990              0.2657040
SP   3   1.00
      1.2779000             -0.2276060             -0.0175130
      0.3975900              0.00144583             0.2445330
      0.1600950              1.0927900              0.8049340
SP   1   1.00
      0.0556577              1.0000000              1.0000000
D    1   1.00
      0.6500000              1.0000000
D    1   1.00
      0.1625000              1.0000000
F    1   1.00
      0.2500000              1.0000000
****
Si     0
S    6   1.00
  16115.9000000              0.00195948
   2425.5800000              0.01492880
    553.8670000              0.07284780
    156.3400000              0.24613000
     50.0683000              0.48591400
     17.0178000              0.32500200
SP   6   1.00
    292.7180000             -0.00278094             0.00443826
     69.8731000             -0.03571460             0.03266790
     22.3363000             -0.11498500             0.13472100
      8.1503900              0.09356340             0.32867800
      3.1345800              0.60301700             0.44964000
      1.2254300              0.41895900             0.26137200
SP   3   1.00
      1.7273800             -0.24463000            -0.01779510
      0.5729220              0.00431572             0.25353900
      0.2221920              1.09818000             0.80066900
SP   1   1.00
      0.0778369              1.00000000             1.00000000
D    1   1.00
      0.9000000              1.0000000
D    1   1.00
      0.2250000              1.0000000
F    1   1.00
      0.3200000              1.0000000
****
P     0
S    6   1.00
  19413.3000000              0.0018516
   2909.4200000              0.0142062
    661.3640000              0.0699995
    185.7590000              0.2400790
     59.1943000              0.4847620
     20.0310000              0.3352000
SP   6   1.00
    339.4780000             -0.00278217             0.00456462
     81.0101000             -0.0360499              0.03369360
     25.8780000             -0.1166310              0.13975500
      9.4522100              0.0968328              0.33936200
      3.6656600              0.6144180              0.45092100
      1.4674600              0.4037980              0.23858600
SP   3   1.00
      2.1562300             -0.2529230             -0.01776530
      0.7489970              0.0328517              0.27405800
      0.2831450              1.0812500              0.78542100
SP   1   1.00
      0.0998317              1.0000000              1.00000000
D    1   1.00
      1.1000000              1.0000000
D    1   1.00
      0.2750000              1.0000000
F    1   1.00
      0.4500000              1.0000000
****
S     0
S    6   1.00
  21917.1000000              0.0018690
   3301.4900000              0.0142300
    754.1460000              0.0696960
    212.7110000              0.2384870
     67.9896000              0.4833070
     23.0515000              0.3380740
SP   6   1.00
    423.7350000             -0.0023767              0.0040610
    100.7100000             -0.0316930              0.0306810
     32.1599000             -0.1133170              0.1304520
     11.8079000              0.0560900              0.3272050
      4.6311000              0.5922550              0.4528510
      1.8702500              0.4550060              0.2560420
SP   3   1.00
      2.6158400             -0.2503740             -0.0145110
      0.9221670              0.0669570              0.3102630
      0.3412870              1.0545100              0.7544830
SP   1   1.00
      0.1171670              1.0000000              1.0000000
D    1   1.00
      1.3000000              1.0000000
D    1   1.00
      0.3250000              1.0000000
F    1   1.00
      0.5500000              1.0000000
****
Cl     0
S    6   1.00
  25180.1000000              0.0018330
   3780.3500000              0.0140340
    860.4740000              0.0690970
    242.1450000              0.2374520
     77.3349000              0.4830340
     26.2470000              0.3398560
SP   6   1.00
    491.7650000             -0.0022974              0.0039894
    116.9840000             -0.0307140              0.0303180
     37.4153000             -0.1125280              0.1298800
     13.7834000              0.0450160              0.3279510
      5.4521500              0.5893530              0.4535270
      2.2258800              0.4652060              0.2521540
SP   3   1.00
      3.1864900             -0.2518300             -0.0142990
      1.1442700              0.0615890              0.3235720
      0.4203770              1.0601800              0.7435070
SP   1   1.00
      0.1426570              1.0000000              1.0000000
D    1   1.00
      1.5000000              1.0000000
D    1   1.00
      0.3750000              1.0000000
F    1   1.00
      0.7000000              1.0000000
****
}


set {
reference rhf                          
freeze_core true
e_convergence 10                       
d_convergence 10                      
dft_spherical_points 1202
dft_radial_points 99
}

e = energy('b3lyp')

print_out('Grab this energy {0}'.format(e))
--------------------------------------------------------------------------

  Memory set to  13.039 GiB by Python driver.

Scratch directory: /tmp/

*** tstart() called on n083
*** at Fri Nov 12 17:39:32 2021

   => Loading Basis Set <=

    Name: ANONYMOUSBA8A84B3
    Role: ORBITAL
    Keyword: BASIS
    atoms 1, 6-14 entry H          line    15 inputblock 6-31g_2dfp_ 
    atoms 2-5     entry C          line    48 inputblock 6-31g_2dfp_ 


         ---------------------------------------------------------
                                   SCF
               by Justin Turney, Rob Parrish, Andy Simmonett
                          and Daniel G. A. Smith
                              RKS Reference
                        4 Threads,  13351 MiB Core
         ---------------------------------------------------------

  ==> Geometry <==

    Molecular point group: c1
    Full point group: C1

    Geometry (in Bohr), charge = 0, multiplicity = 1:

       Center              X                  Y                   Z               Mass       
    ------------   -----------------  -----------------  -----------------  -----------------
         H           -2.775783234363    -0.001367592587     0.006459420397     1.007825032230
         C           -0.704547351563     0.000419598913     0.003001723997    12.000000000000
         C            0.202823722737    -1.374301449087    -2.380026238303    12.000000000000
         C            0.200619891937     2.745367303913     0.000988455897    12.000000000000
         C            0.199459457037    -1.371129191087     2.376503631997    12.000000000000
         H            2.269650080237    -1.407777281787    -2.446932739103     1.007825032230
         H           -0.469252276563    -0.433973021187    -4.093903291703     1.007825032230
         H           -0.464538713763    -3.329646508587    -2.415045727703     1.007825032230
         H            2.265358959637     2.813125226313    -0.002307043403     1.007825032230
         H           -0.464631884363     3.760823395113     1.674472110097     1.007825032230
         H           -0.471665781763     3.756059722613    -1.670452438703     1.007825032230
         H            2.263523338337    -1.407817650987     2.442366208797     1.007825032230
         H           -0.472358402963    -3.323375122987     2.408454824697     1.007825032230
         H           -0.470041057763    -0.430293124287     4.091321357997     1.007825032230

  Running in c1 symmetry.

  Rotational constants: A =      0.26103  B =      0.26043  C =      0.15137 [cm^-1]
  Rotational constants: A =   7825.54903  B =   7807.58817  C =   4537.82716 [MHz]
  Nuclear repulsion =  134.696945342560269

  Charge       = 0
  Multiplicity = 1
  Electrons    = 34
  Nalpha       = 17
  Nbeta        = 17

  ==> Algorithm <==

  SCF Algorithm Type is DF.
  DIIS enabled.
  MOM disabled.
  Fractional occupation disabled.
  Guess Type is SAD.
  Energy threshold   = 1.00e-10
  Density threshold  = 1.00e-10
  Integral threshold = 0.00e+00

  ==> Primary Basis <==

  Basis Set: ANONYMOUSBA8A84B3
    Blend: 6-31G_2DFP_
    Number of shells: 72
    Number of basis function: 184
    Number of Cartesian functions: 204
    Spherical Harmonics?: true
    Max angular momentum: 3

  ==> DFT Potential <==

   => Composite Functional: B3LYP <= 

    B3LYP Hyb-GGA Exchange-Correlation Functional

    P. J. Stephens, F. J. Devlin, C. F. Chabalowski, and M. J. Frisch, J. Phys. Chem. 98, 11623 (1994)

    Deriv               =              1
    GGA                 =           TRUE
    Meta                =          FALSE

    Exchange Hybrid     =           TRUE
    MP2 Hybrid          =          FALSE

   => Exchange Functionals <=

    0.0800   Slater exchange
    0.7200         Becke 88

   => Exact (HF) Exchange <=

    0.2000               HF 

   => Correlation Functionals <=

    0.1900   Vosko, Wilk & Nusair (VWN5_RPA)
    0.8100   Lee, Yang & Parr

   => Molecular Quadrature <=

    Radial Scheme          =       TREUTLER
    Pruning Scheme         =           NONE
    Nuclear Scheme         =       TREUTLER

    BS radius alpha        =              1
    Pruning alpha          =              1
    Radial Points          =             99
    Spherical Points       =           1202
    Total Points           =        1546525
    Total Blocks           =          10398
    Max Points             =            256
    Max Functions          =            184
    Weights Tolerance      =       1.00E-15

   => Loading Basis Set <=

    Name: (ANONYMOUSBA8A84B3 AUX)
    Role: JKFIT
    Keyword: DF_BASIS_SCF
    atoms 1, 6-14 entry H          line    18 file /opt/psi/4/master/share/psi4/basis/def2-universal-jkfit.gbs 
    atoms 2-5     entry C          line   198 file /opt/psi/4/master/share/psi4/basis/def2-universal-jkfit.gbs 

  ==> Integral Setup <==

  DFHelper Memory: AOs need 0.129 GiB; user supplied 3.157 GiB. Using in-core AOs.

  ==> MemDFJK: Density-Fitted J/K Matrices <==

    J tasked:                   Yes
    K tasked:                   Yes
    wK tasked:                   No
    OpenMP threads:               4
    Memory [MiB]:              3232
    Algorithm:                 Core
    Schwarz Cutoff:           1E-12
    Mask sparsity (%):       1.1697
    Fitting Condition:        1E-10

   => Auxiliary Basis Set <=

  Basis Set: (ANONYMOUSBA8A84B3 AUX)
    Blend: DEF2-UNIVERSAL-JKFIT
    Number of shells: 160
    Number of basis function: 480
    Number of Cartesian functions: 556
    Spherical Harmonics?: true
    Max angular momentum: 4

  Cached 100.0% of DFT collocation blocks in 6.622 [GiB].

  Minimum eigenvalue in the overlap matrix is 1.3313662373E-03.
  Reciprocal condition number of the overlap matrix is 2.1018969623E-04.
    Using symmetric orthogonalization.

  ==> Pre-Iterations <==

  SCF Guess: Superposition of Atomic Densities via on-the-fly atomic UHF (no occupation information).

   -------------------------
    Irrep   Nso     Nmo    
   -------------------------
     A        184     184 
   -------------------------
    Total     184     184
   -------------------------

  ==> Iterations <==

                           Total Energy        Delta E     RMS |[F,P]|

   @DF-RKS iter SAD:  -157.74017975812924   -1.57740e+02   0.00000e+00 
   @DF-RKS iter   1:  -158.05179178489811   -3.11612e-01   4.78763e-03 DIIS
   @DF-RKS iter   2:  -157.82409497519953    2.27697e-01   5.81983e-03 DIIS
   @DF-RKS iter   3:  -158.47125573246024   -6.47161e-01   4.68917e-04 DIIS
   @DF-RKS iter   4:  -158.47412291219067   -2.86718e-03   2.27291e-04 DIIS
   @DF-RKS iter   5:  -158.47493399114103   -8.11079e-04   3.51514e-05 DIIS
   @DF-RKS iter   6:  -158.47495334165561   -1.93505e-05   7.03312e-06 DIIS
   @DF-RKS iter   7:  -158.47495429841200   -9.56756e-07   1.33405e-06 DIIS
   @DF-RKS iter   8:  -158.47495433461495   -3.62029e-08   9.77781e-08 DIIS
   @DF-RKS iter   9:  -158.47495433467091   -5.59623e-11   8.19194e-08 DIIS
   @DF-RKS iter  10:  -158.47495433478488   -1.13971e-10   4.33188e-09 DIIS
   @DF-RKS iter  11:  -158.47495433478534   -4.54747e-13   5.87374e-10 DIIS
   @DF-RKS iter  12:  -158.47495433478534    0.00000e+00   5.08645e-11 DIIS
  Energy and wave function converged.


  ==> Post-Iterations <==

    Orbital Energies [Eh]
    ---------------------

    Doubly Occupied:                                                      

       1A    -10.178079     2A    -10.162747     3A    -10.162323  
       4A    -10.162172     5A     -0.798841     6A     -0.677859  
       7A     -0.677514     8A     -0.555581     9A     -0.459543  
      10A     -0.426715    11A     -0.426330    12A     -0.379184  
      13A     -0.378983    14A     -0.358916    15A     -0.323283  
      16A     -0.322723    17A     -0.319155  

    Virtual:                                                              

      18A      0.073479    19A      0.122286    20A      0.137057  
      21A      0.137190    22A      0.148192    23A      0.148398  
      24A      0.161224    25A      0.188132    26A      0.188312  
      27A      0.213644    28A      0.216273    29A      0.241656  
      30A      0.242799    31A      0.392887    32A      0.393019  
      33A      0.396151    34A      0.422131    35A      0.422198  
      36A      0.445829    37A      0.484988    38A      0.485320  
      39A      0.534311    40A      0.564624    41A      0.565769  
      42A      0.568335    43A      0.589027    44A      0.589371  
      45A      0.615526    46A      0.616249    47A      0.616541  
      48A      0.628026    49A      0.631119    50A      0.654871  
      51A      0.654965    52A      0.674301    53A      0.674429  
      54A      0.676156    55A      0.795731    56A      0.796218  
      57A      0.863703    58A      0.897748    59A      0.897911  
      60A      0.945312    61A      0.954633    62A      0.999242  
      63A      1.000532    64A      1.055370    65A      1.055803  
      66A      1.057836    67A      1.070810    68A      1.135086  
      69A      1.169726    70A      1.171037    71A      1.214686  
      72A      1.216006    73A      1.270520    74A      1.298337  
      75A      1.298978    76A      1.316743    77A      1.317403  
      78A      1.329271    79A      1.377532    80A      1.378115  
      81A      1.398985    82A      1.414553    83A      1.415706  
      84A      1.425504    85A      1.475520    86A      1.497277  
      87A      1.503342    88A      1.504242    89A      1.538455  
      90A      1.582877    91A      1.583251    92A      1.672398  
      93A      1.672582    94A      1.682173    95A      1.705432  
      96A      1.706723    97A      1.786891    98A      1.796971  
      99A      1.834835   100A      1.836725   101A      2.010085  
     102A      2.010689   103A      2.027518   104A      2.074725  
     105A      2.076623   106A      2.293033   107A      2.724317  
     108A      2.724756   109A      2.825823   110A      2.827105  
     111A      2.869780   112A      2.871669   113A      2.931455  
     114A      2.932032   115A      2.946876   116A      2.947742  
     117A      2.948068   118A      2.974487   119A      3.004717  
     120A      3.005211   121A      3.137841   122A      3.163740  
     123A      3.167469   124A      3.167847   125A      3.251683  
     126A      3.384831   127A      3.385864   128A      3.425140  
     129A      3.460314   130A      3.470648   131A      3.471047  
     132A      3.512293   133A      3.513389   134A      3.563356  
     135A      3.563568   136A      3.597485   137A      3.613503  
     138A      3.620663   139A      3.621701   140A      3.679553  
     141A      3.682325   142A      3.719068   143A      3.721562  
     144A      3.723261   145A      3.891188   146A      3.896908  
     147A      3.898810   148A      4.045973   149A      4.108262  
     150A      4.110168   151A      4.130930   152A      4.146855  
     153A      4.149624   154A      4.171640   155A      4.193610  
     156A      4.216629   157A      4.218137   158A      4.263553  
     159A      4.264059   160A      4.378166   161A      4.378596  
     162A      4.382512   163A      4.481482   164A      4.516784  
     165A      4.517689   166A      4.533185   167A      4.569075  
     168A      4.571591   169A      4.611457   170A      4.662189  
     171A      4.665376   172A      4.734878   173A      4.736647  
     174A      4.756098   175A      4.981222   176A      5.005334  
     177A      5.006310   178A      5.176292   179A      5.254937  
     180A      5.255788   181A      5.333311   182A      5.366534  
     183A      5.369167   184A      5.389887  

    Final Occupation by Irrep:
              A 
    DOCC [    17 ]

  @DF-RKS Final Energy:  -158.47495433478534

   => Energetics <=

    Nuclear Repulsion Energy =            134.6969453425602694
    One-Electron Energy =                -477.9661150862152681
    Two-Electron Energy =                 205.4308164939476455
    DFT Exchange-Correlation Energy =     -20.6366010850780128
    Empirical Dispersion Energy =           0.0000000000000000
    VV10 Nonlocal Energy =                  0.0000000000000000
    Total Energy =                       -158.4749543347853376

Computation Completed


Properties will be evaluated at   0.000000,   0.000000,   0.000000 [a0]

Properties computed using the SCF density matrix

  Nuclear Dipole Moment: [e a0]
     X:     0.6004      Y:    -0.0021      Z:    -0.0028

  Electronic Dipole Moment: [e a0]
     X:    -0.6343      Y:     0.0016      Z:     0.0028

  Dipole Moment: [e a0]
     X:    -0.0340      Y:    -0.0005      Z:     0.0000     Total:     0.0340

  Dipole Moment: [D]
     X:    -0.0863      Y:    -0.0013      Z:     0.0001     Total:     0.0863


*** tstop() called on n083 at Fri Nov 12 17:40:02 2021
Module time:
	user time   =     115.83 seconds =       1.93 minutes
	system time =       1.84 seconds =       0.03 minutes
	total time  =         30 seconds =       0.50 minutes
Total time:
	user time   =     115.83 seconds =       1.93 minutes
	system time =       1.84 seconds =       0.03 minutes
	total time  =         30 seconds =       0.50 minutes
Grab this energy -158.47495433478534
    Psi4 stopped on: Friday, 12 November 2021 05:40PM
    Psi4 wall time for execution: 0:00:30.22

*** Psi4 exiting successfully. Buy a developer a beer!
