
    -----------------------------------------------------------------------
          Psi4: An Open-Source Ab Initio Electronic Structure Package
                               Psi4 1.4a2.dev629 

                         Git: Rev {master} 2938fc2 dirty


    D. G. A. Smith, L. A. Burns, A. C. Simmonett, R. M. Parrish,
    M. C. Schieber, R. Galvelis, P. Kraus, H. Kruse, R. Di Remigio,
    A. Alenaizan, A. M. James, S. Lehtola, J. P. Misiewicz, M. Scheurer,
    R. A. Shaw, J. B. Schriber, Y. Xie, Z. L. Glick, D. A. Sirianni,
    J. S. O'Brien, J. M. Waldrop, A. Kumar, E. G. Hohenstein,
    B. P. Pritchard, B. R. Brooks, H. F. Schaefer III, A. Yu. Sokolov,
    K. Patkowski, A. E. DePrince III, U. Bozkaya, R. A. King,
    F. A. Evangelista, J. M. Turney, T. D. Crawford, C. D. Sherrill,
    J. Chem. Phys. 152(18) 184108 (2020). https://doi.org/10.1063/5.0006002

                            Additional Code Authors
    E. T. Seidl, C. L. Janssen, E. F. Valeev, M. L. Leininger,
    J. F. Gonthier, R. M. Richard, H. R. McAlexander, M. Saitow, X. Wang,
    P. Verma, and M. H. Lechner

             Previous Authors, Complete List of Code Contributors,
                       and Citations for Specific Modules
    https://github.com/psi4/psi4/blob/master/codemeta.json
    https://github.com/psi4/psi4/graphs/contributors
    http://psicode.org/psi4manual/master/introduction.html#citing-psifour

    -----------------------------------------------------------------------


    Psi4 started on: Friday, 12 November 2021 05:17PM

    Process ID: 18422
    Host:       n058
    PSIDATADIR: /opt/psi/4/master/share/psi4
    Memory:     500.0 MiB
    Threads:    4
    
  ==> Input File <==

--------------------------------------------------------------------------
import os
memory 14 GB 
 
molecule {
 H   -2.7757855329   -0.0000014835   -0.0043037171
 C   -0.7045469744   -0.0000004551   -0.0022873414
 C    0.2004075898   -1.3733347179   -2.3774161089
 C    0.2009677900    2.7457860777   -0.0018544031
 C    0.2015289675   -1.3724490841    2.3784261516
 H    2.2686118907   -1.4102635157   -2.4393821635
 H   -0.4717111878   -0.4290643226   -4.0897309634
 H   -0.4673277224   -3.3264465635   -2.4169134494
 H    2.2661800360    2.8183935464   -0.0053508191
 H   -0.4702771397    3.7592549454    1.6776512324
 H   -0.4672217249    3.7545420918   -1.6686984698
 H    2.2637545429   -1.4081279930    2.4422154632
 H   -0.4701767004   -3.3284710892    2.4170594552
 H   -0.4657933545   -0.4298174367    4.0905851334
units bohr
}

basis {

assign 6-31g_2dfp_

[ 6-31g_2dfp_ ]

spherical

!----------------------------------------------------------------------
! Basis Set Exchange
! Version v0.8.13
! https://www.basissetexchange.org
!----------------------------------------------------------------------
!   Basis set: 6-31G(2df,p)
! Description: 6-31G(2df,p)
!        Role: orbital
!     Version: 0  (Data from the original Basis Set Exchange)
!----------------------------------------------------------------------


****
H     0
S    3   1.00
     18.7311370              0.03349460
      2.8253937              0.23472695
      0.6401217              0.81375733
S    1   1.00
      0.1612778              1.00000000
P    1   1.00
      1.5000000              1.0000000
P    1   1.00
      0.3750000              1.0000000
****
B     0
S    6   1.00
   2068.8823000              0.0018663
    310.6495700              0.0142515
     70.6830330              0.0695516
     19.8610800              0.2325729
      6.2993048              0.4670787
      2.1270270              0.3634314
SP   3   1.00
      4.7279710             -0.1303938              0.0745976
      1.1903377             -0.1307889              0.3078467
      0.3594117              1.1309444              0.7434568
SP   1   1.00
      0.1267512              1.0000000              1.0000000
D    1   1.00
      0.8020000              1.0000000
D    1   1.00
      0.2005000              1.0000000
F    1   1.00
      0.5000000              1.0000000
****
C     0
S    6   1.00
   3047.5249000              0.0018347
    457.3695100              0.0140373
    103.9486900              0.0688426
     29.2101550              0.2321844
      9.2866630              0.4679413
      3.1639270              0.3623120
SP   3   1.00
      7.8682724             -0.1193324              0.0689991
      1.8812885             -0.1608542              0.3164240
      0.5442493              1.1434564              0.7443083
SP   1   1.00
      0.1687144              1.0000000              1.0000000
D    1   1.00
      1.2520000              1.0000000
D    1   1.00
      0.3130000              1.0000000
F    1   1.00
      0.8000000              1.0000000
****
N     0
S    6   1.00
   4173.5110000              0.0018348
    627.4579000              0.0139950
    142.9021000              0.0685870
     40.2343300              0.2322410
     12.8202100              0.4690700
      4.3904370              0.3604550
SP   3   1.00
     11.6263580             -0.1149610              0.0675800
      2.7162800             -0.1691180              0.3239070
      0.7722180              1.1458520              0.7408950
SP   1   1.00
      0.2120313              1.0000000              1.0000000
D    1   1.00
      1.8260000              1.0000000
D    1   1.00
      0.4565000              1.0000000
F    1   1.00
      1.0000000              1.0000000
****
O     0
S    6   1.00
   5484.6717000              0.0018311
    825.2349500              0.0139501
    188.0469600              0.0684451
     52.9645000              0.2327143
     16.8975700              0.4701930
      5.7996353              0.3585209
SP   3   1.00
     15.5396160             -0.1107775              0.0708743
      3.5999336             -0.1480263              0.3397528
      1.0137618              1.1307670              0.7271586
SP   1   1.00
      0.2700058              1.0000000              1.0000000
D    1   1.00
      2.5840000              1.0000000
D    1   1.00
      0.6460000              1.0000000
F    1   1.00
      1.4000000              1.0000000
****
F     0
S    6   1.00
   7001.7130900              0.0018196169
   1051.3660900              0.0139160796
    239.2856900              0.0684053245
     67.3974453              0.233185760
     21.5199573              0.471267439
      7.40310130             0.356618546
SP   3   1.00
     20.8479528             -0.108506975            0.0716287243
      4.80830834            -0.146451658            0.3459121030
      1.34406986             1.128688580            0.7224699570
SP   1   1.00
      0.358151393            1.0000000              1.0000000
D    1   1.00
      3.5000000              1.0000000
D    1   1.00
      0.8750000              1.0000000
F    1   1.00
      1.8500000              1.0000000
****
Al     0
S    6   1.00
  13983.1000000              0.00194267
   2098.7500000              0.0148599
    477.7050000              0.0728494
    134.3600000              0.2468300
     42.8709000              0.4872580
     14.5189000              0.3234960
SP   6   1.00
    239.6680000             -0.00292619             0.00460285
     57.4419000             -0.0374080              0.0331990
     18.2859000             -0.1144870              0.1362820
      6.5991400              0.1156350              0.3304760
      2.4904900              0.6125950              0.4491460
      0.9445400              0.3937990              0.2657040
SP   3   1.00
      1.2779000             -0.2276060             -0.0175130
      0.3975900              0.00144583             0.2445330
      0.1600950              1.0927900              0.8049340
SP   1   1.00
      0.0556577              1.0000000              1.0000000
D    1   1.00
      0.6500000              1.0000000
D    1   1.00
      0.1625000              1.0000000
F    1   1.00
      0.2500000              1.0000000
****
Si     0
S    6   1.00
  16115.9000000              0.00195948
   2425.5800000              0.01492880
    553.8670000              0.07284780
    156.3400000              0.24613000
     50.0683000              0.48591400
     17.0178000              0.32500200
SP   6   1.00
    292.7180000             -0.00278094             0.00443826
     69.8731000             -0.03571460             0.03266790
     22.3363000             -0.11498500             0.13472100
      8.1503900              0.09356340             0.32867800
      3.1345800              0.60301700             0.44964000
      1.2254300              0.41895900             0.26137200
SP   3   1.00
      1.7273800             -0.24463000            -0.01779510
      0.5729220              0.00431572             0.25353900
      0.2221920              1.09818000             0.80066900
SP   1   1.00
      0.0778369              1.00000000             1.00000000
D    1   1.00
      0.9000000              1.0000000
D    1   1.00
      0.2250000              1.0000000
F    1   1.00
      0.3200000              1.0000000
****
P     0
S    6   1.00
  19413.3000000              0.0018516
   2909.4200000              0.0142062
    661.3640000              0.0699995
    185.7590000              0.2400790
     59.1943000              0.4847620
     20.0310000              0.3352000
SP   6   1.00
    339.4780000             -0.00278217             0.00456462
     81.0101000             -0.0360499              0.03369360
     25.8780000             -0.1166310              0.13975500
      9.4522100              0.0968328              0.33936200
      3.6656600              0.6144180              0.45092100
      1.4674600              0.4037980              0.23858600
SP   3   1.00
      2.1562300             -0.2529230             -0.01776530
      0.7489970              0.0328517              0.27405800
      0.2831450              1.0812500              0.78542100
SP   1   1.00
      0.0998317              1.0000000              1.00000000
D    1   1.00
      1.1000000              1.0000000
D    1   1.00
      0.2750000              1.0000000
F    1   1.00
      0.4500000              1.0000000
****
S     0
S    6   1.00
  21917.1000000              0.0018690
   3301.4900000              0.0142300
    754.1460000              0.0696960
    212.7110000              0.2384870
     67.9896000              0.4833070
     23.0515000              0.3380740
SP   6   1.00
    423.7350000             -0.0023767              0.0040610
    100.7100000             -0.0316930              0.0306810
     32.1599000             -0.1133170              0.1304520
     11.8079000              0.0560900              0.3272050
      4.6311000              0.5922550              0.4528510
      1.8702500              0.4550060              0.2560420
SP   3   1.00
      2.6158400             -0.2503740             -0.0145110
      0.9221670              0.0669570              0.3102630
      0.3412870              1.0545100              0.7544830
SP   1   1.00
      0.1171670              1.0000000              1.0000000
D    1   1.00
      1.3000000              1.0000000
D    1   1.00
      0.3250000              1.0000000
F    1   1.00
      0.5500000              1.0000000
****
Cl     0
S    6   1.00
  25180.1000000              0.0018330
   3780.3500000              0.0140340
    860.4740000              0.0690970
    242.1450000              0.2374520
     77.3349000              0.4830340
     26.2470000              0.3398560
SP   6   1.00
    491.7650000             -0.0022974              0.0039894
    116.9840000             -0.0307140              0.0303180
     37.4153000             -0.1125280              0.1298800
     13.7834000              0.0450160              0.3279510
      5.4521500              0.5893530              0.4535270
      2.2258800              0.4652060              0.2521540
SP   3   1.00
      3.1864900             -0.2518300             -0.0142990
      1.1442700              0.0615890              0.3235720
      0.4203770              1.0601800              0.7435070
SP   1   1.00
      0.1426570              1.0000000              1.0000000
D    1   1.00
      1.5000000              1.0000000
D    1   1.00
      0.3750000              1.0000000
F    1   1.00
      0.7000000              1.0000000
****
}


set {
reference rhf                          
freeze_core true
e_convergence 10                       
d_convergence 10                      
dft_spherical_points 1202
dft_radial_points 99
}

e = energy('b3lyp')

print_out('Grab this energy {0}'.format(e))
--------------------------------------------------------------------------

  Memory set to  13.039 GiB by Python driver.

Scratch directory: /tmp/

*** tstart() called on n058
*** at Fri Nov 12 17:17:02 2021

   => Loading Basis Set <=

    Name: ANONYMOUS3A32F1D8
    Role: ORBITAL
    Keyword: BASIS
    atoms 1, 6-14 entry H          line    15 inputblock 6-31g_2dfp_ 
    atoms 2-5     entry C          line    48 inputblock 6-31g_2dfp_ 


         ---------------------------------------------------------
                                   SCF
               by Justin Turney, Rob Parrish, Andy Simmonett
                          and Daniel G. A. Smith
                              RKS Reference
                        4 Threads,  13351 MiB Core
         ---------------------------------------------------------

  ==> Geometry <==

    Molecular point group: c1
    Full point group: C1

    Geometry (in Bohr), charge = 0, multiplicity = 1:

       Center              X                  Y                   Z               Mass       
    ------------   -----------------  -----------------  -----------------  -----------------
         H           -2.775785736959    -0.000001828076    -0.003710995834     1.007825032230
         C           -0.704547178459    -0.000000799676    -0.001694620134    12.000000000000
         C            0.200407385741    -1.373335062476    -2.376823387634    12.000000000000
         C            0.200967585941     2.745785733124    -0.001261681834    12.000000000000
         C            0.201528763441    -1.372449428676     2.379018872866    12.000000000000
         H            2.268611686641    -1.410263860276    -2.438789442234     1.007825032230
         H           -0.471711391859    -0.429064667176    -4.089138242134     1.007825032230
         H           -0.467327926459    -3.326446908076    -2.416320728134     1.007825032230
         H            2.266179831941     2.818393201824    -0.004758097834     1.007825032230
         H           -0.470277343759     3.759254600824     1.678243953666     1.007825032230
         H           -0.467221928959     3.754541747224    -1.668105748534     1.007825032230
         H            2.263754338841    -1.408128337576     2.442808184466     1.007825032230
         H           -0.470176904459    -3.328471433776     2.417652176466     1.007825032230
         H           -0.465793558559    -0.429817781276     4.091177854666     1.007825032230

  Running in c1 symmetry.

  Rotational constants: A =      0.26077  B =      0.26069  C =      0.15137 [cm^-1]
  Rotational constants: A =   7817.69474  B =   7815.42713  C =   4537.83304 [MHz]
  Nuclear repulsion =  134.696922535401825

  Charge       = 0
  Multiplicity = 1
  Electrons    = 34
  Nalpha       = 17
  Nbeta        = 17

  ==> Algorithm <==

  SCF Algorithm Type is DF.
  DIIS enabled.
  MOM disabled.
  Fractional occupation disabled.
  Guess Type is SAD.
  Energy threshold   = 1.00e-10
  Density threshold  = 1.00e-10
  Integral threshold = 0.00e+00

  ==> Primary Basis <==

  Basis Set: ANONYMOUS3A32F1D8
    Blend: 6-31G_2DFP_
    Number of shells: 72
    Number of basis function: 184
    Number of Cartesian functions: 204
    Spherical Harmonics?: true
    Max angular momentum: 3

  ==> DFT Potential <==

   => Composite Functional: B3LYP <= 

    B3LYP Hyb-GGA Exchange-Correlation Functional

    P. J. Stephens, F. J. Devlin, C. F. Chabalowski, and M. J. Frisch, J. Phys. Chem. 98, 11623 (1994)

    Deriv               =              1
    GGA                 =           TRUE
    Meta                =          FALSE

    Exchange Hybrid     =           TRUE
    MP2 Hybrid          =          FALSE

   => Exchange Functionals <=

    0.0800   Slater exchange
    0.7200         Becke 88

   => Exact (HF) Exchange <=

    0.2000               HF 

   => Correlation Functionals <=

    0.1900   Vosko, Wilk & Nusair (VWN5_RPA)
    0.8100   Lee, Yang & Parr

   => Molecular Quadrature <=

    Radial Scheme          =       TREUTLER
    Pruning Scheme         =           NONE
    Nuclear Scheme         =       TREUTLER

    BS radius alpha        =              1
    Pruning alpha          =              1
    Radial Points          =             99
    Spherical Points       =           1202
    Total Points           =        1546601
    Total Blocks           =          10391
    Max Points             =            256
    Max Functions          =            184
    Weights Tolerance      =       1.00E-15

   => Loading Basis Set <=

    Name: (ANONYMOUS3A32F1D8 AUX)
    Role: JKFIT
    Keyword: DF_BASIS_SCF
    atoms 1, 6-14 entry H          line    18 file /opt/psi/4/master/share/psi4/basis/def2-universal-jkfit.gbs 
    atoms 2-5     entry C          line   198 file /opt/psi/4/master/share/psi4/basis/def2-universal-jkfit.gbs 

  ==> Integral Setup <==

  DFHelper Memory: AOs need 0.129 GiB; user supplied 3.158 GiB. Using in-core AOs.

  ==> MemDFJK: Density-Fitted J/K Matrices <==

    J tasked:                   Yes
    K tasked:                   Yes
    wK tasked:                   No
    OpenMP threads:               4
    Memory [MiB]:              3234
    Algorithm:                 Core
    Schwarz Cutoff:           1E-12
    Mask sparsity (%):       1.1697
    Fitting Condition:        1E-10

   => Auxiliary Basis Set <=

  Basis Set: (ANONYMOUS3A32F1D8 AUX)
    Blend: DEF2-UNIVERSAL-JKFIT
    Number of shells: 160
    Number of basis function: 480
    Number of Cartesian functions: 556
    Spherical Harmonics?: true
    Max angular momentum: 4

  Cached 100.0% of DFT collocation blocks in 6.621 [GiB].

  Minimum eigenvalue in the overlap matrix is 1.3314053739E-03.
  Reciprocal condition number of the overlap matrix is 2.1019669451E-04.
    Using symmetric orthogonalization.

  ==> Pre-Iterations <==

  SCF Guess: Superposition of Atomic Densities via on-the-fly atomic UHF (no occupation information).

   -------------------------
    Irrep   Nso     Nmo    
   -------------------------
     A        184     184 
   -------------------------
    Total     184     184
   -------------------------

  ==> Iterations <==

                           Total Energy        Delta E     RMS |[F,P]|

   @DF-RKS iter SAD:  -157.74015430235036   -1.57740e+02   0.00000e+00 
   @DF-RKS iter   1:  -158.05177623237796   -3.11622e-01   4.78765e-03 DIIS
   @DF-RKS iter   2:  -157.82407745583512    2.27699e-01   5.81984e-03 DIIS
   @DF-RKS iter   3:  -158.47124546131593   -6.47168e-01   4.68913e-04 DIIS
   @DF-RKS iter   4:  -158.47411256207008   -2.86710e-03   2.27295e-04 DIIS
   @DF-RKS iter   5:  -158.47492367252732   -8.11110e-04   3.51503e-05 DIIS
   @DF-RKS iter   6:  -158.47494302231837   -1.93498e-05   7.03031e-06 DIIS
   @DF-RKS iter   7:  -158.47494397866234   -9.56344e-07   1.32885e-06 DIIS
   @DF-RKS iter   8:  -158.47494401473332   -3.60710e-08   6.39993e-08 DIIS
   @DF-RKS iter   9:  -158.47494401477621   -4.28884e-11   4.48504e-08 DIIS
   @DF-RKS iter  10:  -158.47494401480975   -3.35376e-11   6.68182e-09 DIIS
   @DF-RKS iter  11:  -158.47494401481055   -7.95808e-13   5.98017e-10 DIIS
   @DF-RKS iter  12:  -158.47494401481055    0.00000e+00   3.62214e-11 DIIS
  Energy and wave function converged.


  ==> Post-Iterations <==

    Orbital Energies [Eh]
    ---------------------

    Doubly Occupied:                                                      

       1A    -10.178080     2A    -10.162513     3A    -10.162415  
       4A    -10.162315     5A     -0.798839     6A     -0.677705  
       7A     -0.677673     8A     -0.555583     9A     -0.459542  
      10A     -0.426565    11A     -0.426479    12A     -0.379127  
      13A     -0.379041    14A     -0.358913    15A     -0.323169  
      16A     -0.322830    17A     -0.319165  

    Virtual:                                                              

      18A      0.073477    19A      0.122284    20A      0.137011  
      21A      0.137216    22A      0.148136    23A      0.148472  
      24A      0.161222    25A      0.188151    26A      0.188300  
      27A      0.213633    28A      0.216291    29A      0.241970  
      30A      0.242476    31A      0.392954    32A      0.392959  
      33A      0.396141    34A      0.422042    35A      0.422283  
      36A      0.445830    37A      0.485080    38A      0.485232  
      39A      0.534313    40A      0.565222    41A      0.565237  
      42A      0.568263    43A      0.589048    44A      0.589331  
      45A      0.615747    46A      0.616039    47A      0.616531  
      48A      0.627985    49A      0.631150    50A      0.654781  
      51A      0.655048    52A      0.674275    53A      0.674534  
      54A      0.676119    55A      0.795715    56A      0.796236  
      57A      0.863702    58A      0.897794    59A      0.897869  
      60A      0.945315    61A      0.954644    62A      0.999873  
      63A      0.999885    64A      1.055862    65A      1.056499  
      66A      1.056654    67A      1.070808    68A      1.135086  
      69A      1.170268    70A      1.170477    71A      1.215287  
      72A      1.215406    73A      1.270518    74A      1.298481  
      75A      1.298855    76A      1.316987    77A      1.317145  
      78A      1.329259    79A      1.377774    80A      1.377885  
      81A      1.398974    82A      1.414885    83A      1.415377  
      84A      1.425494    85A      1.475521    86A      1.497260  
      87A      1.503740    88A      1.503840    89A      1.538486  
      90A      1.582960    91A      1.583168    92A      1.672373  
      93A      1.672619    94A      1.682166    95A      1.705989  
      96A      1.706136    97A      1.786863    98A      1.797002  
      99A      1.835257   100A      1.836288   101A      2.010157  
     102A      2.010581   103A      2.027559   104A      2.075285  
     105A      2.076105   106A      2.293037   107A      2.724456  
     108A      2.724609   109A      2.825839   110A      2.827104  
     111A      2.870661   112A      2.870755   113A      2.931518  
     114A      2.931972   115A      2.947003   116A      2.947770  
     117A      2.947947   118A      2.974495   119A      3.004938  
     120A      3.004974   121A      3.137831   122A      3.163803  
     123A      3.166998   124A      3.168286   125A      3.251684  
     126A      3.384905   127A      3.385787   128A      3.425131  
     129A      3.460362   130A      3.470262   131A      3.471432  
     132A      3.512786   133A      3.512893   134A      3.563270  
     135A      3.563697   136A      3.597349   137A      3.613655  
     138A      3.621084   139A      3.621290   140A      3.680789  
     141A      3.681060   142A      3.720152   143A      3.720681  
     144A      3.723088   145A      3.891259   146A      3.897374  
     147A      3.898258   148A      4.045991   149A      4.109089  
     150A      4.109214   151A      4.130930   152A      4.147771  
     153A      4.148676   154A      4.171629   155A      4.193577  
     156A      4.217197   157A      4.217683   158A      4.263460  
     159A      4.264150   160A      4.377888   161A      4.379109  
     162A      4.382333   163A      4.481530   164A      4.517325  
     165A      4.517399   166A      4.532953   167A      4.570350  
     168A      4.570396   169A      4.611414   170A      4.663724  
     171A      4.663800   172A      4.735225   173A      4.736401  
     174A      4.755901   175A      4.981305   176A      5.005597  
     177A      5.005965   178A      5.176242   179A      5.255206  
     180A      5.255411   181A      5.333414   182A      5.366758  
     183A      5.368932   184A      5.390032  

    Final Occupation by Irrep:
              A 
    DOCC [    17 ]

  @DF-RKS Final Energy:  -158.47494401481055

   => Energetics <=

    Nuclear Repulsion Energy =            134.6969225354018249
    One-Electron Energy =                -477.9660376533616954
    Two-Electron Energy =                 205.4307748074558901
    DFT Exchange-Correlation Energy =     -20.6366037043065766
    Empirical Dispersion Energy =           0.0000000000000000
    VV10 Nonlocal Energy =                  0.0000000000000000
    Total Energy =                       -158.4749440148105464

Computation Completed


Properties will be evaluated at   0.000000,   0.000000,   0.000000 [a0]

Properties computed using the SCF density matrix

  Nuclear Dipole Moment: [e a0]
     X:     0.6004      Y:    -0.0000      Z:     0.0045

  Electronic Dipole Moment: [e a0]
     X:    -0.6343      Y:    -0.0000      Z:    -0.0061

  Dipole Moment: [e a0]
     X:    -0.0340      Y:    -0.0000      Z:    -0.0016     Total:     0.0340

  Dipole Moment: [D]
     X:    -0.0863      Y:    -0.0000      Z:    -0.0040     Total:     0.0864


*** tstop() called on n058 at Fri Nov 12 17:17:43 2021
Module time:
	user time   =     151.66 seconds =       2.53 minutes
	system time =       2.16 seconds =       0.04 minutes
	total time  =         41 seconds =       0.68 minutes
Total time:
	user time   =     151.66 seconds =       2.53 minutes
	system time =       2.16 seconds =       0.04 minutes
	total time  =         41 seconds =       0.68 minutes
Grab this energy -158.47494401481055
    Psi4 stopped on: Friday, 12 November 2021 05:17PM
    Psi4 wall time for execution: 0:00:40.73

*** Psi4 exiting successfully. Buy a developer a beer!
