
    -----------------------------------------------------------------------
          Psi4: An Open-Source Ab Initio Electronic Structure Package
                               Psi4 1.4a2.dev629 

                         Git: Rev {master} 2938fc2 dirty


    D. G. A. Smith, L. A. Burns, A. C. Simmonett, R. M. Parrish,
    M. C. Schieber, R. Galvelis, P. Kraus, H. Kruse, R. Di Remigio,
    A. Alenaizan, A. M. James, S. Lehtola, J. P. Misiewicz, M. Scheurer,
    R. A. Shaw, J. B. Schriber, Y. Xie, Z. L. Glick, D. A. Sirianni,
    J. S. O'Brien, J. M. Waldrop, A. Kumar, E. G. Hohenstein,
    B. P. Pritchard, B. R. Brooks, H. F. Schaefer III, A. Yu. Sokolov,
    K. Patkowski, A. E. DePrince III, U. Bozkaya, R. A. King,
    F. A. Evangelista, J. M. Turney, T. D. Crawford, C. D. Sherrill,
    J. Chem. Phys. 152(18) 184108 (2020). https://doi.org/10.1063/5.0006002

                            Additional Code Authors
    E. T. Seidl, C. L. Janssen, E. F. Valeev, M. L. Leininger,
    J. F. Gonthier, R. M. Richard, H. R. McAlexander, M. Saitow, X. Wang,
    P. Verma, and M. H. Lechner

             Previous Authors, Complete List of Code Contributors,
                       and Citations for Specific Modules
    https://github.com/psi4/psi4/blob/master/codemeta.json
    https://github.com/psi4/psi4/graphs/contributors
    http://psicode.org/psi4manual/master/introduction.html#citing-psifour

    -----------------------------------------------------------------------


    Psi4 started on: Friday, 12 November 2021 05:26PM

    Process ID: 19177
    Host:       n058
    PSIDATADIR: /opt/psi/4/master/share/psi4
    Memory:     500.0 MiB
    Threads:    4
    
  ==> Input File <==

--------------------------------------------------------------------------
import os
memory 14 GB 
 
molecule {
 H   -2.7753616915    0.0000001650    0.0049911812
 C   -0.7045745314    0.0000025007    0.0018989341
 C    0.2015587521   -1.3680422606   -2.3745547870
 C    0.2007495597    2.7451565214   -0.0050322630
 C    0.1999413251   -1.3771130429    2.3802013225
 H    2.2702360779   -1.4015900587   -2.4361430149
 H   -0.4702041933   -0.4209450828   -4.0877236383
 H   -0.4668753900   -3.3255226306   -2.4161825403
 H    2.2692394493    2.8173940950   -0.0085185329
 H   -0.4669096866    3.7620937623    1.6685024950
 H   -0.4735674907    3.7527131990   -1.6833216473
 H    2.2682456914   -1.4158108932    2.4437371464
 H   -0.4735982061   -3.3346574432    2.4159251705
 H   -0.4702691857   -0.4336788312    4.0962201741
units bohr
}

basis {

assign 6-31g_2dfp_

[ 6-31g_2dfp_ ]

spherical

!----------------------------------------------------------------------
! Basis Set Exchange
! Version v0.8.13
! https://www.basissetexchange.org
!----------------------------------------------------------------------
!   Basis set: 6-31G(2df,p)
! Description: 6-31G(2df,p)
!        Role: orbital
!     Version: 0  (Data from the original Basis Set Exchange)
!----------------------------------------------------------------------


****
H     0
S    3   1.00
     18.7311370              0.03349460
      2.8253937              0.23472695
      0.6401217              0.81375733
S    1   1.00
      0.1612778              1.00000000
P    1   1.00
      1.5000000              1.0000000
P    1   1.00
      0.3750000              1.0000000
****
B     0
S    6   1.00
   2068.8823000              0.0018663
    310.6495700              0.0142515
     70.6830330              0.0695516
     19.8610800              0.2325729
      6.2993048              0.4670787
      2.1270270              0.3634314
SP   3   1.00
      4.7279710             -0.1303938              0.0745976
      1.1903377             -0.1307889              0.3078467
      0.3594117              1.1309444              0.7434568
SP   1   1.00
      0.1267512              1.0000000              1.0000000
D    1   1.00
      0.8020000              1.0000000
D    1   1.00
      0.2005000              1.0000000
F    1   1.00
      0.5000000              1.0000000
****
C     0
S    6   1.00
   3047.5249000              0.0018347
    457.3695100              0.0140373
    103.9486900              0.0688426
     29.2101550              0.2321844
      9.2866630              0.4679413
      3.1639270              0.3623120
SP   3   1.00
      7.8682724             -0.1193324              0.0689991
      1.8812885             -0.1608542              0.3164240
      0.5442493              1.1434564              0.7443083
SP   1   1.00
      0.1687144              1.0000000              1.0000000
D    1   1.00
      1.2520000              1.0000000
D    1   1.00
      0.3130000              1.0000000
F    1   1.00
      0.8000000              1.0000000
****
N     0
S    6   1.00
   4173.5110000              0.0018348
    627.4579000              0.0139950
    142.9021000              0.0685870
     40.2343300              0.2322410
     12.8202100              0.4690700
      4.3904370              0.3604550
SP   3   1.00
     11.6263580             -0.1149610              0.0675800
      2.7162800             -0.1691180              0.3239070
      0.7722180              1.1458520              0.7408950
SP   1   1.00
      0.2120313              1.0000000              1.0000000
D    1   1.00
      1.8260000              1.0000000
D    1   1.00
      0.4565000              1.0000000
F    1   1.00
      1.0000000              1.0000000
****
O     0
S    6   1.00
   5484.6717000              0.0018311
    825.2349500              0.0139501
    188.0469600              0.0684451
     52.9645000              0.2327143
     16.8975700              0.4701930
      5.7996353              0.3585209
SP   3   1.00
     15.5396160             -0.1107775              0.0708743
      3.5999336             -0.1480263              0.3397528
      1.0137618              1.1307670              0.7271586
SP   1   1.00
      0.2700058              1.0000000              1.0000000
D    1   1.00
      2.5840000              1.0000000
D    1   1.00
      0.6460000              1.0000000
F    1   1.00
      1.4000000              1.0000000
****
F     0
S    6   1.00
   7001.7130900              0.0018196169
   1051.3660900              0.0139160796
    239.2856900              0.0684053245
     67.3974453              0.233185760
     21.5199573              0.471267439
      7.40310130             0.356618546
SP   3   1.00
     20.8479528             -0.108506975            0.0716287243
      4.80830834            -0.146451658            0.3459121030
      1.34406986             1.128688580            0.7224699570
SP   1   1.00
      0.358151393            1.0000000              1.0000000
D    1   1.00
      3.5000000              1.0000000
D    1   1.00
      0.8750000              1.0000000
F    1   1.00
      1.8500000              1.0000000
****
Al     0
S    6   1.00
  13983.1000000              0.00194267
   2098.7500000              0.0148599
    477.7050000              0.0728494
    134.3600000              0.2468300
     42.8709000              0.4872580
     14.5189000              0.3234960
SP   6   1.00
    239.6680000             -0.00292619             0.00460285
     57.4419000             -0.0374080              0.0331990
     18.2859000             -0.1144870              0.1362820
      6.5991400              0.1156350              0.3304760
      2.4904900              0.6125950              0.4491460
      0.9445400              0.3937990              0.2657040
SP   3   1.00
      1.2779000             -0.2276060             -0.0175130
      0.3975900              0.00144583             0.2445330
      0.1600950              1.0927900              0.8049340
SP   1   1.00
      0.0556577              1.0000000              1.0000000
D    1   1.00
      0.6500000              1.0000000
D    1   1.00
      0.1625000              1.0000000
F    1   1.00
      0.2500000              1.0000000
****
Si     0
S    6   1.00
  16115.9000000              0.00195948
   2425.5800000              0.01492880
    553.8670000              0.07284780
    156.3400000              0.24613000
     50.0683000              0.48591400
     17.0178000              0.32500200
SP   6   1.00
    292.7180000             -0.00278094             0.00443826
     69.8731000             -0.03571460             0.03266790
     22.3363000             -0.11498500             0.13472100
      8.1503900              0.09356340             0.32867800
      3.1345800              0.60301700             0.44964000
      1.2254300              0.41895900             0.26137200
SP   3   1.00
      1.7273800             -0.24463000            -0.01779510
      0.5729220              0.00431572             0.25353900
      0.2221920              1.09818000             0.80066900
SP   1   1.00
      0.0778369              1.00000000             1.00000000
D    1   1.00
      0.9000000              1.0000000
D    1   1.00
      0.2250000              1.0000000
F    1   1.00
      0.3200000              1.0000000
****
P     0
S    6   1.00
  19413.3000000              0.0018516
   2909.4200000              0.0142062
    661.3640000              0.0699995
    185.7590000              0.2400790
     59.1943000              0.4847620
     20.0310000              0.3352000
SP   6   1.00
    339.4780000             -0.00278217             0.00456462
     81.0101000             -0.0360499              0.03369360
     25.8780000             -0.1166310              0.13975500
      9.4522100              0.0968328              0.33936200
      3.6656600              0.6144180              0.45092100
      1.4674600              0.4037980              0.23858600
SP   3   1.00
      2.1562300             -0.2529230             -0.01776530
      0.7489970              0.0328517              0.27405800
      0.2831450              1.0812500              0.78542100
SP   1   1.00
      0.0998317              1.0000000              1.00000000
D    1   1.00
      1.1000000              1.0000000
D    1   1.00
      0.2750000              1.0000000
F    1   1.00
      0.4500000              1.0000000
****
S     0
S    6   1.00
  21917.1000000              0.0018690
   3301.4900000              0.0142300
    754.1460000              0.0696960
    212.7110000              0.2384870
     67.9896000              0.4833070
     23.0515000              0.3380740
SP   6   1.00
    423.7350000             -0.0023767              0.0040610
    100.7100000             -0.0316930              0.0306810
     32.1599000             -0.1133170              0.1304520
     11.8079000              0.0560900              0.3272050
      4.6311000              0.5922550              0.4528510
      1.8702500              0.4550060              0.2560420
SP   3   1.00
      2.6158400             -0.2503740             -0.0145110
      0.9221670              0.0669570              0.3102630
      0.3412870              1.0545100              0.7544830
SP   1   1.00
      0.1171670              1.0000000              1.0000000
D    1   1.00
      1.3000000              1.0000000
D    1   1.00
      0.3250000              1.0000000
F    1   1.00
      0.5500000              1.0000000
****
Cl     0
S    6   1.00
  25180.1000000              0.0018330
   3780.3500000              0.0140340
    860.4740000              0.0690970
    242.1450000              0.2374520
     77.3349000              0.4830340
     26.2470000              0.3398560
SP   6   1.00
    491.7650000             -0.0022974              0.0039894
    116.9840000             -0.0307140              0.0303180
     37.4153000             -0.1125280              0.1298800
     13.7834000              0.0450160              0.3279510
      5.4521500              0.5893530              0.4535270
      2.2258800              0.4652060              0.2521540
SP   3   1.00
      3.1864900             -0.2518300             -0.0142990
      1.1442700              0.0615890              0.3235720
      0.4203770              1.0601800              0.7435070
SP   1   1.00
      0.1426570              1.0000000              1.0000000
D    1   1.00
      1.5000000              1.0000000
D    1   1.00
      0.3750000              1.0000000
F    1   1.00
      0.7000000              1.0000000
****
}


set {
reference rhf                          
freeze_core true
e_convergence 10                       
d_convergence 10                      
dft_spherical_points 1202
dft_radial_points 99
}

e = energy('b3lyp')

print_out('Grab this energy {0}'.format(e))
--------------------------------------------------------------------------

  Memory set to  13.039 GiB by Python driver.

Scratch directory: /tmp/

*** tstart() called on n058
*** at Fri Nov 12 17:26:32 2021

   => Loading Basis Set <=

    Name: ANONYMOUS12E6B8D0
    Role: ORBITAL
    Keyword: BASIS
    atoms 1, 6-14 entry H          line    15 inputblock 6-31g_2dfp_ 
    atoms 2-5     entry C          line    48 inputblock 6-31g_2dfp_ 


         ---------------------------------------------------------
                                   SCF
               by Justin Turney, Rob Parrish, Andy Simmonett
                          and Daniel G. A. Smith
                              RKS Reference
                        4 Threads,  13351 MiB Core
         ---------------------------------------------------------

  ==> Geometry <==

    Molecular point group: c1
    Full point group: C1

    Geometry (in Bohr), charge = 0, multiplicity = 1:

       Center              X                  Y                   Z               Mass       
    ------------   -----------------  -----------------  -----------------  -----------------
         H           -2.775232766284    -0.000000538804     0.004515519371     1.007825032230
         C           -0.704445606184     0.000001796896     0.001423272271    12.000000000000
         C            0.201687677316    -1.368042964404    -2.375030448829    12.000000000000
         C            0.200878484916     2.745155817596    -0.005507924829    12.000000000000
         C            0.200070250316    -1.377113746704     2.379725660671    12.000000000000
         H            2.270365003116    -1.401590762504    -2.436618676729     1.007825032230
         H           -0.470075268084    -0.420945786604    -4.088199300129     1.007825032230
         H           -0.466746464784    -3.325523334404    -2.416658202129     1.007825032230
         H            2.269368374516     2.817393391196    -0.008994194729     1.007825032230
         H           -0.466780761384     3.762093058496     1.668026833171     1.007825032230
         H           -0.473438565484     3.752712495196    -1.683797309129     1.007825032230
         H            2.268374616616    -1.415811597004     2.443261484571     1.007825032230
         H           -0.473469280884    -3.334658147004     2.415449508671     1.007825032230
         H           -0.470140260484    -0.433679535004     4.095744512271     1.007825032230

  Running in c1 symmetry.

  Rotational constants: A =      0.26151  B =      0.25992  C =      0.15139 [cm^-1]
  Rotational constants: A =   7840.01011  B =   7792.25949  C =   4538.53064 [MHz]
  Nuclear repulsion =  134.660055931152357

  Charge       = 0
  Multiplicity = 1
  Electrons    = 34
  Nalpha       = 17
  Nbeta        = 17

  ==> Algorithm <==

  SCF Algorithm Type is DF.
  DIIS enabled.
  MOM disabled.
  Fractional occupation disabled.
  Guess Type is SAD.
  Energy threshold   = 1.00e-10
  Density threshold  = 1.00e-10
  Integral threshold = 0.00e+00

  ==> Primary Basis <==

  Basis Set: ANONYMOUS12E6B8D0
    Blend: 6-31G_2DFP_
    Number of shells: 72
    Number of basis function: 184
    Number of Cartesian functions: 204
    Spherical Harmonics?: true
    Max angular momentum: 3

  ==> DFT Potential <==

   => Composite Functional: B3LYP <= 

    B3LYP Hyb-GGA Exchange-Correlation Functional

    P. J. Stephens, F. J. Devlin, C. F. Chabalowski, and M. J. Frisch, J. Phys. Chem. 98, 11623 (1994)

    Deriv               =              1
    GGA                 =           TRUE
    Meta                =          FALSE

    Exchange Hybrid     =           TRUE
    MP2 Hybrid          =          FALSE

   => Exchange Functionals <=

    0.0800   Slater exchange
    0.7200         Becke 88

   => Exact (HF) Exchange <=

    0.2000               HF 

   => Correlation Functionals <=

    0.1900   Vosko, Wilk & Nusair (VWN5_RPA)
    0.8100   Lee, Yang & Parr

   => Molecular Quadrature <=

    Radial Scheme          =       TREUTLER
    Pruning Scheme         =           NONE
    Nuclear Scheme         =       TREUTLER

    BS radius alpha        =              1
    Pruning alpha          =              1
    Radial Points          =             99
    Spherical Points       =           1202
    Total Points           =        1546638
    Total Blocks           =          10387
    Max Points             =            256
    Max Functions          =            184
    Weights Tolerance      =       1.00E-15

   => Loading Basis Set <=

    Name: (ANONYMOUS12E6B8D0 AUX)
    Role: JKFIT
    Keyword: DF_BASIS_SCF
    atoms 1, 6-14 entry H          line    18 file /opt/psi/4/master/share/psi4/basis/def2-universal-jkfit.gbs 
    atoms 2-5     entry C          line   198 file /opt/psi/4/master/share/psi4/basis/def2-universal-jkfit.gbs 

  ==> Integral Setup <==

  DFHelper Memory: AOs need 0.129 GiB; user supplied 3.159 GiB. Using in-core AOs.

  ==> MemDFJK: Density-Fitted J/K Matrices <==

    J tasked:                   Yes
    K tasked:                   Yes
    wK tasked:                   No
    OpenMP threads:               4
    Memory [MiB]:              3234
    Algorithm:                 Core
    Schwarz Cutoff:           1E-12
    Mask sparsity (%):       1.1756
    Fitting Condition:        1E-10

   => Auxiliary Basis Set <=

  Basis Set: (ANONYMOUS12E6B8D0 AUX)
    Blend: DEF2-UNIVERSAL-JKFIT
    Number of shells: 160
    Number of basis function: 480
    Number of Cartesian functions: 556
    Spherical Harmonics?: true
    Max angular momentum: 4

  Cached 100.0% of DFT collocation blocks in 6.620 [GiB].

  Minimum eigenvalue in the overlap matrix is 1.3297167651E-03.
  Reciprocal condition number of the overlap matrix is 2.1003690878E-04.
    Using symmetric orthogonalization.

  ==> Pre-Iterations <==

  SCF Guess: Superposition of Atomic Densities via on-the-fly atomic UHF (no occupation information).

   -------------------------
    Irrep   Nso     Nmo    
   -------------------------
     A        184     184 
   -------------------------
    Total     184     184
   -------------------------

  ==> Iterations <==

                           Total Energy        Delta E     RMS |[F,P]|

   @DF-RKS iter SAD:  -157.73687542826195   -1.57737e+02   0.00000e+00 
   @DF-RKS iter   1:  -158.05212206701495   -3.15247e-01   4.78410e-03 DIIS
   @DF-RKS iter   2:  -157.82162942698443    2.30493e-01   5.82860e-03 DIIS
   @DF-RKS iter   3:  -158.47128376535960   -6.49654e-01   4.67699e-04 DIIS
   @DF-RKS iter   4:  -158.47413065879724   -2.84689e-03   2.27456e-04 DIIS
   @DF-RKS iter   5:  -158.47494304464195   -8.12386e-04   3.51336e-05 DIIS
   @DF-RKS iter   6:  -158.47496236827533   -1.93236e-05   7.03525e-06 DIIS
   @DF-RKS iter   7:  -158.47496332680115   -9.58526e-07   1.33092e-06 DIIS
   @DF-RKS iter   8:  -158.47496336303979   -3.62386e-08   6.21725e-08 DIIS
   @DF-RKS iter   9:  -158.47496336308367   -4.38831e-11   4.15023e-08 DIIS
   @DF-RKS iter  10:  -158.47496336311221   -2.85354e-11   7.03242e-09 DIIS
   @DF-RKS iter  11:  -158.47496336311326   -1.05160e-12   6.07396e-10 DIIS
   @DF-RKS iter  12:  -158.47496336311306    1.98952e-13   5.52235e-11 DIIS
  Energy and wave function converged.


  ==> Post-Iterations <==

    Orbital Energies [Eh]
    ---------------------

    Doubly Occupied:                                                      

       1A    -10.178102     2A    -10.163115     3A    -10.162956  
       4A    -10.162795     5A     -0.798894     6A     -0.677431  
       7A     -0.677185     8A     -0.555348     9A     -0.459475  
      10A     -0.426620    11A     -0.426113    12A     -0.378946  
      13A     -0.378672    14A     -0.358605    15A     -0.323086  
      16A     -0.322915    17A     -0.319137  

    Virtual:                                                              

      18A      0.073192    19A      0.121915    20A      0.136676  
      21A      0.136999    22A      0.147746    23A      0.147976  
      24A      0.161095    25A      0.187502    26A      0.187945  
      27A      0.213223    28A      0.216350    29A      0.242060  
      30A      0.242290    31A      0.392853    32A      0.393108  
      33A      0.395972    34A      0.421966    35A      0.422021  
      36A      0.445673    37A      0.484510    38A      0.485384  
      39A      0.534039    40A      0.564823    41A      0.564853  
      42A      0.568251    43A      0.588526    44A      0.589203  
      45A      0.615282    46A      0.615511    47A      0.615679  
      48A      0.627381    49A      0.630403    50A      0.654306  
      51A      0.654545    52A      0.673654    53A      0.673843  
      54A      0.675686    55A      0.794774    56A      0.795883  
      57A      0.863240    58A      0.896518    59A      0.897897  
      60A      0.944632    61A      0.953874    62A      0.998953  
      63A      0.999416    64A      1.055318    65A      1.056311  
      66A      1.056635    67A      1.070696    68A      1.134142  
      69A      1.169417    70A      1.170394    71A      1.214386  
      72A      1.215411    73A      1.270696    74A      1.298043  
      75A      1.298461    76A      1.315910    77A      1.317159  
      78A      1.328288    79A      1.376995    80A      1.377022  
      81A      1.398492    82A      1.413493    83A      1.414859  
      84A      1.424681    85A      1.474980    86A      1.496342  
      87A      1.502183    88A      1.503391    89A      1.537672  
      90A      1.581877    91A      1.582325    92A      1.671686  
      93A      1.673764    94A      1.681536    95A      1.704563  
      96A      1.705542    97A      1.785405    98A      1.794909  
      99A      1.833087   100A      1.833528   101A      2.007968  
     102A      2.010336   103A      2.025659   104A      2.073173  
     105A      2.076302   106A      2.292228   107A      2.723517  
     108A      2.724556   109A      2.825363   110A      2.826512  
     111A      2.869438   112A      2.870620   113A      2.930691  
     114A      2.931284   115A      2.946549   116A      2.947070  
     117A      2.947558   118A      2.973887   119A      3.003718  
     120A      3.005183   121A      3.137039   122A      3.163863  
     123A      3.166243   124A      3.168929   125A      3.251195  
     126A      3.385454   127A      3.386251   128A      3.425306  
     129A      3.461018   130A      3.471040   131A      3.471646  
     132A      3.513522   133A      3.513662   134A      3.563579  
     135A      3.563710   136A      3.598807   137A      3.612925  
     138A      3.620889   139A      3.621171   140A      3.678611  
     141A      3.679513   142A      3.718997   143A      3.721185  
     144A      3.723956   145A      3.889298   146A      3.896849  
     147A      3.897420   148A      4.044992   149A      4.105801  
     150A      4.107412   151A      4.128347   152A      4.145279  
     153A      4.146851   154A      4.169612   155A      4.190353  
     156A      4.213851   157A      4.216329   158A      4.260304  
     159A      4.261885   160A      4.376320   161A      4.377303  
     162A      4.379756   163A      4.479456   164A      4.515048  
     165A      4.517312   166A      4.531687   167A      4.567765  
     168A      4.568288   169A      4.609066   170A      4.662787  
     171A      4.662886   172A      4.733541   173A      4.735119  
     174A      4.754543   175A      4.980156   176A      5.004205  
     177A      5.005029   178A      5.173745   179A      5.249927  
     180A      5.250347   181A      5.331085   182A      5.362688  
     183A      5.363143   184A      5.385594  

    Final Occupation by Irrep:
              A 
    DOCC [    17 ]

  @DF-RKS Final Energy:  -158.47496336311306

   => Energetics <=

    Nuclear Repulsion Energy =            134.6600559311523568
    One-Electron Energy =                -477.8962454975485343
    Two-Electron Energy =                 205.3938544731338993
    DFT Exchange-Correlation Energy =     -20.6326282698507448
    Empirical Dispersion Energy =           0.0000000000000000
    VV10 Nonlocal Energy =                  0.0000000000000000
    Total Energy =                       -158.4749633631130621

Computation Completed


Properties will be evaluated at   0.000000,   0.000000,   0.000000 [a0]

Properties computed using the SCF density matrix

  Nuclear Dipole Moment: [e a0]
     X:     0.6014      Y:    -0.0000      Z:    -0.0036

  Electronic Dipole Moment: [e a0]
     X:    -0.6363      Y:     0.0000      Z:     0.0037

  Dipole Moment: [e a0]
     X:    -0.0349      Y:     0.0000      Z:     0.0001     Total:     0.0349

  Dipole Moment: [D]
     X:    -0.0887      Y:     0.0000      Z:     0.0002     Total:     0.0887


*** tstop() called on n058 at Fri Nov 12 17:27:05 2021
Module time:
	user time   =     127.05 seconds =       2.12 minutes
	system time =       2.01 seconds =       0.03 minutes
	total time  =         33 seconds =       0.55 minutes
Total time:
	user time   =     127.05 seconds =       2.12 minutes
	system time =       2.01 seconds =       0.03 minutes
	total time  =         33 seconds =       0.55 minutes
Grab this energy -158.47496336311306
    Psi4 stopped on: Friday, 12 November 2021 05:27PM
    Psi4 wall time for execution: 0:00:33.16

*** Psi4 exiting successfully. Buy a developer a beer!
