
 Primary working directories    : /tmp/999602.347.gen6.q
 Secondary working directories  : /tmp/999602.347.gen6.q
 Wavefunction directory         : /home/vulcan/jj04645/wfu/
 Main file repository           : /tmp/999602.347.gen6.q/

 ARCHNAME  : Linux/x86_64
 FC        : /opt/intel/compilers_and_libraries_2016.1.150/linux/bin/intel64/ifort
 FCVERSION : 16.0.1
 BLASLIB   : -mkl
 id        : ccgc

 Nodes     nprocs
 n087         1
 ga_uses_ma=false, calling ma_init with nominal heap.
 GA-space will be limited to   8.0 MW (determined by -G option)

 Using customized tuning parameters: mindgm=10; mindgv=16; mindgc=4; mindgr=1; noblas=0; mincuda=1000; minvec=7
 default implementation of scratch files=df  

 ***,Optimization of 1,3-difluorobenzene
 memory,1000,m
 gthresh,energy=1.0d-12,orbital=1.0d-10,oneint=1.0d-16,twoint=1.0d-16,optgrad=1.0d-6,compress=1.0d-13
 geomtyp=xyz
 
 bohr
 geometry = {
  F    0.0000000000    4.4252568671   -1.7548956680
  C    0.0000000000    2.2378573460   -0.4823121105
  C    0.0000000000   -2.2943206815    2.1439068025
  C    0.0000000000    0.0000000000   -1.8586908675
  C    0.0000000000    2.2943206815    2.1439068025
  C    0.0000000000    0.0000000000    3.4487204408
  C    0.0000000000   -2.2378573460   -0.4823121105
  H    0.0000000000    0.0000000000   -3.9000868604
  H    0.0000000000    4.0893571411    3.1182236725
  H    0.0000000000   -0.0000000000    5.4937383299
  F    0.0000000000   -4.4252568671   -1.7548956680
  H   -0.0000000000   -4.0893571411    3.1182236725
 }
 
 basis=VDZ
 {rhf;maxit,200}
 {ccsd(t);maxit,200}

 Variables initialized (661), CPU time= 0.00 sec
 Commands  initialized (458), CPU time= 0.01 sec, 486 directives.
 Default parameters read. Elapsed time= 0.04 sec

 Checking input...
 Passed
1


                                         ***  PROGRAM SYSTEM MOLPRO  ***
                         Copyright, University College Cardiff Consultants Limited, 2008

                                    Version 2010.1 linked May 16 2016 07:17:05


 **********************************************************************************************************************************
 LABEL *   Optimization of 1,3-difluorobenzene                                           
 Linux-4.4.3/n087(x86_64) 64 bit mpp version                                             DATE: 07-Feb-24          TIME: 14:40:06  
 **********************************************************************************************************************************

 SHA1:             9e8077add272b0f3cad6f7df79ec5211205f459d
 **********************************************************************************************************************************

 THRESHOLDS:

 ZERO    =  1.00D-12  ONEINT  =  1.00D-16  TWOINT  =  1.00D-16  PREFAC  =  1.00D-14  LOCALI  =  1.00D-09  EORDER  =  1.00D-04
 ENERGY  =  1.00D-12  ETEST   =  0.00D+00  EDENS   =  0.00D+00  THRDEDEF=  1.00D-06  GRADIENT=  1.00D-02  STEP    =  1.00D-03
 ORBITAL =  1.00D-10  CIVEC   =  1.00D-05  COEFF   =  1.00D-04  PRINTCI =  5.00D-02  PUNCHCI =  9.90D+01  OPTGRAD =  1.00D-06
 OPTENERG=  1.00D-06  OPTSTEP =  3.00D-04  THRGRAD =  1.00D-10  COMPRESS=  1.00D-13  VARMIN  =  1.00D-07  VARMAX  =  1.00D-03
 THRDOUB =  0.00D+00  THRDIV  =  1.00D-05  THRRED  =  1.00D-07  THRPSP  =  1.00D+00  THRDC   =  1.00D-10  THRCS   =  1.00D-10
 THRNRM  =  1.00D-08  THREQ   =  0.00D+00  THRDE   =  1.00D+00  THRREF  =  1.00D-05  SPARFAC =  1.00D+00  THRDLP  =  1.00D-07
 THRDIA  =  1.00D-10  THRDLS  =  1.00D-07  THRGPS  =  0.00D+00  THRKEX  =  0.00D+00  THRDIS  =  2.00D-01  THRVAR  =  1.00D-10
 THRLOC  =  1.00D-06  THRGAP  =  1.00D-06  THRLOCT = -1.00D+00  THRGAPT = -1.00D+00  THRORB  =  1.00D-06  THRMLTP =  0.00D+00
 THRCPQCI=  1.00D-10  KEXTA   =  0.00D+00  THRCOARS=  0.00D+00  SYMTOL  =  1.00D-06  GRADTOL =  1.00D-06  THROVL  =  1.00D-08
 THRORTH =  1.00D-08  GRID    =  1.00D-06  GRIDMAX =  1.00D-03  DTMAX   =  0.00D+00

 SETTING GEOMTYP        =    XYZ
 ZUNIT=BOHR
 

 Variable memory set to 1000000000 words,  buffer space   230000 words

 SETTING BASIS          =    VDZ


 Recomputing integrals since basis changed


 Using spherical harmonics

 Library entry F      S cc-pVDZ              selected for orbital group  1
 Library entry F      P cc-pVDZ              selected for orbital group  1
 Library entry F      D cc-pVDZ              selected for orbital group  1
 Library entry C      S cc-pVDZ              selected for orbital group  2
 Library entry C      P cc-pVDZ              selected for orbital group  2
 Library entry C      D cc-pVDZ              selected for orbital group  2
 Library entry H      S cc-pVDZ              selected for orbital group  3
 Library entry H      P cc-pVDZ              selected for orbital group  3

1PROGRAM * SEWARD (Integral evaluation for generally contracted gaussian basis sets)     Author: Roland Lindh, 1990

 Geometry written to block  1 of record 700


 Point group  C2v 



 ATOMIC COORDINATES

 NR  ATOM    CHARGE       X              Y              Z

   1  F       9.00    0.000000000    4.425256867   -1.754895668
   2  F       9.00    0.000000000   -4.425256867   -1.754895668
   3  C       6.00    0.000000000    2.237857346   -0.482312111
   4  C       6.00    0.000000000   -2.237857346   -0.482312111
   5  C       6.00    0.000000000   -2.294320681    2.143906803
   6  C       6.00    0.000000000    2.294320681    2.143906803
   7  C       6.00    0.000000000    0.000000000   -1.858690868
   8  C       6.00    0.000000000    0.000000000    3.448720441
   9  H       1.00    0.000000000    0.000000000   -3.900086860
  10  H       1.00    0.000000000    4.089357141    3.118223673
  11  H       1.00    0.000000000   -4.089357141    3.118223673
  12  H       1.00    0.000000000    0.000000000    5.493738330

 Bond lengths in Bohr (Angstrom)

 1-3  2.530649240  2-4  2.530649240  3-6  2.626825820  3-7  2.627246464  4-5  2.626825820
     ( 1.339161902)     ( 1.339161902)     ( 1.390056356)     ( 1.390278951)     ( 1.390056356)

  4- 7  2.627246464   5- 8  2.639402588   5-11  2.042412606   6- 8  2.639402588   6-10  2.042412606
       ( 1.390278951)       ( 1.396711695)       ( 1.080798203)       ( 1.396711695)       ( 1.080798203)

  7- 9  2.041395993   8-12  2.045017889
       ( 1.080260234)       ( 1.082176859)

 Bond angles

  1-3-6  118.95829316   1-3-7  118.21673731   2-4-5  118.95829316   2-4-7  118.21673731

  3- 6- 8  118.39585987   3- 6-10  119.72405812   3- 7- 4  116.81338375   3- 7- 9  121.59330812

  4- 5- 8  118.39585987   4- 5-11  119.72405812   4- 7- 9  121.59330812   5- 4- 7  122.82496953

  5- 8- 6  120.74495744   5- 8-12  119.62752128   6- 3- 7  122.82496953   6- 8-12  119.62752128

  8- 5-11  121.88008201   8- 6-10  121.88008201

 NUCLEAR CHARGE:                   58
 NUMBER OF PRIMITIVE AOS:         244
 NUMBER OF SYMMETRY AOS:          236
 NUMBER OF CONTRACTIONS:          132   (  54A1  +  21B1  +  42B2  +  15A2  )
 NUMBER OF CORE ORBITALS:           8   (   5A1  +   0B1  +   3B2  +   0A2  )
 NUMBER OF VALENCE ORBITALS:       36   (  16A1  +   5B1  +  12B2  +   3A2  )


 NUCLEAR REPULSION ENERGY  342.66855613


 Eigenvalues of metric

         1 0.393E-03 0.168E-02 0.304E-02 0.130E-01 0.148E-01 0.202E-01 0.238E-01 0.265E-01
         2 0.413E-01 0.101E+00 0.166E+00 0.185E+00 0.214E+00 0.286E+00 0.365E+00 0.409E+00
         3 0.120E-02 0.265E-02 0.317E-02 0.125E-01 0.219E-01 0.267E-01 0.396E-01 0.618E-01
         4 0.906E-01 0.162E+00 0.190E+00 0.275E+00 0.377E+00 0.418E+00 0.473E+00 0.685E+00


 Contracted 2-electron integrals neglected if value below      1.0D-16
 AO integral compression algorithm  1   Integral accuracy      1.0D-16

     91.226 MB (compressed) written to integral file ( 96.5%)

     Node minimum: 91.226 MB, node maximum: 91.226 MB


 NUMBER OF SORTED TWO-ELECTRON INTEGRALS:   10309416.     BUFFER LENGTH:  32768
 NUMBER OF SEGMENTS:   1  SEGMENT LENGTH:   10309416      RECORD LENGTH: 524288

 Memory used in sort:      10.87 MW

 SORT1 READ    11786083. AND WROTE    10207956. INTEGRALS IN     30 RECORDS. CPU TIME:     0.19 SEC, REAL TIME:     0.26 SEC
 SORT2 READ    10207956. AND WROTE    10309416. INTEGRALS IN    348 RECORDS. CPU TIME:     0.13 SEC, REAL TIME:     0.18 SEC

 FILE SIZES:   FILE 1:    83.5 MBYTE,  FILE 4:   125.9 MBYTE,   TOTAL:    209.4 MBYTE

 OPERATOR DM      FOR CENTER  0  COORDINATES:    0.000000    0.000000    0.000000


 **********************************************************************************************************************************
 DATASETS  * FILE   NREC   LENGTH (MB)   RECORD NAMES
              1      19       83.55       500      610      700      900      950      970     1000      129      960     1100   
                                          VAR    BASINP    GEOM    SYMINP    ZMAT    AOBASIS   BASIS     P2S    ABASIS      S 
                                         1400     1410     1200     1210     1080     1600     1650     1300     1700   
                                           T        V       H0       H01     AOSYM     SMH    MOLCAS    ERIS     OPER   

 PROGRAMS   *        TOTAL       INT
 CPU TIMES  *         2.17      2.13
 REAL TIME  *         2.51 SEC
 DISK USED  *       301.44 MB      
 GA USED    *         0.00 MB       (max)       0.00 MB       (current)
 **********************************************************************************************************************************

1PROGRAM * RHF-SCF (CLOSED SHELL)       Authors: W. Meyer, H.-J. Werner


 NUMBER OF ELECTRONS:      29+   29-
 CONVERGENCE THRESHOLDS:    1.00E-10 (Density)    1.00E-13 (Energy)
 MAX. NUMBER OF ITERATIONS:      200
 INTERPOLATION TYPE:            DIIS
 INTERPOLATION STEPS:              2 (START)      1 (STEP)
 LEVEL SHIFTS:                  0.00 (CLOSED)  0.00 (OPEN) 



 Orbital guess generated from atomic densities. Full valence occupancy:   21   5  15   3

 Molecular orbital dump at record        2100.2

 Initial alpha occupancy:  14   3  10   2
 Initial beta  occupancy:  14   3  10   2
 Wave function symmetry:    1

 ITERATION    DDIFF          GRAD             ENERGY        2-EL.EN.            DIPOLE MOMENTS         DIIS
    1      0.000D+00      0.000D+00      -428.34437298    993.668451    0.00000    0.00000    0.46043    0
    2      0.000D+00      0.108D-01      -428.41836962    993.203803    0.00000    0.00000    0.91300    1
    3      0.223D-01      0.489D-02      -428.43210425    993.529045    0.00000    0.00000    0.60833    2
    4      0.708D-02      0.130D-02      -428.43365191    993.589417    0.00000    0.00000    0.72351    3
    5      0.267D-02      0.395D-03      -428.43378649    993.552716    0.00000    0.00000    0.68983    4
    6      0.668D-03      0.817D-04      -428.43379404    993.561843    0.00000    0.00000    0.69426    5
    7      0.175D-03      0.246D-04      -428.43379505    993.565176    0.00000    0.00000    0.69266    6
    8      0.587D-04      0.871D-05      -428.43379518    993.564471    0.00000    0.00000    0.69308    7
    9      0.195D-04      0.392D-05      -428.43379521    993.564839    0.00000    0.00000    0.69281    8
   10      0.103D-04      0.148D-05      -428.43379521    993.565385    0.00000    0.00000    0.69287    8
   11      0.458D-05      0.842D-06      -428.43379522    993.565298    0.00000    0.00000    0.69284    8
   12      0.284D-05      0.339D-06      -428.43379522    993.565392    0.00000    0.00000    0.69285    8
   13      0.168D-05      0.583D-07      -428.43379522    993.565419    0.00000    0.00000    0.69285    8
   14      0.196D-06      0.220D-07      -428.43379522    993.565413    0.00000    0.00000    0.69285    9
   15      0.755D-07      0.513D-08      -428.43379522    993.565413    0.00000    0.00000    0.69285    9
   16      0.156D-07      0.197D-08      -428.43379522    993.565414    0.00000    0.00000    0.69285    9
   17      0.623D-08      0.743D-09      -428.43379522    993.565413    0.00000    0.00000    0.69285    8
   18      0.221D-08      0.153D-09      -428.43379522    993.565414    0.00000    0.00000    0.69285    7
   19      0.396D-09      0.526D-10      -428.43379522    993.565414    0.00000    0.00000    0.69285    7
   20      0.143D-09      0.186D-10      -428.43379522    993.565414    0.00000    0.00000    0.69285    8
   21      0.353D-10      0.426D-11      -428.43379522    993.565414    0.00000    0.00000    0.69285    8
   22      0.907D-11      0.156D-11      -428.43379522    993.565414    0.00000    0.00000    0.69285    8
   23      0.456D-11      0.653D-12      -428.43379522    993.565414    0.00000    0.00000    0.69285    8
   24      0.241D-11      0.177D-12      -428.43379522    993.565414    0.00000    0.00000    0.69285    7
   25      0.124D-11      0.909D-13      -428.43379522    993.565414    0.00000    0.00000    0.69285    8
   26      0.108D-11      0.562D-13      -428.43379522    993.565414    0.00000    0.00000    0.69285    9
   27      0.440D-12      0.101D-12      -428.43379522    993.565414    0.00000    0.00000    0.69285    9
   28      0.293D-12      0.783D-13      -428.43379522    993.565414    0.00000    0.00000    0.69285    9
   29      0.169D-12      0.671D-13      -428.43379522    993.565414    0.00000    0.00000    0.69285    9
   30      0.279D-12      0.723D-13      -428.43379522    993.565414    0.00000    0.00000    0.69285    9
   31      0.171D-12      0.551D-13      -428.43379522    993.565414    0.00000    0.00000    0.69285    9
   32      0.124D-12      0.706D-13      -428.43379522    993.565414    0.00000    0.00000    0.69285    9
   33      0.201D-12      0.555D-13      -428.43379522    993.565414    0.00000    0.00000    0.69285    0

 Final occupancy:  14   3  10   2

 !RHF STATE 1.1 Energy               -428.433795215769
 Nuclear energy                       342.66855613
 One-electron energy                -1267.88505809
 Two-electron energy                  496.78270675
 Virial quotient                       -1.00055224
 !RHF STATE 1.1 Dipole moment           0.00000000     0.00000000     0.69285012
 Dipole moment /Debye                   0.00000000     0.00000000     1.76093401

 Orbital energies:

         1.1          2.1          3.1          4.1          5.1          6.1          7.1          8.1          9.1         10.1
    -26.321144   -11.349108   -11.272697   -11.258321   -11.255123    -1.641343    -1.178522    -1.046885    -0.875442    -0.775771

        11.1         12.1         13.1         14.1         15.1         16.1
     -0.702762    -0.668825    -0.623623    -0.533080     0.180228     0.221060

         1.2          2.2          3.2          4.2          5.2
     -0.704969    -0.513222    -0.360110     0.113910     0.344507

         1.3          2.3          3.3          4.3          5.3          6.3          7.3          8.3          9.3         10.3
    -26.321146   -11.349103   -11.255175    -1.640741    -1.036251    -0.865398    -0.741795    -0.685205    -0.585483    -0.554084

        11.3         12.3
      0.227062     0.341363

         1.4          2.4          3.4          4.4
     -0.696927    -0.347570     0.132729     0.715423


 **********************************************************************************************************************************
 DATASETS  * FILE   NREC   LENGTH (MB)   RECORD NAMES
              1      19       83.55       500      610      700      900      950      970     1000      129      960     1100   
                                          VAR    BASINP    GEOM    SYMINP    ZMAT    AOBASIS   BASIS     P2S    ABASIS      S 
                                         1400     1410     1200     1210     1080     1600     1650     1300     1700   
                                           T        V       H0       H01     AOSYM     SMH    MOLCAS    ERIS     OPER   

              2       3        0.58       700     1000     2100   
                                         GEOM     BASIS     RHF  

 PROGRAMS   *        TOTAL       RHF       INT
 CPU TIMES  *         3.19      1.01      2.13
 REAL TIME  *         3.77 SEC
 DISK USED  *       301.44 MB      
 GA USED    *         0.00 MB       (max)       0.00 MB       (current)
 **********************************************************************************************************************************


1PROGRAM * CCSD (Closed-shell coupled cluster)     Authors: C. Hampel, H.-J. Werner, 1991, M. Deegan, P.J. Knowles, 1992


 Convergence thresholds:  THRVAR = 1.00D-08  THRDEN = 1.00D-12

 CCSD(T)     terms to be evaluated (factor= 1.000)


 Number of core orbitals:           8 (   5   0   3   0 )
 Number of closed-shell orbitals:  21 (   9   3   7   2 )
 Number of external orbitals:     103 (  40  18  32  13 )

 Molecular orbitals read from record     2100.2  Type=RHF/CANONICAL (state 1.1)

 Number of N-1 electron functions:              21
 Number of N-2 electron functions:             231
 Number of singly external CSFs:               664
 Number of doubly external CSFs:            611519
 Total number of CSFs:                      612184

 Length of J-op  integral file:               0.00 MB
 Length of K-op  integral file:               0.40 MB
 Length of 3-ext integral record:             0.00 MB

 Memory could be reduced to 8.58 Mwords without degradation in triples

 Integral transformation finished. Total CPU:   0.27 sec, npass=  1  Memory used:   3.54 MW

 Reference energy:                   -428.43379522

 MP2 singlet pair energy:              -0.67237750
 MP2 triplet pair energy:              -0.46564524
 MP2 correlation energy:               -1.13802274
 MP2 total energy:                   -429.57181796

 SCS-MP2 correlation energy:           -1.09658782   (PS=  1.200000  PT=  0.333333)
 SCS-MP2 total energy:               -429.53038304

 ITER.      SQ.NORM     CORR.ENERGY   TOTAL ENERGY   ENERGY CHANGE        DEN1      VAR(S)    VAR(P)  DIIS     TIME
   1      1.36182728    -1.16779967  -429.60159488    -0.02977693     0.00039187  0.67D-02  0.73D-02  1  1     1.03
   2      1.38824514    -1.17133593  -429.60513114    -0.00353626    -0.02695496  0.13D-03  0.11D-02  2  2     1.82
   3      1.39900401    -1.17193368  -429.60572889    -0.00059775    -0.00536529  0.85D-04  0.99D-04  3  3     2.62
   4      1.40302736    -1.17186070  -429.60565591     0.00007298    -0.00141994  0.49D-05  0.20D-04  4  4     3.42
   5      1.40486286    -1.17189140  -429.60568661    -0.00003070    -0.00044921  0.90D-06  0.22D-05  5  5     4.23
   6      1.40533808    -1.17189708  -429.60569230    -0.00000568    -0.00006779  0.13D-06  0.24D-06  6  6     5.03
   7      1.40542505    -1.17189211  -429.60568733     0.00000497     0.00000021  0.29D-07  0.22D-07  6  1     5.82
   8      1.40544999    -1.17189325  -429.60568847    -0.00000114    -0.00000750  0.64D-08  0.30D-08  6  2     6.62
   9      1.40545140    -1.17189392  -429.60568913    -0.00000067     0.00000228  0.19D-08  0.35D-09  6  3     7.42
  10      1.40545384    -1.17189370  -429.60568891     0.00000022    -0.00000122  0.39D-09  0.78D-10  6  4     8.21
  11      1.40545392    -1.17189394  -429.60568916    -0.00000024     0.00000033  0.45D-10  0.20D-10  6  5     9.01
  12      1.40545410    -1.17189392  -429.60568914     0.00000002    -0.00000006  0.11D-10  0.24D-11  6  6     9.82
  13      1.40545409    -1.17189394  -429.60568916    -0.00000002     0.00000005  0.57D-12  0.55D-12  6  1    10.62
  14      1.40545407    -1.17189395  -429.60568917    -0.00000001     0.00000002  0.15D-12  0.84D-13  6  2    11.42
  15      1.40545406    -1.17189395  -429.60568917     0.00000000     0.00000000  0.40D-13  0.14D-13  6  3    12.21
  16      1.40545406    -1.17189395  -429.60568917    -0.00000000     0.00000000  0.64D-14  0.40D-14  6  4    13.01
  17      1.40545406    -1.17189395  -429.60568917    -0.00000000    -0.00000000  0.16D-14  0.68D-15  6  5    13.81
  18      1.40545406    -1.17189395  -429.60568917    -0.00000000    -0.00000000  0.20D-15  0.10D-15  6  6    14.61
  19      1.40545407    -1.17189395  -429.60568917    -0.00000000    -0.00000000  0.29D-16  0.22D-16  6  1    15.42
  20      1.40545407    -1.17189395  -429.60568917     0.00000000    -0.00000000  0.11D-16  0.28D-17  6  2    16.23
  21      1.40545407    -1.17189395  -429.60568917    -0.00000000    -0.00000000  0.13D-17  0.63D-18  6  3    17.03
  22      1.40545407    -1.17189395  -429.60568917     0.00000000    -0.00000000  0.39D-18  0.13D-18  6  4    17.83
  23      1.40545407    -1.17189395  -429.60568917     0.00000000    -0.00000000  0.78D-19  0.21D-19  6  5    18.63
  24      1.40545407    -1.17189395  -429.60568917    -0.00000000    -0.00000000  0.69D-20  0.45D-20  6  6    19.42
  25      1.40545407    -1.17189395  -429.60568917    -0.00000000     0.00000000  0.17D-20  0.10D-20  6  1    20.22

 Norm of t1 vector:      0.10818305      S-energy:     0.00000000      T1 diagnostic:  0.01180374
                                                                       D1 diagnostic:  0.03171692

 Doubles amplitudes (print threshold =  0.500E-01):

         I         J         SYM. A    SYM. B    A         B      T(IJ, AB)

        12        12         2         2         1         1     -0.08682191
        21        21         4         4         1         1     -0.08392997
        21        12         2         4         1         1     -0.05122141


 Total CPU time for triples:     13.66 sec


 RESULTS
 =======

  Reference energy                   -428.433795215770
  CCSD singlet pair energy             -0.756389324489
  CCSD triplet pair energy             -0.415504626853
  CCSD correlation energy              -1.171893951342

  Triples (T) contribution             -0.043018127126
  Total correlation energy             -1.214912078468

  CCSD total energy                  -429.605689167112
  CCSD[T] energy                     -429.650698395431
  CCSD-T energy                      -429.647987109084
 !CCSD(T) total energy               -429.648707294238

 Timing summary (sec):

 STEP                 CPU(USER)    SYS     CPU(TOT)    WALL
 Transformation          0.29      0.06      0.35      0.35
 CCSD iterations        19.93      0.87     20.80     20.86
 Triples                13.66      0.44     14.10     14.11

 Program statistics:

 Available memory in ccsd:               999998136
 Min. memory needed in ccsd:               1649999
 Max. memory used in ccsd:                 2209098
 Max. memory used in cckext:               2371604 (25 integral passes)



 **********************************************************************************************************************************
 DATASETS  * FILE   NREC   LENGTH (MB)   RECORD NAMES
              1      20      121.16       500      610      700      900      950      970     1000      129      960     1100   
                                          VAR    BASINP    GEOM    SYMINP    ZMAT    AOBASIS   BASIS     P2S    ABASIS      S 
                                         1400     1410     1200     1210     1080     1600     1650     1300     1700     1380   
                                           T        V       H0       H01     AOSYM     SMH    MOLCAS    ERIS     OPER     JKOP   

              2       3        0.58       700     1000     2100   
                                         GEOM     BASIS     RHF  

 PROGRAMS   *        TOTAL   CCSD(T)       RHF       INT
 CPU TIMES  *        37.07     33.88      1.01      2.13
 REAL TIME  *        39.13 SEC
 DISK USED  *       321.30 MB      
 GA USED    *         0.00 MB       (max)       0.00 MB       (current)
 **********************************************************************************************************************************

        CCSD(T)         RHF-SCF 
   -429.64870729   -428.43379522
 **********************************************************************************************************************************
 Variable memory released
