
 Primary working directories    : /tmp/985636.1498.gen5.q
 Secondary working directories  : /tmp/985636.1498.gen5.q
 Wavefunction directory         : /home/vulcan/jj04645/wfu/
 Main file repository           : /tmp/985636.1498.gen5.q/

 ARCHNAME  : Linux/x86_64
 FC        : /opt/intel/compilers_and_libraries_2016.1.150/linux/bin/intel64/ifort
 FCVERSION : 16.0.1
 BLASLIB   : -mkl
 id        : ccgc

 Nodes     nprocs
 n070         1
 ga_uses_ma=false, calling ma_init with nominal heap.
 GA-space will be limited to   8.0 MW (determined by -G option)

 Using customized tuning parameters: mindgm=10; mindgv=16; mindgc=4; mindgr=1; noblas=0; mincuda=1000; minvec=7
 default implementation of scratch files=df  

 ***,Optimization of tetrahydrothiopyran
 memory,1000,m
 gthresh,energy=1.0d-12,orbital=1.0d-10,oneint=1.0d-16,twoint=1.0d-16,optgrad=1.0d-6,compress=1.0d-13
 geomtyp=xyz
 
 bohr
 geometry = {
  S    0.3470759217    2.7003868205   -0.0045862614
  C   -0.3321300787   -3.3650400113   -0.0027945959
  C   -0.6667268350    0.6660409120   -2.5835687124
  C   -0.6586350980    0.6701716943    2.5808115437
  C    0.4760968567   -1.9809872881   -2.4144184951
  C    0.4698623205   -1.9830222296    2.4120755215
  H   -2.7325501426    0.5593628986   -2.5784613343
  H   -2.7250847833    0.5782765102    2.6001298474
  H   -0.0759177168    1.6210463110   -4.3134661542
  H   -0.0669848572    1.6255874731    4.3101948350
  H    2.5379374328   -1.8297499024   -2.4734475337
  H    2.5321490609   -1.8424767625    2.4810980225
  H   -0.1150176789   -3.0754934912   -4.0682093017
  H   -0.1337105134   -3.0754063856    4.0627665714
  H    0.4599079504   -5.2732373362   -0.0025760296
  H   -2.3950068557   -3.5752806296   -0.0055479232
 }
 
 basis=VDZ
 {rhf;maxit,200}
 {ccsd(t);maxit,200}

 Variables initialized (661), CPU time= 0.00 sec
 Commands  initialized (458), CPU time= 0.01 sec, 486 directives.
 Default parameters read. Elapsed time= 0.11 sec

 Checking input...
 Passed
1


                                         ***  PROGRAM SYSTEM MOLPRO  ***
                         Copyright, University College Cardiff Consultants Limited, 2008

                                    Version 2010.1 linked May 16 2016 07:17:05


 **********************************************************************************************************************************
 LABEL *   Optimization of tetrahydrothiopyran                                           
 Linux-4.4.3/n070(x86_64) 64 bit mpp version                                             DATE: 26-Jan-24          TIME: 18:15:33  
 **********************************************************************************************************************************

 SHA1:             9e8077add272b0f3cad6f7df79ec5211205f459d
 **********************************************************************************************************************************

 THRESHOLDS:

 ZERO    =  1.00D-12  ONEINT  =  1.00D-16  TWOINT  =  1.00D-16  PREFAC  =  1.00D-14  LOCALI  =  1.00D-09  EORDER  =  1.00D-04
 ENERGY  =  1.00D-12  ETEST   =  0.00D+00  EDENS   =  0.00D+00  THRDEDEF=  1.00D-06  GRADIENT=  1.00D-02  STEP    =  1.00D-03
 ORBITAL =  1.00D-10  CIVEC   =  1.00D-05  COEFF   =  1.00D-04  PRINTCI =  5.00D-02  PUNCHCI =  9.90D+01  OPTGRAD =  1.00D-06
 OPTENERG=  1.00D-06  OPTSTEP =  3.00D-04  THRGRAD =  1.00D-10  COMPRESS=  1.00D-13  VARMIN  =  1.00D-07  VARMAX  =  1.00D-03
 THRDOUB =  0.00D+00  THRDIV  =  1.00D-05  THRRED  =  1.00D-07  THRPSP  =  1.00D+00  THRDC   =  1.00D-10  THRCS   =  1.00D-10
 THRNRM  =  1.00D-08  THREQ   =  0.00D+00  THRDE   =  1.00D+00  THRREF  =  1.00D-05  SPARFAC =  1.00D+00  THRDLP  =  1.00D-07
 THRDIA  =  1.00D-10  THRDLS  =  1.00D-07  THRGPS  =  0.00D+00  THRKEX  =  0.00D+00  THRDIS  =  2.00D-01  THRVAR  =  1.00D-10
 THRLOC  =  1.00D-06  THRGAP  =  1.00D-06  THRLOCT = -1.00D+00  THRGAPT = -1.00D+00  THRORB  =  1.00D-06  THRMLTP =  0.00D+00
 THRCPQCI=  1.00D-10  KEXTA   =  0.00D+00  THRCOARS=  0.00D+00  SYMTOL  =  1.00D-06  GRADTOL =  1.00D-06  THROVL  =  1.00D-08
 THRORTH =  1.00D-08  GRID    =  1.00D-06  GRIDMAX =  1.00D-03  DTMAX   =  0.00D+00

 SETTING GEOMTYP        =    XYZ
 ZUNIT=BOHR
 

 Variable memory set to 1000000000 words,  buffer space   230000 words

 SETTING BASIS          =    VDZ


 Recomputing integrals since basis changed


 Using spherical harmonics

 Library entry S      S cc-pVDZ              selected for orbital group  1
 Library entry S      P cc-pVDZ              selected for orbital group  1
 Library entry S      D cc-pVDZ              selected for orbital group  1
 Library entry C      S cc-pVDZ              selected for orbital group  2
 Library entry C      P cc-pVDZ              selected for orbital group  2
 Library entry C      D cc-pVDZ              selected for orbital group  2
 Library entry H      S cc-pVDZ              selected for orbital group  3
 Library entry H      P cc-pVDZ              selected for orbital group  3

1PROGRAM * SEWARD (Integral evaluation for generally contracted gaussian basis sets)     Author: Roland Lindh, 1990

 Geometry written to block  1 of record 700


 Point group  C1  



 ATOMIC COORDINATES

 NR  ATOM    CHARGE       X              Y              Z

   1  S      16.00    0.347075922    2.700386820   -0.004586261
   2  C       6.00   -0.332130079   -3.365040011   -0.002794596
   3  C       6.00   -0.666726835    0.666040912   -2.583568712
   4  C       6.00   -0.658635098    0.670171694    2.580811544
   5  C       6.00    0.476096857   -1.980987288   -2.414418495
   6  C       6.00    0.469862320   -1.983022230    2.412075521
   7  H       1.00   -2.732550143    0.559362899   -2.578461334
   8  H       1.00   -2.725084783    0.578276510    2.600129847
   9  H       1.00   -0.075917717    1.621046311   -4.313466154
  10  H       1.00   -0.066984857    1.625587473    4.310194835
  11  H       1.00    2.537937433   -1.829749902   -2.473447534
  12  H       1.00    2.532149061   -1.842476763    2.481098022
  13  H       1.00   -0.115017679   -3.075493491   -4.068209302
  14  H       1.00   -0.133710513   -3.075406386    4.062766571
  15  H       1.00    0.459907950   -5.273237336   -0.002576030
  16  H       1.00   -2.395006856   -3.575280630   -0.005547923

 Bond lengths in Bohr (Angstrom)

  1- 3  3.437660511   1- 4  3.437660531   2- 5  2.895645446   2- 6  2.895645462   2-15  2.066044849
       ( 1.819131595)       ( 1.819131605)       ( 1.532309576)       ( 1.532309584)       ( 1.093303847)

  2-16  2.073564394   3- 5  2.888150979   3- 7  2.068582177   3- 9  2.062434456   4- 6  2.888151012
       ( 1.097283019)       ( 1.528343674)       ( 1.094646543)       ( 1.091393309)       ( 1.528343692)

  4- 8  2.068582177   4-10  2.062434456   5-11  2.068222361   5-13  2.069392243   6-12  2.068222361
       ( 1.094646543)       ( 1.091393309)       ( 1.094456137)       ( 1.095075211)       ( 1.094456136)

  6-14  2.069392242
       ( 1.095075211)

 Bond angles

  1-3-5  112.44174624   1-3-7  108.85556535   1-3-9  105.70886820   1-4-6  112.59933071

  1- 4- 8  108.99677417   1- 4-10  105.85007707   2- 5- 3  112.11113523   2- 5-11  109.69291052

  2- 5-13  109.45401830   2- 6- 4  112.26871985   2- 6-12  109.65982375   2- 6-14  109.42093153

  3- 1- 4   97.37995464   3- 5-11  109.01295607   3- 5-13  108.96027267   4- 6-12  108.97986932

  4- 6-14  108.92718591   5- 2- 6  112.90051342   5- 2-15  109.54486909   5- 2-16  108.96776271

  5- 3- 7  110.35014915   5- 3- 9  111.11013674   6- 2-15  109.54486909   6- 2-16  108.96776271

  6- 4- 8  110.49135794   6- 4-10  111.25134556   7- 3- 9  108.18164215   8- 4-10  107.41692520

 11- 5-13  107.49554652  12- 6-14  107.46245981  15- 2-16  106.72265317

 NUCLEAR CHARGE:                   56
 NUMBER OF PRIMITIVE AOS:         247
 NUMBER OF SYMMETRY AOS:          241
 NUMBER OF CONTRACTIONS:          138   ( 138A   )
 NUMBER OF CORE ORBITALS:          10   (  10A   )
 NUMBER OF VALENCE ORBITALS:       34   (  34A   )


 NUCLEAR REPULSION ENERGY  312.12338275


 Eigenvalues of metric

         1 0.286E-02 0.305E-02 0.426E-02 0.634E-02 0.705E-02 0.151E-01 0.157E-01 0.196E-01


 Contracted 2-electron integrals neglected if value below      1.0D-16
 AO integral compression algorithm  1   Integral accuracy      1.0D-16

     374.079 MB (compressed) written to integral file ( 94.2%)

     Node minimum: 374.079 MB, node maximum: 374.079 MB


 NUMBER OF SORTED TWO-ELECTRON INTEGRALS:   45998436.     BUFFER LENGTH:  32768
 NUMBER OF SEGMENTS:   3  SEGMENT LENGTH:   15998004      RECORD LENGTH: 524288

 Memory used in sort:      16.56 MW

 SORT1 READ    49670160. AND WROTE    45797884. INTEGRALS IN    132 RECORDS. CPU TIME:     0.49 SEC, REAL TIME:     0.78 SEC
 SORT2 READ    45797884. AND WROTE    45998436. INTEGRALS IN   1427 RECORDS. CPU TIME:     0.37 SEC, REAL TIME:     0.58 SEC

 FILE SIZES:   FILE 1:   349.6 MBYTE,  FILE 4:   553.7 MBYTE,   TOTAL:    903.3 MBYTE

 OPERATOR DM      FOR CENTER  0  COORDINATES:    0.000000    0.000000    0.000000


 **********************************************************************************************************************************
 DATASETS  * FILE   NREC   LENGTH (MB)   RECORD NAMES
              1      19      349.83       500      610      700      900      950      970     1000      129      960     1100   
                                          VAR    BASINP    GEOM    SYMINP    ZMAT    AOBASIS   BASIS     P2S    ABASIS      S 
                                         1400     1410     1200     1210     1080     1600     1650     1300     1700   
                                           T        V       H0       H01     AOSYM     SMH    MOLCAS    ERIS     OPER   

 PROGRAMS   *        TOTAL       INT
 CPU TIMES  *         5.90      5.78
 REAL TIME  *         7.15 SEC
 DISK USED  *         1.28 GB      
 GA USED    *         0.01 MB       (max)       0.00 MB       (current)
 **********************************************************************************************************************************

1PROGRAM * RHF-SCF (CLOSED SHELL)       Authors: W. Meyer, H.-J. Werner


 NUMBER OF ELECTRONS:      28+   28-    SPACE SYMMETRY=1    SPIN SYMMETRY: Singlet 
 CONVERGENCE THRESHOLDS:    1.00E-10 (Density)    1.00E-13 (Energy)
 MAX. NUMBER OF ITERATIONS:      200
 INTERPOLATION TYPE:            DIIS
 INTERPOLATION STEPS:              2 (START)      1 (STEP)
 LEVEL SHIFTS:                  0.00 (CLOSED)  0.00 (OPEN) 



 Orbital guess generated from atomic densities. Full valence occupancy:   44

 Molecular orbital dump at record        2100.2

 ITERATION    DDIFF          GRAD             ENERGY        2-EL.EN.            DIPOLE MOMENTS         DIIS
    1      0.000D+00      0.000D+00      -592.64387898   1056.814430   -0.40615   -0.80595    0.00318    0
    2      0.000D+00      0.396D-02      -592.70491197   1054.229375   -0.20659   -0.74012    0.00140    1
    3      0.778D-02      0.132D-02      -592.71084882   1055.664486   -0.27888   -0.67772    0.00139    2
    4      0.269D-02      0.540D-03      -592.71185808   1055.046104   -0.25168   -0.71076    0.00122    3
    5      0.931D-03      0.774D-04      -592.71188382   1055.109162   -0.24778   -0.70228    0.00117    4
    6      0.181D-03      0.267D-04      -592.71188634   1055.078272   -0.24950   -0.70256    0.00117    5
    7      0.504D-04      0.620D-05      -592.71188655   1055.081430   -0.24884   -0.70245    0.00116    6
    8      0.164D-04      0.174D-05      -592.71188657   1055.080569   -0.24882   -0.70231    0.00116    7
    9      0.538D-05      0.453D-06      -592.71188657   1055.080452   -0.24881   -0.70227    0.00116    7
   10      0.127D-05      0.162D-06      -592.71188657   1055.080490   -0.24880   -0.70227    0.00116    7
   11      0.480D-06      0.343D-07      -592.71188657   1055.080476   -0.24880   -0.70227    0.00116    7
   12      0.114D-06      0.689D-08      -592.71188657   1055.080481   -0.24880   -0.70226    0.00116    7
   13      0.183D-07      0.288D-08      -592.71188657   1055.080478   -0.24880   -0.70227    0.00116    7
   14      0.632D-08      0.846D-09      -592.71188657   1055.080479   -0.24880   -0.70227    0.00116    7
   15      0.226D-08      0.275D-09      -592.71188657   1055.080479   -0.24880   -0.70226    0.00116    7
   16      0.660D-09      0.854D-10      -592.71188657   1055.080479   -0.24880   -0.70226    0.00116    8
   17      0.206D-09      0.192D-10      -592.71188657   1055.080479   -0.24880   -0.70226    0.00116    7
   18      0.509D-10      0.623D-11      -592.71188657   1055.080479   -0.24880   -0.70226    0.00116    7
   19      0.195D-10      0.230D-11      -592.71188657   1055.080479   -0.24880   -0.70226    0.00116    8
   20      0.679D-11      0.819D-12      -592.71188657   1055.080479   -0.24880   -0.70226    0.00116    8
   21      0.273D-11      0.310D-12      -592.71188657   1055.080479   -0.24880   -0.70226    0.00116    8
   22      0.116D-11      0.109D-12      -592.71188657   1055.080479   -0.24880   -0.70226    0.00116    8
   23      0.432D-12      0.539D-13      -592.71188657   1055.080479   -0.24880   -0.70226    0.00116    8
   24      0.257D-12      0.476D-13      -592.71188657   1055.080479   -0.24880   -0.70226    0.00116    9
   25      0.146D-12      0.378D-13      -592.71188657   1055.080479   -0.24880   -0.70226    0.00116    9
   26      0.878D-13      0.315D-13      -592.71188657   1055.080479   -0.24880   -0.70226    0.00116    9
   27      0.828D-13      0.295D-13      -592.71188657   1055.080479   -0.24880   -0.70226    0.00116    9
   28      0.642D-13      0.400D-13      -592.71188657   1055.080479   -0.24880   -0.70226    0.00116    9
   29      0.517D-13      0.321D-13      -592.71188657   1055.080479   -0.24880   -0.70226    0.00116    9
   30      0.309D-13      0.283D-13      -592.71188657   1055.080479   -0.24880   -0.70226    0.00116    9
   31      0.309D-13      0.305D-13      -592.71188657   1055.080479   -0.24880   -0.70226    0.00116    9
   32      0.271D-13      0.243D-13      -592.71188657   1055.080479   -0.24880   -0.70226    0.00116    0

 Final occupancy:  28

 !RHF STATE 1.1 Energy               -592.711886571248
 Nuclear energy                       312.12338275
 One-electron energy                -1432.37550878
 Two-electron energy                  527.54023946
 Virial quotient                       -1.00019595
 !RHF STATE 1.1 Dipole moment          -0.24879833    -0.70226499     0.00116051
 Dipole moment /Debye                  -0.63234087    -1.78486264     0.00294952

 Orbital energies:

         1.1          2.1          3.1          4.1          5.1          6.1          7.1          8.1          9.1         10.1
    -91.929767   -11.255015   -11.254936   -11.231090   -11.230939   -11.229129    -8.933655    -6.615551    -6.614117    -6.611916

        11.1         12.1         13.1         14.1         15.1         16.1         17.1         18.1         19.1         20.1
     -1.119566    -1.019970    -1.006488    -0.842413    -0.835847    -0.755703    -0.646698    -0.614454    -0.609672    -0.578471

        21.1         22.1         23.1         24.1         25.1         26.1         27.1         28.1         29.1         30.1
     -0.547019    -0.523616    -0.497859    -0.495559    -0.473088    -0.434660    -0.411629    -0.328688     0.176931     0.190361


 **********************************************************************************************************************************
 DATASETS  * FILE   NREC   LENGTH (MB)   RECORD NAMES
              1      19      349.83       500      610      700      900      950      970     1000      129      960     1100   
                                          VAR    BASINP    GEOM    SYMINP    ZMAT    AOBASIS   BASIS     P2S    ABASIS      S 
                                         1400     1410     1200     1210     1080     1600     1650     1300     1700   
                                           T        V       H0       H01     AOSYM     SMH    MOLCAS    ERIS     OPER   

              2       3        0.92       700     1000     2100   
                                         GEOM     BASIS     RHF  

 PROGRAMS   *        TOTAL       RHF       INT
 CPU TIMES  *        17.15     11.25      5.78
 REAL TIME  *        19.97 SEC
 DISK USED  *         1.28 GB      
 GA USED    *         0.01 MB       (max)       0.00 MB       (current)
 **********************************************************************************************************************************


1PROGRAM * CCSD (Closed-shell coupled cluster)     Authors: C. Hampel, H.-J. Werner, 1991, M. Deegan, P.J. Knowles, 1992


 Convergence thresholds:  THRVAR = 1.00D-08  THRDEN = 1.00D-12

 CCSD(T)     terms to be evaluated (factor= 1.000)


 Number of core orbitals:          10 (  10 )
 Number of closed-shell orbitals:  18 (  18 )
 Number of external orbitals:     110 ( 110 )

 Molecular orbitals read from record     2100.2  Type=RHF/CANONICAL (state 1.1)

 Number of N-1 electron functions:              18
 Number of N-2 electron functions:             171
 Number of singly external CSFs:              1980
 Number of doubly external CSFs:           1961190
 Total number of CSFs:                     1963171

 Length of J-op  integral file:               0.00 MB
 Length of K-op  integral file:               1.35 MB
 Length of 3-ext integral record:             0.00 MB

 Memory could be reduced to 32.58 Mwords without degradation in triples

 Integral transformation finished. Total CPU:   2.65 sec, npass=  1  Memory used:  30.89 MW

 Reference energy:                   -592.71188657

 MP2 singlet pair energy:              -0.53945824
 MP2 triplet pair energy:              -0.30435912
 MP2 correlation energy:               -0.84381736
 MP2 total energy:                   -593.55570393

 SCS-MP2 correlation energy:           -0.83672890   (PS=  1.200000  PT=  0.333333)
 SCS-MP2 total energy:               -593.54861547

 ITER.      SQ.NORM     CORR.ENERGY   TOTAL ENERGY   ENERGY CHANGE        DEN1      VAR(S)    VAR(P)  DIIS     TIME
   1      1.33970208    -0.91079703  -593.62268360    -0.06697967    -0.04302108  0.26D-02  0.55D-02  1  1    10.68
   2      1.36669803    -0.91614474  -593.62803131    -0.00534771    -0.02577712  0.69D-04  0.46D-03  2  2    18.82
   3      1.37203157    -0.91627261  -593.62815918    -0.00012787    -0.00303790  0.16D-04  0.28D-04  3  3    26.95
   4      1.37352468    -0.91633066  -593.62821723    -0.00005805    -0.00059395  0.76D-06  0.20D-05  4  4    35.12
   5      1.37376533    -0.91633728  -593.62822385    -0.00000661    -0.00007085  0.17D-06  0.16D-06  5  5    43.29
   6      1.37381098    -0.91633283  -593.62821940     0.00000445    -0.00001393  0.30D-07  0.14D-07  6  6    51.46
   7      1.37381856    -0.91633272  -593.62821929     0.00000011     0.00000064  0.53D-08  0.23D-08  6  2    59.62
   8      1.37382464    -0.91633240  -593.62821897     0.00000031    -0.00000125  0.73D-09  0.27D-09  6  1    67.79
   9      1.37382546    -0.91633234  -593.62821891     0.00000006     0.00000051  0.66D-10  0.44D-10  6  4    75.95
  10      1.37382635    -0.91633230  -593.62821888     0.00000003    -0.00000011  0.48D-11  0.35D-11  6  3    84.18
  11      1.37382636    -0.91633231  -593.62821888    -0.00000000     0.00000004  0.12D-11  0.54D-12  6  5    92.35
  12      1.37382632    -0.91633231  -593.62821888    -0.00000000     0.00000002  0.17D-12  0.77D-13  6  6   100.53
  13      1.37382627    -0.91633231  -593.62821888    -0.00000000     0.00000002  0.24D-13  0.11D-13  6  1   108.71
  14      1.37382626    -0.91633231  -593.62821888    -0.00000000     0.00000000  0.31D-14  0.12D-14  6  2   116.87
  15      1.37382626    -0.91633231  -593.62821888     0.00000000    -0.00000000  0.69D-15  0.31D-15  6  4   125.03
  16      1.37382626    -0.91633231  -593.62821888     0.00000000    -0.00000000  0.35D-16  0.24D-16  6  5   133.48
  17      1.37382626    -0.91633231  -593.62821888     0.00000000    -0.00000000  0.67D-17  0.26D-17  6  3   141.64
  18      1.37382626    -0.91633231  -593.62821888     0.00000000    -0.00000000  0.17D-17  0.46D-18  6  5   149.82
  19      1.37382626    -0.91633231  -593.62821888     0.00000000    -0.00000000  0.24D-18  0.74D-19  6  6   157.99
  20      1.37382626    -0.91633231  -593.62821888    -0.00000000     0.00000000  0.24D-19  0.83D-20  6  1   166.14
  21      1.37382626    -0.91633231  -593.62821888    -0.00000000     0.00000000  0.54D-20  0.15D-20  6  2   174.34

 Norm of t1 vector:      0.07014613      S-energy:    -0.00000000      T1 diagnostic:  0.00826680
                                                                       D1 diagnostic:  0.02108481


 Total CPU time for triples:    124.02 sec


 RESULTS
 =======

  Reference energy                   -592.711886571251
  CCSD singlet pair energy             -0.634215096324
  CCSD triplet pair energy             -0.282117215181
  CCSD correlation energy              -0.916332311505

  Triples (T) contribution             -0.029866991034
  Total correlation energy             -0.946199302539

  CCSD total energy                  -593.628218882756
  CCSD[T] energy                     -593.658705264401
  CCSD-T energy                      -593.657774660938
 !CCSD(T) total energy               -593.658085873790

 Timing summary (sec):

 STEP                 CPU(USER)    SYS     CPU(TOT)    WALL
 Transformation          2.77      0.25      3.02      3.02
 CCSD iterations       171.58      3.38    174.96    175.05
 Triples               124.02      2.57    126.59    126.60

 Program statistics:

 Available memory in ccsd:               999998604
 Min. memory needed in ccsd:               5123362
 Max. memory used in ccsd:                 6867976
 Max. memory used in cckext:               6836871 (21 integral passes)



 **********************************************************************************************************************************
 DATASETS  * FILE   NREC   LENGTH (MB)   RECORD NAMES
              1      20      486.20       500      610      700      900      950      970     1000      129      960     1100   
                                          VAR    BASINP    GEOM    SYMINP    ZMAT    AOBASIS   BASIS     P2S    ABASIS      S 
                                         1400     1410     1200     1210     1080     1600     1650     1300     1700     1380   
                                           T        V       H0       H01     AOSYM     SMH    MOLCAS    ERIS     OPER     JKOP   

              2       3        0.92       700     1000     2100   
                                         GEOM     BASIS     RHF  

 PROGRAMS   *        TOTAL   CCSD(T)       RHF       INT
 CPU TIMES  *       315.53    298.38     11.25      5.78
 REAL TIME  *       324.71 SEC
 DISK USED  *         1.28 GB      
 GA USED    *         0.01 MB       (max)       0.00 MB       (current)
 **********************************************************************************************************************************

        CCSD(T)         RHF-SCF 
   -593.65808587   -592.71188657
 **********************************************************************************************************************************
 Variable memory released
