
 Primary working directories    : /tmp/917047.40.gen4.q
 Secondary working directories  : /tmp/917047.40.gen4.q
 Wavefunction directory         : /home/vulcan/lo21740/wfu/
 Main file repository           : /tmp/917047.40.gen4.q/

 ARCHNAME  : Linux/x86_64
 FC        : /opt/intel/compilers_and_libraries_2016.1.150/linux/bin/intel64/ifort
 FCVERSION : 16.0.1
 BLASLIB   : -mkl
 id        : ccgc

 Nodes     nprocs
 n054         1
 ga_uses_ma=false, calling ma_init with nominal heap.
 GA-space will be limited to   8.0 MW (determined by -G option)

 Using customized tuning parameters: mindgm=10; mindgv=16; mindgc=4; mindgr=1; noblas=0; mincuda=1000; minvec=7
 default implementation of scratch files=df  

 ***,Optimization of h2o_2
 memory,1000,m
 gthresh,energy=1.0d-12,orbital=1.0d-10,oneint=1.0d-16,twoint=1.0d-16,optgrad=1.0d-6,compress=1.0d-13
 geomtyp=xyz
 
 bohr
 geometry = {
  C    0.0004085571   -3.4208713875   -0.0000762277
  H   -0.9730381352   -2.7315938274   -1.6855961318
  H   -0.9730396840   -2.7290917942    1.6844174302
  H    1.9454745797   -2.7277667630   -0.0005899219
  H    0.0022290513   -5.4856818736    0.0014567710
  C    0.0007802393    3.4175029806    0.0021326323
  H   -0.0002918486    5.4773145460    0.0018969484
  H    0.9666666172    2.7337080418   -1.6838518086
  H    0.9726105472    2.7340965571    1.6848558256
  H   -1.9417999240    2.7323835202   -0.0046455174
 }
 
 basis=AVDZ, H=VDZ
 {rhf;maxit,200}
 {ccsd(t);maxit,200}

 Variables initialized (661), CPU time= 0.01 sec
 Commands  initialized (458), CPU time= 0.00 sec, 486 directives.
 Default parameters read. Elapsed time= 0.04 sec

 Checking input...
 Passed
1


                                         ***  PROGRAM SYSTEM MOLPRO  ***
                         Copyright, University College Cardiff Consultants Limited, 2008

                                    Version 2010.1 linked May 16 2016 07:17:05


 **********************************************************************************************************************************
 LABEL *   Optimization of h2o_2                                                         
 Linux-4.4.3/n054(x86_64) 64 bit mpp version                                             DATE: 20-Jul-23          TIME: 13:14:41  
 **********************************************************************************************************************************

 SHA1:             9e8077add272b0f3cad6f7df79ec5211205f459d
 **********************************************************************************************************************************

 THRESHOLDS:

 ZERO    =  1.00D-12  ONEINT  =  1.00D-16  TWOINT  =  1.00D-16  PREFAC  =  1.00D-14  LOCALI  =  1.00D-09  EORDER  =  1.00D-04
 ENERGY  =  1.00D-12  ETEST   =  0.00D+00  EDENS   =  0.00D+00  THRDEDEF=  1.00D-06  GRADIENT=  1.00D-02  STEP    =  1.00D-03
 ORBITAL =  1.00D-10  CIVEC   =  1.00D-05  COEFF   =  1.00D-04  PRINTCI =  5.00D-02  PUNCHCI =  9.90D+01  OPTGRAD =  1.00D-06
 OPTENERG=  1.00D-06  OPTSTEP =  3.00D-04  THRGRAD =  1.00D-10  COMPRESS=  1.00D-13  VARMIN  =  1.00D-07  VARMAX  =  1.00D-03
 THRDOUB =  0.00D+00  THRDIV  =  1.00D-05  THRRED  =  1.00D-07  THRPSP  =  1.00D+00  THRDC   =  1.00D-10  THRCS   =  1.00D-10
 THRNRM  =  1.00D-08  THREQ   =  0.00D+00  THRDE   =  1.00D+00  THRREF  =  1.00D-05  SPARFAC =  1.00D+00  THRDLP  =  1.00D-07
 THRDIA  =  1.00D-10  THRDLS  =  1.00D-07  THRGPS  =  0.00D+00  THRKEX  =  0.00D+00  THRDIS  =  2.00D-01  THRVAR  =  1.00D-10
 THRLOC  =  1.00D-06  THRGAP  =  1.00D-06  THRLOCT = -1.00D+00  THRGAPT = -1.00D+00  THRORB  =  1.00D-06  THRMLTP =  0.00D+00
 THRCPQCI=  1.00D-10  KEXTA   =  0.00D+00  THRCOARS=  0.00D+00  SYMTOL  =  1.00D-06  GRADTOL =  1.00D-06  THROVL  =  1.00D-08
 THRORTH =  1.00D-08  GRID    =  1.00D-06  GRIDMAX =  1.00D-03  DTMAX   =  0.00D+00

 SETTING GEOMTYP        =    XYZ
 ZUNIT=BOHR
 

 Variable memory set to 1000000000 words,  buffer space   230000 words

 SETTING BASIS          =    AVDZ,H=VDZ


 Recomputing integrals since basis changed


 Using spherical harmonics

 Library entry C      S aug-cc-pVDZ          selected for orbital group  1
 Library entry C      P aug-cc-pVDZ          selected for orbital group  1
 Library entry C      D aug-cc-pVDZ          selected for orbital group  1
 Library entry H      S cc-pVDZ              selected for orbital group  2
 Library entry H      P cc-pVDZ              selected for orbital group  2

1PROGRAM * SEWARD (Integral evaluation for generally contracted gaussian basis sets)     Author: Roland Lindh, 1990

 Geometry written to block  1 of record 700


 Point group  C1  



 ATOMIC COORDINATES

 NR  ATOM    CHARGE       X              Y              Z

   1  C       6.00    0.000408557   -3.420871388   -0.000076228
   2  H       1.00   -0.973038135   -2.731593827   -1.685596132
   3  H       1.00   -0.973039684   -2.729091794    1.684417430
   4  H       1.00    1.945474580   -2.727766763   -0.000589922
   5  H       1.00    0.002229051   -5.485681874    0.001456771
   6  C       6.00    0.000780239    3.417502981    0.002132632
   7  H       1.00   -0.000291849    5.477314546    0.001896948
   8  H       1.00    0.966666617    2.733708042   -1.683851809
   9  H       1.00    0.972610547    2.734096557    1.684855826
  10  H       1.00   -1.941799924    2.732383520   -0.004645517

 Bond lengths in Bohr (Angstrom)

 1-2  2.064867881  1-3  2.064867881  1-4  2.064867094  1-5  2.064811858  6-7  2.059811858
     ( 1.092681022)     ( 1.092681022)     ( 1.092680606)     ( 1.092651376)     ( 1.090005490)

  6- 8  2.059867847   6- 9  2.059867916   6-10  2.059867061
       ( 1.090035118)       ( 1.090035155)       ( 1.090034702)

 Bond angles

  2-1-3  109.37992583   2-1-4  109.37980974   2-1-5  109.56240831   3-1-4  109.37980971

  3-1-5  109.56240831   4-1-5  109.56250042   7-6-8  109.39695135   7-6-9  109.39695145

  7- 6-10  109.39704345   8- 6- 9  109.71066658   8- 6-10  109.21435268   9- 6-10  109.71055070

 NUCLEAR CHARGE:                   20
 NUMBER OF PRIMITIVE AOS:         130
 NUMBER OF SYMMETRY AOS:          126
 NUMBER OF CONTRACTIONS:           86   (  86A   )
 NUMBER OF CORE ORBITALS:           2   (   2A   )
 NUMBER OF VALENCE ORBITALS:       16   (  16A   )


 NUCLEAR REPULSION ENERGY   41.31529743


 Eigenvalues of metric

         1 0.536E-02 0.666E-02 0.909E-02 0.115E-01 0.118E-01 0.118E-01 0.140E-01 0.141E-01


 Contracted 2-electron integrals neglected if value below      1.0D-16
 AO integral compression algorithm  1   Integral accuracy      1.0D-16

     57.147 MB (compressed) written to integral file ( 86.9%)

     Node minimum: 57.147 MB, node maximum: 57.147 MB


 NUMBER OF SORTED TWO-ELECTRON INTEGRALS:    6999411.     BUFFER LENGTH:  32768
 NUMBER OF SEGMENTS:   1  SEGMENT LENGTH:    6999411      RECORD LENGTH: 524288

 Memory used in sort:       7.56 MW

 SORT1 READ     8242194. AND WROTE     6847015. INTEGRALS IN     20 RECORDS. CPU TIME:     0.07 SEC, REAL TIME:     0.11 SEC
 SORT2 READ     6847015. AND WROTE     6999411. INTEGRALS IN    218 RECORDS. CPU TIME:     0.08 SEC, REAL TIME:     0.12 SEC

 FILE SIZES:   FILE 1:    51.8 MBYTE,  FILE 4:    83.9 MBYTE,   TOTAL:    135.7 MBYTE

 OPERATOR DM      FOR CENTER  0  COORDINATES:    0.000000    0.000000    0.000000


 **********************************************************************************************************************************
 DATASETS  * FILE   NREC   LENGTH (MB)   RECORD NAMES
              1      19       51.86       500      610      700      900      950      970     1000      129      960     1100   
                                          VAR    BASINP    GEOM    SYMINP    ZMAT    AOBASIS   BASIS     P2S    ABASIS      S 
                                         1400     1410     1200     1210     1080     1600     1650     1300     1700   
                                           T        V       H0       H01     AOSYM     SMH    MOLCAS    ERIS     OPER   

 PROGRAMS   *        TOTAL       INT
 CPU TIMES  *         0.74      0.69
 REAL TIME  *         1.01 SEC
 DISK USED  *       193.61 MB      
 GA USED    *         0.00 MB       (max)       0.00 MB       (current)
 **********************************************************************************************************************************

1PROGRAM * RHF-SCF (CLOSED SHELL)       Authors: W. Meyer, H.-J. Werner


 NUMBER OF ELECTRONS:      10+   10-    SPACE SYMMETRY=1    SPIN SYMMETRY: Singlet 
 CONVERGENCE THRESHOLDS:    1.00E-10 (Density)    1.00E-13 (Energy)
 MAX. NUMBER OF ITERATIONS:      200
 INTERPOLATION TYPE:            DIIS
 INTERPOLATION STEPS:              2 (START)      1 (STEP)
 LEVEL SHIFTS:                  0.00 (CLOSED)  0.00 (OPEN) 



 Orbital guess generated from atomic densities. Full valence occupancy:   18

 Molecular orbital dump at record        2100.2

 ITERATION    DDIFF          GRAD             ENERGY        2-EL.EN.            DIPOLE MOMENTS         DIIS
    1      0.000D+00      0.000D+00       -80.36129571    134.729409   -0.00090    0.00257   -0.00156    0
    2      0.000D+00      0.500D-02       -80.39312656    132.448186   -0.00022    0.00111   -0.00038    1
    3      0.106D-01      0.185D-02       -80.39706967    133.267964   -0.00035    0.00133   -0.00061    2
    4      0.346D-02      0.507D-03       -80.39765291    133.135140   -0.00030    0.00118   -0.00052    3
    5      0.114D-02      0.611D-04       -80.39766073    133.142545   -0.00030    0.00116   -0.00051    4
    6      0.162D-03      0.348D-05       -80.39766076    133.142381   -0.00030    0.00116   -0.00051    5
    7      0.156D-04      0.437D-06       -80.39766076    133.142372   -0.00030    0.00116   -0.00051    5
    8      0.116D-05      0.154D-06       -80.39766076    133.142370   -0.00030    0.00116   -0.00051    5
    9      0.294D-06      0.223D-07       -80.39766076    133.142370   -0.00030    0.00116   -0.00051    5
   10      0.541D-07      0.325D-08       -80.39766076    133.142371   -0.00030    0.00116   -0.00051    5
   11      0.992D-08      0.597D-09       -80.39766076    133.142370   -0.00030    0.00116   -0.00051    6
   12      0.131D-08      0.154D-09       -80.39766076    133.142370   -0.00030    0.00116   -0.00051    6
   13      0.390D-09      0.444D-10       -80.39766076    133.142370   -0.00030    0.00116   -0.00051    6
   14      0.111D-09      0.720D-11       -80.39766076    133.142370   -0.00030    0.00116   -0.00051    6
   15      0.184D-10      0.143D-11       -80.39766076    133.142370   -0.00030    0.00116   -0.00051    0

 Final occupancy:  10

 !RHF STATE 1.1 Energy                -80.397660762749
 Nuclear energy                        41.31529743
 One-electron energy                 -188.28414342
 Two-electron energy                   66.57118522
 Virial quotient                       -1.00231207
 !RHF STATE 1.1 Dipole moment          -0.00029601     0.00116022    -0.00051194
 Dipole moment /Debye                  -0.00075233     0.00294879    -0.00130113

 Orbital energies:

         1.1          2.1          3.1          4.1          5.1          6.1          7.1          8.1          9.1         10.1
    -11.216676   -11.215471    -0.944972    -0.938950    -0.550129    -0.546591    -0.545874    -0.539004    -0.538438    -0.534779

        11.1         12.1
      0.080182     0.084240


 **********************************************************************************************************************************
 DATASETS  * FILE   NREC   LENGTH (MB)   RECORD NAMES
              1      19       51.86       500      610      700      900      950      970     1000      129      960     1100   
                                          VAR    BASINP    GEOM    SYMINP    ZMAT    AOBASIS   BASIS     P2S    ABASIS      S 
                                         1400     1410     1200     1210     1080     1600     1650     1300     1700   
                                           T        V       H0       H01     AOSYM     SMH    MOLCAS    ERIS     OPER   

              2       3        0.57       700     1000     2100   
                                         GEOM     BASIS     RHF  

 PROGRAMS   *        TOTAL       RHF       INT
 CPU TIMES  *         1.58      0.84      0.69
 REAL TIME  *         1.96 SEC
 DISK USED  *       193.61 MB      
 GA USED    *         0.00 MB       (max)       0.00 MB       (current)
 **********************************************************************************************************************************


1PROGRAM * CCSD (Closed-shell coupled cluster)     Authors: C. Hampel, H.-J. Werner, 1991, M. Deegan, P.J. Knowles, 1992


 Convergence thresholds:  THRVAR = 1.00D-08  THRDEN = 1.00D-12

 CCSD(T)     terms to be evaluated (factor= 1.000)


 Number of core orbitals:           2 (   2 )
 Number of closed-shell orbitals:   8 (   8 )
 Number of external orbitals:      76 (  76 )

 Molecular orbitals read from record     2100.2  Type=RHF/CANONICAL (state 1.1)

 Number of N-1 electron functions:               8
 Number of N-2 electron functions:              36
 Number of singly external CSFs:               608
 Number of doubly external CSFs:            185136
 Total number of CSFs:                      185745

 Length of J-op  integral file:               0.00 MB
 Length of K-op  integral file:               0.54 MB
 Length of 3-ext integral record:             0.00 MB

 Memory could be reduced to 5.45 Mwords without degradation in triples

 Integral transformation finished. Total CPU:   0.21 sec, npass=  1  Memory used:   3.53 MW

 Reference energy:                    -80.39766076

 MP2 singlet pair energy:              -0.23833972
 MP2 triplet pair energy:              -0.09579230
 MP2 correlation energy:               -0.33413202
 MP2 total energy:                    -80.73179278

 SCS-MP2 correlation energy:           -0.34561176   (PS=  1.200000  PT=  0.333333)
 SCS-MP2 total energy:                -80.74327253

 ITER.      SQ.NORM     CORR.ENERGY   TOTAL ENERGY   ENERGY CHANGE        DEN1      VAR(S)    VAR(P)  DIIS     TIME
   1      1.14009885    -0.37827896   -80.77593972    -0.04414694    -0.03298056  0.68D-03  0.24D-02  1  1     0.50
   2      1.15328991    -0.38108232   -80.77874308    -0.00280336    -0.01283508  0.15D-04  0.11D-03  2  2     0.82
   3      1.15537293    -0.38122196   -80.77888272    -0.00013963    -0.00108389  0.24D-05  0.62D-05  3  3     1.14
   4      1.15580435    -0.38123965   -80.77890041    -0.00001770    -0.00017482  0.60D-07  0.37D-06  4  4     1.45
   5      1.15586537    -0.38123569   -80.77889645     0.00000397    -0.00002832  0.29D-08  0.21D-07  5  5     1.76
   6      1.15586762    -0.38123505   -80.77889581     0.00000064    -0.00000062  0.20D-09  0.15D-08  6  6     2.08
   7      1.15586780    -0.38123533   -80.77889609    -0.00000028     0.00000004  0.15D-10  0.97D-10  6  1     2.39
   8      1.15586785    -0.38123534   -80.77889610    -0.00000001    -0.00000009  0.18D-11  0.65D-11  6  2     2.70
   9      1.15586777    -0.38123534   -80.77889610     0.00000000     0.00000002  0.38D-12  0.45D-12  6  4     3.02
  10      1.15586776    -0.38123534   -80.77889610    -0.00000000    -0.00000000  0.30D-13  0.34D-13  6  3     3.34
  11      1.15586775    -0.38123534   -80.77889610    -0.00000000     0.00000000  0.25D-14  0.30D-14  6  5     3.65
  12      1.15586774    -0.38123534   -80.77889610    -0.00000000     0.00000000  0.20D-15  0.32D-15  6  6     3.96
  13      1.15586774    -0.38123534   -80.77889610    -0.00000000     0.00000000  0.12D-16  0.40D-16  6  1     4.28
  14      1.15586774    -0.38123534   -80.77889610    -0.00000000     0.00000000  0.16D-17  0.50D-17  6  2     4.59
  15      1.15586774    -0.38123534   -80.77889610    -0.00000000     0.00000000  0.11D-18  0.53D-18  6  4     4.91
  16      1.15586774    -0.38123534   -80.77889610    -0.00000000     0.00000000  0.11D-19  0.45D-19  6  3     5.23
  17      1.15586774    -0.38123534   -80.77889610     0.00000000    -0.00000000  0.22D-21  0.39D-20  6  6     5.54
  18      1.15586774    -0.38123534   -80.77889610     0.00000000    -0.00000000  0.35D-22  0.83D-22  6  5     5.86

 Norm of t1 vector:      0.03880576      S-energy:    -0.00000000      T1 diagnostic:  0.00685995
                                                                       D1 diagnostic:  0.01215952


 Total CPU time for triples:      2.78 sec


 RESULTS
 =======

  Reference energy                    -80.397660762749
  CCSD singlet pair energy             -0.287984185520
  CCSD triplet pair energy             -0.093251154515
  CCSD correlation energy              -0.381235340036

  Triples (T) contribution             -0.008805371530
  Total correlation energy             -0.390040711566

  CCSD total energy                   -80.778896102785
  CCSD[T] energy                      -80.787917156677
  CCSD-T energy                       -80.787588937759
 !CCSD(T) total energy                -80.787701474315

 Timing summary (sec):

 STEP                 CPU(USER)    SYS     CPU(TOT)    WALL
 Transformation          0.22      0.03      0.25      0.25
 CCSD iterations         5.64      0.26      5.90      5.93
 Triples                 2.78      0.05      2.83      2.85

 Program statistics:

 Available memory in ccsd:               999999644
 Min. memory needed in ccsd:                591289
 Max. memory used in ccsd:                  742713
 Max. memory used in cckext:                619606 (18 integral passes)



 **********************************************************************************************************************************
 DATASETS  * FILE   NREC   LENGTH (MB)   RECORD NAMES
              1      20       69.45       500      610      700      900      950      970     1000      129      960     1100   
                                          VAR    BASINP    GEOM    SYMINP    ZMAT    AOBASIS   BASIS     P2S    ABASIS      S 
                                         1400     1410     1200     1210     1080     1600     1650     1300     1700     1380   
                                           T        V       H0       H01     AOSYM     SMH    MOLCAS    ERIS     OPER     JKOP   

              2       3        0.57       700     1000     2100   
                                         GEOM     BASIS     RHF  

 PROGRAMS   *        TOTAL   CCSD(T)       RHF       INT
 CPU TIMES  *        10.23      8.65      0.84      0.69
 REAL TIME  *        11.02 SEC
 DISK USED  *       193.61 MB      
 GA USED    *         0.00 MB       (max)       0.00 MB       (current)
 **********************************************************************************************************************************

        CCSD(T)         RHF-SCF 
    -80.78770147    -80.39766076
 **********************************************************************************************************************************
 Variable memory released
