
 Primary working directories    : /tmp/917047.578.gen4.q
 Secondary working directories  : /tmp/917047.578.gen4.q
 Wavefunction directory         : /home/vulcan/lo21740/wfu/
 Main file repository           : /tmp/917047.578.gen4.q/

 ARCHNAME  : Linux/x86_64
 FC        : /opt/intel/compilers_and_libraries_2016.1.150/linux/bin/intel64/ifort
 FCVERSION : 16.0.1
 BLASLIB   : -mkl
 id        : ccgc

 Nodes     nprocs
 n062         1
 ga_uses_ma=false, calling ma_init with nominal heap.
 GA-space will be limited to   8.0 MW (determined by -G option)

 Using customized tuning parameters: mindgm=10; mindgv=16; mindgc=4; mindgr=1; noblas=0; mincuda=1000; minvec=7
 default implementation of scratch files=df  

 ***,Optimization of h2o_2
 memory,1000,m
 gthresh,energy=1.0d-12,orbital=1.0d-10,oneint=1.0d-16,twoint=1.0d-16,optgrad=1.0d-6,compress=1.0d-13
 geomtyp=xyz
 
 bohr
 geometry = {
  C    0.0001105357   -3.4193876892   -0.0000136536
  H   -0.9704761103   -2.7300506685   -1.6810346889
  H   -0.9704761900   -2.7295925605    1.6808194063
  H    1.9409713684   -2.7293792349   -0.0001076326
  H    0.0004214926   -5.4791995045    0.0002670297
  C    0.0020508865    3.4132748714    0.0003902823
  H   -0.0078374869    5.4730629932    0.0003503712
  H    0.9732984183    2.7338043996   -1.6842621437
  H    0.9743868476    2.7338748982    1.6844431741
  H   -1.9424497618    2.7335924951   -0.0008521447
 }
 
 basis=AVDZ, H=VDZ
 {rhf;maxit,200}
 {ccsd(t);maxit,200}

 Variables initialized (661), CPU time= 0.00 sec
 Commands  initialized (458), CPU time= 0.00 sec, 486 directives.
 Default parameters read. Elapsed time= 0.04 sec

 Checking input...
 Passed
1


                                         ***  PROGRAM SYSTEM MOLPRO  ***
                         Copyright, University College Cardiff Consultants Limited, 2008

                                    Version 2010.1 linked May 16 2016 07:17:05


 **********************************************************************************************************************************
 LABEL *   Optimization of h2o_2                                                         
 Linux-4.4.3/n062(x86_64) 64 bit mpp version                                             DATE: 20-Jul-23          TIME: 13:31:12  
 **********************************************************************************************************************************

 SHA1:             9e8077add272b0f3cad6f7df79ec5211205f459d
 **********************************************************************************************************************************

 THRESHOLDS:

 ZERO    =  1.00D-12  ONEINT  =  1.00D-16  TWOINT  =  1.00D-16  PREFAC  =  1.00D-14  LOCALI  =  1.00D-09  EORDER  =  1.00D-04
 ENERGY  =  1.00D-12  ETEST   =  0.00D+00  EDENS   =  0.00D+00  THRDEDEF=  1.00D-06  GRADIENT=  1.00D-02  STEP    =  1.00D-03
 ORBITAL =  1.00D-10  CIVEC   =  1.00D-05  COEFF   =  1.00D-04  PRINTCI =  5.00D-02  PUNCHCI =  9.90D+01  OPTGRAD =  1.00D-06
 OPTENERG=  1.00D-06  OPTSTEP =  3.00D-04  THRGRAD =  1.00D-10  COMPRESS=  1.00D-13  VARMIN  =  1.00D-07  VARMAX  =  1.00D-03
 THRDOUB =  0.00D+00  THRDIV  =  1.00D-05  THRRED  =  1.00D-07  THRPSP  =  1.00D+00  THRDC   =  1.00D-10  THRCS   =  1.00D-10
 THRNRM  =  1.00D-08  THREQ   =  0.00D+00  THRDE   =  1.00D+00  THRREF  =  1.00D-05  SPARFAC =  1.00D+00  THRDLP  =  1.00D-07
 THRDIA  =  1.00D-10  THRDLS  =  1.00D-07  THRGPS  =  0.00D+00  THRKEX  =  0.00D+00  THRDIS  =  2.00D-01  THRVAR  =  1.00D-10
 THRLOC  =  1.00D-06  THRGAP  =  1.00D-06  THRLOCT = -1.00D+00  THRGAPT = -1.00D+00  THRORB  =  1.00D-06  THRMLTP =  0.00D+00
 THRCPQCI=  1.00D-10  KEXTA   =  0.00D+00  THRCOARS=  0.00D+00  SYMTOL  =  1.00D-06  GRADTOL =  1.00D-06  THROVL  =  1.00D-08
 THRORTH =  1.00D-08  GRID    =  1.00D-06  GRIDMAX =  1.00D-03  DTMAX   =  0.00D+00

 SETTING GEOMTYP        =    XYZ
 ZUNIT=BOHR
 

 Variable memory set to 1000000000 words,  buffer space   230000 words

 SETTING BASIS          =    AVDZ,H=VDZ


 Recomputing integrals since basis changed


 Using spherical harmonics

 Library entry C      S aug-cc-pVDZ          selected for orbital group  1
 Library entry C      P aug-cc-pVDZ          selected for orbital group  1
 Library entry C      D aug-cc-pVDZ          selected for orbital group  1
 Library entry H      S cc-pVDZ              selected for orbital group  2
 Library entry H      P cc-pVDZ              selected for orbital group  2

1PROGRAM * SEWARD (Integral evaluation for generally contracted gaussian basis sets)     Author: Roland Lindh, 1990

 Geometry written to block  1 of record 700


 Point group  C1  



 ATOMIC COORDINATES

 NR  ATOM    CHARGE       X              Y              Z

   1  C       6.00    0.000110536   -3.419387689   -0.000013654
   2  H       1.00   -0.970476110   -2.730050669   -1.681034689
   3  H       1.00   -0.970476190   -2.729592560    1.680819406
   4  H       1.00    1.940971368   -2.729379235   -0.000107633
   5  H       1.00    0.000421493   -5.479199505    0.000267030
   6  C       6.00    0.002050887    3.413274871    0.000390282
   7  H       1.00   -0.007837487    5.473062993    0.000350371
   8  H       1.00    0.973298418    2.733804400   -1.684262144
   9  H       1.00    0.974386848    2.733874898    1.684443174
  10  H       1.00   -1.942449762    2.733592495   -0.000852145

 Bond lengths in Bohr (Angstrom)

 1-2  2.059867881  1-3  2.059867881  1-4  2.059867095  1-5  2.059811858  6-7  2.059811857
     ( 1.090035136)     ( 1.090035136)     ( 1.090034720)     ( 1.090005490)     ( 1.090005490)

  6- 8  2.059867881   6- 9  2.059867881   6-10  2.059867095
       ( 1.090035136)       ( 1.090035136)       ( 1.090034720)

 Bond angles

  2-1-3  109.37992579   2-1-4  109.37980975   2-1-5  109.56240831   3-1-4  109.37980975

  3-1-5  109.56240831   4-1-5  109.56250040   7-6-8  109.39659526   7-6-9  109.39659525

  7- 6-10  108.99154499   8- 6- 9  109.71030878   8- 6-10  109.61913908   9- 6-10  109.71019274

 NUCLEAR CHARGE:                   20
 NUMBER OF PRIMITIVE AOS:         130
 NUMBER OF SYMMETRY AOS:          126
 NUMBER OF CONTRACTIONS:           86   (  86A   )
 NUMBER OF CORE ORBITALS:           2   (   2A   )
 NUMBER OF VALENCE ORBITALS:       16   (  16A   )


 NUCLEAR REPULSION ENERGY   41.35664825


 Eigenvalues of metric

         1 0.534E-02 0.665E-02 0.906E-02 0.114E-01 0.117E-01 0.117E-01 0.140E-01 0.140E-01


 Contracted 2-electron integrals neglected if value below      1.0D-16
 AO integral compression algorithm  1   Integral accuracy      1.0D-16

     56.623 MB (compressed) written to integral file ( 85.9%)

     Node minimum: 56.623 MB, node maximum: 56.623 MB


 NUMBER OF SORTED TWO-ELECTRON INTEGRALS:    6999411.     BUFFER LENGTH:  32768
 NUMBER OF SEGMENTS:   1  SEGMENT LENGTH:    6999411      RECORD LENGTH: 524288

 Memory used in sort:       7.56 MW

 SORT1 READ     8242194. AND WROTE     6840206. INTEGRALS IN     20 RECORDS. CPU TIME:     0.07 SEC, REAL TIME:     0.12 SEC
 SORT2 READ     6840206. AND WROTE     6999411. INTEGRALS IN    216 RECORDS. CPU TIME:     0.09 SEC, REAL TIME:     0.11 SEC

 FILE SIZES:   FILE 1:    51.3 MBYTE,  FILE 4:    83.9 MBYTE,   TOTAL:    135.2 MBYTE

 OPERATOR DM      FOR CENTER  0  COORDINATES:    0.000000    0.000000    0.000000


 **********************************************************************************************************************************
 DATASETS  * FILE   NREC   LENGTH (MB)   RECORD NAMES
              1      19       51.36       500      610      700      900      950      970     1000      129      960     1100   
                                          VAR    BASINP    GEOM    SYMINP    ZMAT    AOBASIS   BASIS     P2S    ABASIS      S 
                                         1400     1410     1200     1210     1080     1600     1650     1300     1700   
                                           T        V       H0       H01     AOSYM     SMH    MOLCAS    ERIS     OPER   

 PROGRAMS   *        TOTAL       INT
 CPU TIMES  *         0.74      0.70
 REAL TIME  *         1.02 SEC
 DISK USED  *       192.59 MB      
 GA USED    *         0.00 MB       (max)       0.00 MB       (current)
 **********************************************************************************************************************************

1PROGRAM * RHF-SCF (CLOSED SHELL)       Authors: W. Meyer, H.-J. Werner


 NUMBER OF ELECTRONS:      10+   10-    SPACE SYMMETRY=1    SPIN SYMMETRY: Singlet 
 CONVERGENCE THRESHOLDS:    1.00E-10 (Density)    1.00E-13 (Energy)
 MAX. NUMBER OF ITERATIONS:      200
 INTERPOLATION TYPE:            DIIS
 INTERPOLATION STEPS:              2 (START)      1 (STEP)
 LEVEL SHIFTS:                  0.00 (CLOSED)  0.00 (OPEN) 



 Orbital guess generated from atomic densities. Full valence occupancy:   18

 Molecular orbital dump at record        2100.2

 ITERATION    DDIFF          GRAD             ENERGY        2-EL.EN.            DIPOLE MOMENTS         DIIS
    1      0.000D+00      0.000D+00       -80.36117642    134.812996   -0.00165    0.00484   -0.00028    0
    2      0.000D+00      0.502D-02       -80.39312261    132.522001   -0.00054    0.00202   -0.00007    1
    3      0.106D-01      0.186D-02       -80.39707809    133.343488   -0.00078    0.00242   -0.00011    2
    4      0.347D-02      0.508D-03       -80.39766182    133.211066   -0.00070    0.00215   -0.00009    3
    5      0.114D-02      0.611D-04       -80.39766964    133.218449   -0.00069    0.00211   -0.00009    4
    6      0.162D-03      0.345D-05       -80.39766967    133.218283   -0.00069    0.00211   -0.00009    5
    7      0.156D-04      0.268D-06       -80.39766967    133.218272   -0.00069    0.00211   -0.00009    5
    8      0.869D-06      0.487D-07       -80.39766967    133.218272   -0.00069    0.00211   -0.00009    4
    9      0.116D-06      0.855D-08       -80.39766967    133.218273   -0.00069    0.00211   -0.00009    4
   10      0.234D-07      0.190D-08       -80.39766967    133.218273   -0.00069    0.00211   -0.00009    5
   11      0.470D-08      0.426D-09       -80.39766967    133.218273   -0.00069    0.00211   -0.00009    5
   12      0.927D-09      0.112D-09       -80.39766967    133.218273   -0.00069    0.00211   -0.00009    6
   13      0.326D-09      0.221D-10       -80.39766967    133.218273   -0.00069    0.00211   -0.00009    6
   14      0.543D-10      0.507D-11       -80.39766967    133.218273   -0.00069    0.00211   -0.00009    6
   15      0.190D-10      0.115D-11       -80.39766967    133.218273   -0.00069    0.00211   -0.00009    6
   16      0.266D-11      0.194D-12       -80.39766967    133.218273   -0.00069    0.00211   -0.00009    6
   17      0.710D-12      0.372D-13       -80.39766967    133.218273   -0.00069    0.00211   -0.00009    6
   18      0.128D-12      0.142D-13       -80.39766967    133.218273   -0.00069    0.00211   -0.00009    6
   19      0.736D-13      0.101D-13       -80.39766967    133.218273   -0.00069    0.00211   -0.00009    0

 Final occupancy:  10

 !RHF STATE 1.1 Energy                -80.397669673516
 Nuclear energy                        41.35664825
 One-electron energy                 -188.36345448
 Two-electron energy                   66.60913656
 Virial quotient                       -1.00212390
 !RHF STATE 1.1 Dipole moment          -0.00069345     0.00210899    -0.00009293
 Dipole moment /Debye                  -0.00176246     0.00536016    -0.00023618

 Orbital energies:

         1.1          2.1          3.1          4.1          5.1          6.1          7.1          8.1          9.1         10.1
    -11.215479   -11.215393    -0.945455    -0.939537    -0.550247    -0.546710    -0.546575    -0.539265    -0.539160    -0.534769

        11.1         12.1
      0.080164     0.084219


 **********************************************************************************************************************************
 DATASETS  * FILE   NREC   LENGTH (MB)   RECORD NAMES
              1      19       51.36       500      610      700      900      950      970     1000      129      960     1100   
                                          VAR    BASINP    GEOM    SYMINP    ZMAT    AOBASIS   BASIS     P2S    ABASIS      S 
                                         1400     1410     1200     1210     1080     1600     1650     1300     1700   
                                           T        V       H0       H01     AOSYM     SMH    MOLCAS    ERIS     OPER   

              2       3        0.57       700     1000     2100   
                                         GEOM     BASIS     RHF  

 PROGRAMS   *        TOTAL       RHF       INT
 CPU TIMES  *         1.83      1.09      0.70
 REAL TIME  *         2.23 SEC
 DISK USED  *       192.59 MB      
 GA USED    *         0.00 MB       (max)       0.00 MB       (current)
 **********************************************************************************************************************************


1PROGRAM * CCSD (Closed-shell coupled cluster)     Authors: C. Hampel, H.-J. Werner, 1991, M. Deegan, P.J. Knowles, 1992


 Convergence thresholds:  THRVAR = 1.00D-08  THRDEN = 1.00D-12

 CCSD(T)     terms to be evaluated (factor= 1.000)


 Number of core orbitals:           2 (   2 )
 Number of closed-shell orbitals:   8 (   8 )
 Number of external orbitals:      76 (  76 )

 Molecular orbitals read from record     2100.2  Type=RHF/CANONICAL (state 1.1)

 Number of N-1 electron functions:               8
 Number of N-2 electron functions:              36
 Number of singly external CSFs:               608
 Number of doubly external CSFs:            185136
 Total number of CSFs:                      185745

 Length of J-op  integral file:               0.00 MB
 Length of K-op  integral file:               0.54 MB
 Length of 3-ext integral record:             0.00 MB

 Memory could be reduced to 5.45 Mwords without degradation in triples

 Integral transformation finished. Total CPU:   0.21 sec, npass=  1  Memory used:   3.53 MW

 Reference energy:                    -80.39766967

 MP2 singlet pair energy:              -0.23821801
 MP2 triplet pair energy:              -0.09579334
 MP2 correlation energy:               -0.33401136
 MP2 total energy:                    -80.73168103

 SCS-MP2 correlation energy:           -0.34546636   (PS=  1.200000  PT=  0.333333)
 SCS-MP2 total energy:                -80.74313603

 ITER.      SQ.NORM     CORR.ENERGY   TOTAL ENERGY   ENERGY CHANGE        DEN1      VAR(S)    VAR(P)  DIIS     TIME
   1      1.13988620    -0.37812831   -80.77579799    -0.04411696    -0.03297169  0.68D-03  0.24D-02  1  1     0.51
   2      1.15302904    -0.38092163   -80.77859131    -0.00279332    -0.01280928  0.15D-04  0.11D-03  2  2     0.83
   3      1.15509972    -0.38105981   -80.77872949    -0.00013818    -0.00107860  0.24D-05  0.62D-05  3  3     1.14
   4      1.15552791    -0.38107745   -80.77874712    -0.00001763    -0.00017347  0.60D-07  0.37D-06  4  4     1.45
   5      1.15558848    -0.38107349   -80.77874317     0.00000395    -0.00002810  0.29D-08  0.21D-07  5  5     1.77
   6      1.15559073    -0.38107285   -80.77874252     0.00000064    -0.00000061  0.19D-09  0.15D-08  6  6     2.09
   7      1.15559089    -0.38107313   -80.77874280    -0.00000028     0.00000005  0.15D-10  0.95D-10  6  1     2.39
   8      1.15559095    -0.38107314   -80.77874281    -0.00000001    -0.00000009  0.18D-11  0.64D-11  6  2     2.71
   9      1.15559087    -0.38107314   -80.77874281     0.00000000     0.00000002  0.37D-12  0.44D-12  6  4     3.02
  10      1.15559086    -0.38107314   -80.77874281    -0.00000000    -0.00000000  0.29D-13  0.33D-13  6  3     3.33
  11      1.15559085    -0.38107314   -80.77874281    -0.00000000     0.00000000  0.24D-14  0.30D-14  6  5     3.65
  12      1.15559085    -0.38107314   -80.77874281    -0.00000000     0.00000000  0.20D-15  0.31D-15  6  6     3.96
  13      1.15559084    -0.38107314   -80.77874281    -0.00000000     0.00000000  0.12D-16  0.39D-16  6  1     4.28
  14      1.15559084    -0.38107314   -80.77874281    -0.00000000     0.00000000  0.16D-17  0.49D-17  6  2     4.60
  15      1.15559084    -0.38107314   -80.77874281    -0.00000000     0.00000000  0.11D-18  0.51D-18  6  4     4.91
  16      1.15559084    -0.38107314   -80.77874281    -0.00000000     0.00000000  0.11D-19  0.44D-19  6  3     5.23
  17      1.15559084    -0.38107314   -80.77874281     0.00000000    -0.00000000  0.20D-21  0.38D-20  6  6     5.55
  18      1.15559084    -0.38107314   -80.77874281     0.00000000    -0.00000000  0.33D-22  0.79D-22  6  5     5.86

 Norm of t1 vector:      0.03875877      S-energy:    -0.00000000      T1 diagnostic:  0.00685165
                                                                       D1 diagnostic:  0.01215417


 Total CPU time for triples:      2.79 sec


 RESULTS
 =======

  Reference energy                    -80.397669673516
  CCSD singlet pair energy             -0.287794447495
  CCSD triplet pair energy             -0.093278693440
  CCSD correlation energy              -0.381073140935

  Triples (T) contribution             -0.008789101275
  Total correlation energy             -0.389862242209

  CCSD total energy                   -80.778742814451
  CCSD[T] energy                      -80.787746551762
  CCSD-T energy                       -80.787419849889
 !CCSD(T) total energy                -80.787531915725

 Timing summary (sec):

 STEP                 CPU(USER)    SYS     CPU(TOT)    WALL
 Transformation          0.22      0.03      0.25      0.25
 CCSD iterations         5.64      0.29      5.93      5.96
 Triples                 2.79      0.06      2.85      2.85

 Program statistics:

 Available memory in ccsd:               999999644
 Min. memory needed in ccsd:                591289
 Max. memory used in ccsd:                  742713
 Max. memory used in cckext:                619606 (18 integral passes)



 **********************************************************************************************************************************
 DATASETS  * FILE   NREC   LENGTH (MB)   RECORD NAMES
              1      20       68.95       500      610      700      900      950      970     1000      129      960     1100   
                                          VAR    BASINP    GEOM    SYMINP    ZMAT    AOBASIS   BASIS     P2S    ABASIS      S 
                                         1400     1410     1200     1210     1080     1600     1650     1300     1700     1380   
                                           T        V       H0       H01     AOSYM     SMH    MOLCAS    ERIS     OPER     JKOP   

              2       3        0.57       700     1000     2100   
                                         GEOM     BASIS     RHF  

 PROGRAMS   *        TOTAL   CCSD(T)       RHF       INT
 CPU TIMES  *        10.49      8.66      1.09      0.70
 REAL TIME  *        11.32 SEC
 DISK USED  *       192.59 MB      
 GA USED    *         0.00 MB       (max)       0.00 MB       (current)
 **********************************************************************************************************************************

        CCSD(T)         RHF-SCF 
    -80.78753192    -80.39766967
 **********************************************************************************************************************************
 Variable memory released
