
    -----------------------------------------------------------------------
          Psi4: An Open-Source Ab Initio Electronic Structure Package
                               Psi4 1.4a2.dev629 

                         Git: Rev {master} 2938fc2 dirty


    D. G. A. Smith, L. A. Burns, A. C. Simmonett, R. M. Parrish,
    M. C. Schieber, R. Galvelis, P. Kraus, H. Kruse, R. Di Remigio,
    A. Alenaizan, A. M. James, S. Lehtola, J. P. Misiewicz, M. Scheurer,
    R. A. Shaw, J. B. Schriber, Y. Xie, Z. L. Glick, D. A. Sirianni,
    J. S. O'Brien, J. M. Waldrop, A. Kumar, E. G. Hohenstein,
    B. P. Pritchard, B. R. Brooks, H. F. Schaefer III, A. Yu. Sokolov,
    K. Patkowski, A. E. DePrince III, U. Bozkaya, R. A. King,
    F. A. Evangelista, J. M. Turney, T. D. Crawford, C. D. Sherrill,
    J. Chem. Phys. 152(18) 184108 (2020). https://doi.org/10.1063/5.0006002

                            Additional Code Authors
    E. T. Seidl, C. L. Janssen, E. F. Valeev, M. L. Leininger,
    J. F. Gonthier, R. M. Richard, H. R. McAlexander, M. Saitow, X. Wang,
    P. Verma, and M. H. Lechner

             Previous Authors, Complete List of Code Contributors,
                       and Citations for Specific Modules
    https://github.com/psi4/psi4/blob/master/codemeta.json
    https://github.com/psi4/psi4/graphs/contributors
    http://psicode.org/psi4manual/master/introduction.html#citing-psifour

    -----------------------------------------------------------------------


    Psi4 started on: Sunday, 14 November 2021 01:57PM

    Process ID: 2309
    Host:       n085
    PSIDATADIR: /opt/psi/4/master/share/psi4
    Memory:     500.0 MiB
    Threads:    4
    
  ==> Input File <==

--------------------------------------------------------------------------
import os
memory 14 GB 
 
molecule {
 O    0.0000000000   -0.0020825990   -2.1476768781
 C   -0.0000000000    2.0653627134   -0.6003229420
 C    0.0000000000   -2.0644759859   -0.6042155527
 C   -0.0000000000   -1.3539390436    1.8716517646
 C    0.0000000000    1.3586554464    1.8756252632
 H   -0.0000000000    3.8738112104   -1.5412945476
 H    0.0000000000   -3.8733008289   -1.5401479371
 H   -0.0000000000   -2.6075547926    3.4827694530
 H    0.0000000000    2.6035238799    3.4785205867
units bohr
}

basis {

assign 6-31g_2dfp_

[ 6-31g_2dfp_ ]

spherical

!----------------------------------------------------------------------
! Basis Set Exchange
! Version v0.8.13
! https://www.basissetexchange.org
!----------------------------------------------------------------------
!   Basis set: 6-31G(2df,p)
! Description: 6-31G(2df,p)
!        Role: orbital
!     Version: 0  (Data from the original Basis Set Exchange)
!----------------------------------------------------------------------


****
H     0
S    3   1.00
     18.7311370              0.03349460
      2.8253937              0.23472695
      0.6401217              0.81375733
S    1   1.00
      0.1612778              1.00000000
P    1   1.00
      1.5000000              1.0000000
P    1   1.00
      0.3750000              1.0000000
****
B     0
S    6   1.00
   2068.8823000              0.0018663
    310.6495700              0.0142515
     70.6830330              0.0695516
     19.8610800              0.2325729
      6.2993048              0.4670787
      2.1270270              0.3634314
SP   3   1.00
      4.7279710             -0.1303938              0.0745976
      1.1903377             -0.1307889              0.3078467
      0.3594117              1.1309444              0.7434568
SP   1   1.00
      0.1267512              1.0000000              1.0000000
D    1   1.00
      0.8020000              1.0000000
D    1   1.00
      0.2005000              1.0000000
F    1   1.00
      0.5000000              1.0000000
****
C     0
S    6   1.00
   3047.5249000              0.0018347
    457.3695100              0.0140373
    103.9486900              0.0688426
     29.2101550              0.2321844
      9.2866630              0.4679413
      3.1639270              0.3623120
SP   3   1.00
      7.8682724             -0.1193324              0.0689991
      1.8812885             -0.1608542              0.3164240
      0.5442493              1.1434564              0.7443083
SP   1   1.00
      0.1687144              1.0000000              1.0000000
D    1   1.00
      1.2520000              1.0000000
D    1   1.00
      0.3130000              1.0000000
F    1   1.00
      0.8000000              1.0000000
****
N     0
S    6   1.00
   4173.5110000              0.0018348
    627.4579000              0.0139950
    142.9021000              0.0685870
     40.2343300              0.2322410
     12.8202100              0.4690700
      4.3904370              0.3604550
SP   3   1.00
     11.6263580             -0.1149610              0.0675800
      2.7162800             -0.1691180              0.3239070
      0.7722180              1.1458520              0.7408950
SP   1   1.00
      0.2120313              1.0000000              1.0000000
D    1   1.00
      1.8260000              1.0000000
D    1   1.00
      0.4565000              1.0000000
F    1   1.00
      1.0000000              1.0000000
****
O     0
S    6   1.00
   5484.6717000              0.0018311
    825.2349500              0.0139501
    188.0469600              0.0684451
     52.9645000              0.2327143
     16.8975700              0.4701930
      5.7996353              0.3585209
SP   3   1.00
     15.5396160             -0.1107775              0.0708743
      3.5999336             -0.1480263              0.3397528
      1.0137618              1.1307670              0.7271586
SP   1   1.00
      0.2700058              1.0000000              1.0000000
D    1   1.00
      2.5840000              1.0000000
D    1   1.00
      0.6460000              1.0000000
F    1   1.00
      1.4000000              1.0000000
****
F     0
S    6   1.00
   7001.7130900              0.0018196169
   1051.3660900              0.0139160796
    239.2856900              0.0684053245
     67.3974453              0.233185760
     21.5199573              0.471267439
      7.40310130             0.356618546
SP   3   1.00
     20.8479528             -0.108506975            0.0716287243
      4.80830834            -0.146451658            0.3459121030
      1.34406986             1.128688580            0.7224699570
SP   1   1.00
      0.358151393            1.0000000              1.0000000
D    1   1.00
      3.5000000              1.0000000
D    1   1.00
      0.8750000              1.0000000
F    1   1.00
      1.8500000              1.0000000
****
Al     0
S    6   1.00
  13983.1000000              0.00194267
   2098.7500000              0.0148599
    477.7050000              0.0728494
    134.3600000              0.2468300
     42.8709000              0.4872580
     14.5189000              0.3234960
SP   6   1.00
    239.6680000             -0.00292619             0.00460285
     57.4419000             -0.0374080              0.0331990
     18.2859000             -0.1144870              0.1362820
      6.5991400              0.1156350              0.3304760
      2.4904900              0.6125950              0.4491460
      0.9445400              0.3937990              0.2657040
SP   3   1.00
      1.2779000             -0.2276060             -0.0175130
      0.3975900              0.00144583             0.2445330
      0.1600950              1.0927900              0.8049340
SP   1   1.00
      0.0556577              1.0000000              1.0000000
D    1   1.00
      0.6500000              1.0000000
D    1   1.00
      0.1625000              1.0000000
F    1   1.00
      0.2500000              1.0000000
****
Si     0
S    6   1.00
  16115.9000000              0.00195948
   2425.5800000              0.01492880
    553.8670000              0.07284780
    156.3400000              0.24613000
     50.0683000              0.48591400
     17.0178000              0.32500200
SP   6   1.00
    292.7180000             -0.00278094             0.00443826
     69.8731000             -0.03571460             0.03266790
     22.3363000             -0.11498500             0.13472100
      8.1503900              0.09356340             0.32867800
      3.1345800              0.60301700             0.44964000
      1.2254300              0.41895900             0.26137200
SP   3   1.00
      1.7273800             -0.24463000            -0.01779510
      0.5729220              0.00431572             0.25353900
      0.2221920              1.09818000             0.80066900
SP   1   1.00
      0.0778369              1.00000000             1.00000000
D    1   1.00
      0.9000000              1.0000000
D    1   1.00
      0.2250000              1.0000000
F    1   1.00
      0.3200000              1.0000000
****
P     0
S    6   1.00
  19413.3000000              0.0018516
   2909.4200000              0.0142062
    661.3640000              0.0699995
    185.7590000              0.2400790
     59.1943000              0.4847620
     20.0310000              0.3352000
SP   6   1.00
    339.4780000             -0.00278217             0.00456462
     81.0101000             -0.0360499              0.03369360
     25.8780000             -0.1166310              0.13975500
      9.4522100              0.0968328              0.33936200
      3.6656600              0.6144180              0.45092100
      1.4674600              0.4037980              0.23858600
SP   3   1.00
      2.1562300             -0.2529230             -0.01776530
      0.7489970              0.0328517              0.27405800
      0.2831450              1.0812500              0.78542100
SP   1   1.00
      0.0998317              1.0000000              1.00000000
D    1   1.00
      1.1000000              1.0000000
D    1   1.00
      0.2750000              1.0000000
F    1   1.00
      0.4500000              1.0000000
****
S     0
S    6   1.00
  21917.1000000              0.0018690
   3301.4900000              0.0142300
    754.1460000              0.0696960
    212.7110000              0.2384870
     67.9896000              0.4833070
     23.0515000              0.3380740
SP   6   1.00
    423.7350000             -0.0023767              0.0040610
    100.7100000             -0.0316930              0.0306810
     32.1599000             -0.1133170              0.1304520
     11.8079000              0.0560900              0.3272050
      4.6311000              0.5922550              0.4528510
      1.8702500              0.4550060              0.2560420
SP   3   1.00
      2.6158400             -0.2503740             -0.0145110
      0.9221670              0.0669570              0.3102630
      0.3412870              1.0545100              0.7544830
SP   1   1.00
      0.1171670              1.0000000              1.0000000
D    1   1.00
      1.3000000              1.0000000
D    1   1.00
      0.3250000              1.0000000
F    1   1.00
      0.5500000              1.0000000
****
Cl     0
S    6   1.00
  25180.1000000              0.0018330
   3780.3500000              0.0140340
    860.4740000              0.0690970
    242.1450000              0.2374520
     77.3349000              0.4830340
     26.2470000              0.3398560
SP   6   1.00
    491.7650000             -0.0022974              0.0039894
    116.9840000             -0.0307140              0.0303180
     37.4153000             -0.1125280              0.1298800
     13.7834000              0.0450160              0.3279510
      5.4521500              0.5893530              0.4535270
      2.2258800              0.4652060              0.2521540
SP   3   1.00
      3.1864900             -0.2518300             -0.0142990
      1.1442700              0.0615890              0.3235720
      0.4203770              1.0601800              0.7435070
SP   1   1.00
      0.1426570              1.0000000              1.0000000
D    1   1.00
      1.5000000              1.0000000
D    1   1.00
      0.3750000              1.0000000
F    1   1.00
      0.7000000              1.0000000
****
}


set {
reference rhf                          
freeze_core true
e_convergence 10                       
d_convergence 10                      
dft_spherical_points 1202
dft_radial_points 99
}

e = energy('b3lyp')

print_out('Grab this energy {0}'.format(e))
--------------------------------------------------------------------------

  Memory set to  13.039 GiB by Python driver.

Scratch directory: /tmp/

*** tstart() called on n085
*** at Sun Nov 14 13:57:32 2021

   => Loading Basis Set <=

    Name: ANONYMOUS44DE10A5
    Role: ORBITAL
    Keyword: BASIS
    atoms 1   entry O          line    90 inputblock 6-31g_2dfp_ 
    atoms 2-5 entry C          line    48 inputblock 6-31g_2dfp_ 
    atoms 6-9 entry H          line    15 inputblock 6-31g_2dfp_ 


         ---------------------------------------------------------
                                   SCF
               by Justin Turney, Rob Parrish, Andy Simmonett
                          and Daniel G. A. Smith
                              RKS Reference
                        4 Threads,  13351 MiB Core
         ---------------------------------------------------------

  ==> Geometry <==

    Molecular point group: cs
    Full point group: Cs

    Geometry (in Bohr), charge = 0, multiplicity = 1:

       Center              X                  Y                   Z               Mass       
    ------------   -----------------  -----------------  -----------------  -----------------
         O            0.002529169356     2.148722968772     0.000000000000    15.994914619570
         C           -2.064916143044     0.601369032672     0.000000000000    12.000000000000
         C            2.064922556256     0.605261643372     0.000000000000    12.000000000000
         C            1.354385613956    -1.870605673928     0.000000000000    12.000000000000
         C           -1.358208876044    -1.874579172528     0.000000000000    12.000000000000
         H           -3.873364640044     1.542340638272     0.000000000000     1.007825032230
         H            3.873747399256     1.541194027772     0.000000000000     1.007825032230
         H            2.608001362956    -3.481723362328     0.000000000000     1.007825032230
         H           -2.603077309544    -3.477474496028     0.000000000000     1.007825032230

  Running in cs symmetry.

  Rotational constants: A =      0.31619  B =      0.30721  C =      0.15582 [cm^-1]
  Rotational constants: A =   9478.99067  B =   9209.95449  C =   4671.26807 [MHz]
  Nuclear repulsion =  160.634523379699800

  Charge       = 0
  Multiplicity = 1
  Electrons    = 36
  Nalpha       = 18
  Nbeta        = 18

  ==> Algorithm <==

  SCF Algorithm Type is DF.
  DIIS enabled.
  MOM disabled.
  Fractional occupation disabled.
  Guess Type is SAD.
  Energy threshold   = 1.00e-10
  Density threshold  = 1.00e-10
  Integral threshold = 0.00e+00

  ==> Primary Basis <==

  Basis Set: ANONYMOUS44DE10A5
    Blend: 6-31G_2DFP_
    Number of shells: 56
    Number of basis function: 162
    Number of Cartesian functions: 187
    Spherical Harmonics?: true
    Max angular momentum: 3

  ==> DFT Potential <==

   => Composite Functional: B3LYP <= 

    B3LYP Hyb-GGA Exchange-Correlation Functional

    P. J. Stephens, F. J. Devlin, C. F. Chabalowski, and M. J. Frisch, J. Phys. Chem. 98, 11623 (1994)

    Deriv               =              1
    GGA                 =           TRUE
    Meta                =          FALSE

    Exchange Hybrid     =           TRUE
    MP2 Hybrid          =          FALSE

   => Exchange Functionals <=

    0.0800   Slater exchange
    0.7200         Becke 88

   => Exact (HF) Exchange <=

    0.2000               HF 

   => Correlation Functionals <=

    0.1900   Vosko, Wilk & Nusair (VWN5_RPA)
    0.8100   Lee, Yang & Parr

   => Molecular Quadrature <=

    Radial Scheme          =       TREUTLER
    Pruning Scheme         =           NONE
    Nuclear Scheme         =       TREUTLER

    BS radius alpha        =              1
    Pruning alpha          =              1
    Radial Points          =             99
    Spherical Points       =           1202
    Total Points           =         996274
    Total Blocks           =           6689
    Max Points             =            256
    Max Functions          =            162
    Weights Tolerance      =       1.00E-15

   => Loading Basis Set <=

    Name: (ANONYMOUS44DE10A5 AUX)
    Role: JKFIT
    Keyword: DF_BASIS_SCF
    atoms 1   entry O          line   318 file /opt/psi/4/master/share/psi4/basis/def2-universal-jkfit.gbs 
    atoms 2-5 entry C          line   198 file /opt/psi/4/master/share/psi4/basis/def2-universal-jkfit.gbs 
    atoms 6-9 entry H          line    18 file /opt/psi/4/master/share/psi4/basis/def2-universal-jkfit.gbs 

  ==> Integral Setup <==

  DFHelper Memory: AOs need 0.095 GiB; user supplied 5.924 GiB. Using in-core AOs.

  ==> MemDFJK: Density-Fitted J/K Matrices <==

    J tasked:                   Yes
    K tasked:                   Yes
    wK tasked:                   No
    OpenMP threads:               4
    Memory [MiB]:              6065
    Algorithm:                 Core
    Schwarz Cutoff:           1E-12
    Mask sparsity (%):       0.7468
    Fitting Condition:        1E-10

   => Auxiliary Basis Set <=

  Basis Set: (ANONYMOUS44DE10A5 AUX)
    Blend: DEF2-UNIVERSAL-JKFIT
    Number of shells: 149
    Number of basis function: 449
    Number of Cartesian functions: 529
    Spherical Harmonics?: true
    Max angular momentum: 4

  Cached 100.0% of DFT collocation blocks in 3.855 [GiB].

  Minimum eigenvalue in the overlap matrix is 2.2367006579E-04.
  Reciprocal condition number of the overlap matrix is 3.7800521794E-05.
    Using symmetric orthogonalization.

  ==> Pre-Iterations <==

  SCF Guess: Superposition of Atomic Densities via on-the-fly atomic UHF (no occupation information).

   -------------------------
    Irrep   Nso     Nmo    
   -------------------------
     A'       109     109 
     A"        53      53 
   -------------------------
    Total     162     162
   -------------------------

  ==> Iterations <==

                           Total Energy        Delta E     RMS |[F,P]|

   @DF-RKS iter SAD:  -229.70140817538805   -2.29701e+02   0.00000e+00 
   @DF-RKS iter   1:  -229.80290781511070   -1.01500e-01   5.36986e-03 DIIS
   @DF-RKS iter   2:  -229.71635616498156    8.65517e-02   6.29520e-03 DIIS
   @DF-RKS iter   3:  -230.01972130291321   -3.03365e-01   1.43404e-03 DIIS
   @DF-RKS iter   4:  -230.03271151388819   -1.29902e-02   5.54459e-04 DIIS
   @DF-RKS iter   5:  -230.03465556232672   -1.94405e-03   1.18374e-04 DIIS
   @DF-RKS iter   6:  -230.03471060163665   -5.50393e-05   6.33131e-05 DIIS
   @DF-RKS iter   7:  -230.03473511422473   -2.45126e-05   3.24522e-06 DIIS
   @DF-RKS iter   8:  -230.03473519595963   -8.17349e-08   5.23781e-07 DIIS
   @DF-RKS iter   9:  -230.03473519675521   -7.95580e-10   4.54599e-07 DIIS
   @DF-RKS iter  10:  -230.03473519827801   -1.52281e-09   8.29284e-08 DIIS
   @DF-RKS iter  11:  -230.03473519833477   -5.67582e-11   1.75882e-08 DIIS
   @DF-RKS iter  12:  -230.03473519833614   -1.36424e-12   1.10820e-08 DIIS
   @DF-RKS iter  13:  -230.03473519833722   -1.08002e-12   9.50467e-10 DIIS
   @DF-RKS iter  14:  -230.03473519833693    2.84217e-13   1.36329e-10 DIIS
   @DF-RKS iter  15:  -230.03473519833713   -1.98952e-13   1.78489e-11 DIIS
  Energy and wave function converged.


  ==> Post-Iterations <==

    Orbital Energies [Eh]
    ---------------------

    Doubly Occupied:                                                      

       1Ap   -19.207370     2Ap   -10.225462     3Ap   -10.225223  
       4Ap   -10.177661     5Ap   -10.177289     6Ap    -1.101080  
       7Ap    -0.792089     8Ap    -0.736809     9Ap    -0.591862  
      10Ap    -0.563559    11Ap    -0.535139     1App   -0.442633  
      12Ap    -0.439061    13Ap    -0.404540    14Ap    -0.392866  
      15Ap    -0.366935     2App   -0.274899     3App   -0.224496  

    Virtual:                                                              

       4App    0.016396     5App    0.074182    16Ap     0.111727  
      17Ap     0.134380    18Ap     0.142995    19Ap     0.151138  
      20Ap     0.180094    21Ap     0.197933    22Ap     0.286149  
      23Ap     0.344963    24Ap     0.380211    25Ap     0.398282  
       6App    0.441592    26Ap     0.458061    27Ap     0.469220  
      28Ap     0.488516    29Ap     0.507217     7App    0.517102  
      30Ap     0.524356     8App    0.542813     9App    0.572251  
      10App    0.611903    31Ap     0.622211    32Ap     0.646250  
      11App    0.686229    33Ap     0.699442    34Ap     0.719483  
      35Ap     0.731205    12App    0.736250    36Ap     0.767718  
      13App    0.772087    14App    0.786382    37Ap     0.819479  
      38Ap     0.863570    39Ap     0.907231    15App    0.916029  
      40Ap     0.929786    16App    1.030948    41Ap     1.044647  
      42Ap     1.052540    17App    1.071662    43Ap     1.132078  
      44Ap     1.156015    18App    1.175071    19App    1.200032  
      45Ap     1.234157    46Ap     1.235966    47Ap     1.253068  
      20App    1.262219    21App    1.285355    48Ap     1.333265  
      49Ap     1.352277    50Ap     1.357663    22App    1.499030  
      51Ap     1.539871    52Ap     1.553775    53Ap     1.605710  
      54Ap     1.607852    55Ap     1.694088    56Ap     1.712375  
      57Ap     1.754382    23App    1.890435    24App    1.911089  
      58Ap     2.044862    59Ap     2.053785    60Ap     2.133534  
      61Ap     2.233612    62Ap     2.298968    63Ap     2.397856  
      64Ap     2.531473    25App    2.585259    65Ap     2.595952  
      26App    2.699634    66Ap     2.758437    27App    2.776239  
      28App    2.804509    67Ap     2.810639    68Ap     2.911220  
      29App    2.946433    69Ap     2.972713    70Ap     3.019698  
      71Ap     3.056387    30App    3.061111    72Ap     3.116209  
      31App    3.117681    73Ap     3.141481    32App    3.203716  
      33App    3.209031    74Ap     3.224991    34App    3.262115  
      35App    3.284188    75Ap     3.316769    76Ap     3.317436  
      36App    3.319976    37App    3.339167    77Ap     3.418147  
      78Ap     3.431183    79Ap     3.501365    80Ap     3.509732  
      81Ap     3.521057    38App    3.543752    82Ap     3.612970  
      39App    3.634069    40App    3.695322    83Ap     3.706120  
      41App    3.724871    84Ap     3.801089    85Ap     3.886297  
      86Ap     3.944242    42App    3.944759    87Ap     3.989505  
      43App    4.032333    88Ap     4.106389    89Ap     4.131949  
      44App    4.154047    90Ap     4.270875    45App    4.277695  
      46App    4.282129    91Ap     4.364214    47App    4.382607  
      92Ap     4.509694    93Ap     4.539262    94Ap     4.667981  
      48App    4.670775    95Ap     4.787318    96Ap     4.994813  
      97Ap     5.041307    98Ap     5.103546    99Ap     5.210132  
     100Ap     5.263015    49App    5.308624   101Ap     5.506887  
     102Ap     5.511793   103Ap     5.565280    50App    5.620425  
     104Ap     5.671320    51App    5.752717   105Ap     6.105677  
     106Ap     6.550573    52App    7.062947   107Ap     7.120800  
      53App    7.152725   108Ap     7.567062   109Ap     7.605367  

    Final Occupation by Irrep:
             Ap   App 
    DOCC [    15,    3 ]

  @DF-RKS Final Energy:  -230.03473519833713

   => Energetics <=

    Nuclear Repulsion Energy =            160.6345233796998002
    One-Electron Energy =                -629.0923346568973784
    Two-Electron Energy =                 264.1451225631485045
    DFT Exchange-Correlation Energy =     -25.7220464842880645
    Empirical Dispersion Energy =           0.0000000000000000
    VV10 Nonlocal Energy =                  0.0000000000000000
    Total Energy =                       -230.0347351983371595

Computation Completed


Properties will be evaluated at   0.000000,   0.000000,   0.000000 [a0]

Properties computed using the SCF density matrix

  Nuclear Dipole Moment: [e a0]
     X:     0.0026      Y:    -1.9172      Z:     0.0000

  Electronic Dipole Moment: [e a0]
     X:    -0.0045      Y:     1.6813      Z:     0.0000

  Dipole Moment: [e a0]
     X:    -0.0018      Y:    -0.2360      Z:     0.0000     Total:     0.2360

  Dipole Moment: [D]
     X:    -0.0047      Y:    -0.5997      Z:     0.0000     Total:     0.5997


*** tstop() called on n085 at Sun Nov 14 13:57:53 2021
Module time:
	user time   =      78.10 seconds =       1.30 minutes
	system time =       1.11 seconds =       0.02 minutes
	total time  =         21 seconds =       0.35 minutes
Total time:
	user time   =      78.10 seconds =       1.30 minutes
	system time =       1.11 seconds =       0.02 minutes
	total time  =         21 seconds =       0.35 minutes
Grab this energy -230.03473519833713
    Psi4 stopped on: Sunday, 14 November 2021 01:57PM
    Psi4 wall time for execution: 0:00:20.29

*** Psi4 exiting successfully. Buy a developer a beer!
