
    -----------------------------------------------------------------------
          Psi4: An Open-Source Ab Initio Electronic Structure Package
                               Psi4 1.4a2.dev629 

                         Git: Rev {master} 2938fc2 dirty


    D. G. A. Smith, L. A. Burns, A. C. Simmonett, R. M. Parrish,
    M. C. Schieber, R. Galvelis, P. Kraus, H. Kruse, R. Di Remigio,
    A. Alenaizan, A. M. James, S. Lehtola, J. P. Misiewicz, M. Scheurer,
    R. A. Shaw, J. B. Schriber, Y. Xie, Z. L. Glick, D. A. Sirianni,
    J. S. O'Brien, J. M. Waldrop, A. Kumar, E. G. Hohenstein,
    B. P. Pritchard, B. R. Brooks, H. F. Schaefer III, A. Yu. Sokolov,
    K. Patkowski, A. E. DePrince III, U. Bozkaya, R. A. King,
    F. A. Evangelista, J. M. Turney, T. D. Crawford, C. D. Sherrill,
    J. Chem. Phys. 152(18) 184108 (2020). https://doi.org/10.1063/5.0006002

                            Additional Code Authors
    E. T. Seidl, C. L. Janssen, E. F. Valeev, M. L. Leininger,
    J. F. Gonthier, R. M. Richard, H. R. McAlexander, M. Saitow, X. Wang,
    P. Verma, and M. H. Lechner

             Previous Authors, Complete List of Code Contributors,
                       and Citations for Specific Modules
    https://github.com/psi4/psi4/blob/master/codemeta.json
    https://github.com/psi4/psi4/graphs/contributors
    http://psicode.org/psi4manual/master/introduction.html#citing-psifour

    -----------------------------------------------------------------------


    Psi4 started on: Sunday, 14 November 2021 01:57PM

    Process ID: 20115
    Host:       n061
    PSIDATADIR: /opt/psi/4/master/share/psi4
    Memory:     500.0 MiB
    Threads:    4
    
  ==> Input File <==

--------------------------------------------------------------------------
import os
memory 14 GB 
 
molecule {
 O    0.0000000000   -0.0000000000   -2.1537602974
 C    0.0000000000    2.0580156958   -0.6050002340
 C   -0.0000000000   -2.0580156958   -0.6050002340
 C   -0.0000000000   -1.3337185662    1.8615014177
 C   -0.0000000000    1.3337185662    1.8615014177
 H    0.0000000000    3.8693533933   -1.5295173767
 H   -0.0000000000   -3.8693533933   -1.5295173767
 H   -0.0000000000   -2.5669252572    3.4873509467
 H   -0.0000000000    2.5669252572    3.4873509467
units bohr
}

basis {

assign 6-31g_2dfp_

[ 6-31g_2dfp_ ]

spherical

!----------------------------------------------------------------------
! Basis Set Exchange
! Version v0.8.13
! https://www.basissetexchange.org
!----------------------------------------------------------------------
!   Basis set: 6-31G(2df,p)
! Description: 6-31G(2df,p)
!        Role: orbital
!     Version: 0  (Data from the original Basis Set Exchange)
!----------------------------------------------------------------------


****
H     0
S    3   1.00
     18.7311370              0.03349460
      2.8253937              0.23472695
      0.6401217              0.81375733
S    1   1.00
      0.1612778              1.00000000
P    1   1.00
      1.5000000              1.0000000
P    1   1.00
      0.3750000              1.0000000
****
B     0
S    6   1.00
   2068.8823000              0.0018663
    310.6495700              0.0142515
     70.6830330              0.0695516
     19.8610800              0.2325729
      6.2993048              0.4670787
      2.1270270              0.3634314
SP   3   1.00
      4.7279710             -0.1303938              0.0745976
      1.1903377             -0.1307889              0.3078467
      0.3594117              1.1309444              0.7434568
SP   1   1.00
      0.1267512              1.0000000              1.0000000
D    1   1.00
      0.8020000              1.0000000
D    1   1.00
      0.2005000              1.0000000
F    1   1.00
      0.5000000              1.0000000
****
C     0
S    6   1.00
   3047.5249000              0.0018347
    457.3695100              0.0140373
    103.9486900              0.0688426
     29.2101550              0.2321844
      9.2866630              0.4679413
      3.1639270              0.3623120
SP   3   1.00
      7.8682724             -0.1193324              0.0689991
      1.8812885             -0.1608542              0.3164240
      0.5442493              1.1434564              0.7443083
SP   1   1.00
      0.1687144              1.0000000              1.0000000
D    1   1.00
      1.2520000              1.0000000
D    1   1.00
      0.3130000              1.0000000
F    1   1.00
      0.8000000              1.0000000
****
N     0
S    6   1.00
   4173.5110000              0.0018348
    627.4579000              0.0139950
    142.9021000              0.0685870
     40.2343300              0.2322410
     12.8202100              0.4690700
      4.3904370              0.3604550
SP   3   1.00
     11.6263580             -0.1149610              0.0675800
      2.7162800             -0.1691180              0.3239070
      0.7722180              1.1458520              0.7408950
SP   1   1.00
      0.2120313              1.0000000              1.0000000
D    1   1.00
      1.8260000              1.0000000
D    1   1.00
      0.4565000              1.0000000
F    1   1.00
      1.0000000              1.0000000
****
O     0
S    6   1.00
   5484.6717000              0.0018311
    825.2349500              0.0139501
    188.0469600              0.0684451
     52.9645000              0.2327143
     16.8975700              0.4701930
      5.7996353              0.3585209
SP   3   1.00
     15.5396160             -0.1107775              0.0708743
      3.5999336             -0.1480263              0.3397528
      1.0137618              1.1307670              0.7271586
SP   1   1.00
      0.2700058              1.0000000              1.0000000
D    1   1.00
      2.5840000              1.0000000
D    1   1.00
      0.6460000              1.0000000
F    1   1.00
      1.4000000              1.0000000
****
F     0
S    6   1.00
   7001.7130900              0.0018196169
   1051.3660900              0.0139160796
    239.2856900              0.0684053245
     67.3974453              0.233185760
     21.5199573              0.471267439
      7.40310130             0.356618546
SP   3   1.00
     20.8479528             -0.108506975            0.0716287243
      4.80830834            -0.146451658            0.3459121030
      1.34406986             1.128688580            0.7224699570
SP   1   1.00
      0.358151393            1.0000000              1.0000000
D    1   1.00
      3.5000000              1.0000000
D    1   1.00
      0.8750000              1.0000000
F    1   1.00
      1.8500000              1.0000000
****
Al     0
S    6   1.00
  13983.1000000              0.00194267
   2098.7500000              0.0148599
    477.7050000              0.0728494
    134.3600000              0.2468300
     42.8709000              0.4872580
     14.5189000              0.3234960
SP   6   1.00
    239.6680000             -0.00292619             0.00460285
     57.4419000             -0.0374080              0.0331990
     18.2859000             -0.1144870              0.1362820
      6.5991400              0.1156350              0.3304760
      2.4904900              0.6125950              0.4491460
      0.9445400              0.3937990              0.2657040
SP   3   1.00
      1.2779000             -0.2276060             -0.0175130
      0.3975900              0.00144583             0.2445330
      0.1600950              1.0927900              0.8049340
SP   1   1.00
      0.0556577              1.0000000              1.0000000
D    1   1.00
      0.6500000              1.0000000
D    1   1.00
      0.1625000              1.0000000
F    1   1.00
      0.2500000              1.0000000
****
Si     0
S    6   1.00
  16115.9000000              0.00195948
   2425.5800000              0.01492880
    553.8670000              0.07284780
    156.3400000              0.24613000
     50.0683000              0.48591400
     17.0178000              0.32500200
SP   6   1.00
    292.7180000             -0.00278094             0.00443826
     69.8731000             -0.03571460             0.03266790
     22.3363000             -0.11498500             0.13472100
      8.1503900              0.09356340             0.32867800
      3.1345800              0.60301700             0.44964000
      1.2254300              0.41895900             0.26137200
SP   3   1.00
      1.7273800             -0.24463000            -0.01779510
      0.5729220              0.00431572             0.25353900
      0.2221920              1.09818000             0.80066900
SP   1   1.00
      0.0778369              1.00000000             1.00000000
D    1   1.00
      0.9000000              1.0000000
D    1   1.00
      0.2250000              1.0000000
F    1   1.00
      0.3200000              1.0000000
****
P     0
S    6   1.00
  19413.3000000              0.0018516
   2909.4200000              0.0142062
    661.3640000              0.0699995
    185.7590000              0.2400790
     59.1943000              0.4847620
     20.0310000              0.3352000
SP   6   1.00
    339.4780000             -0.00278217             0.00456462
     81.0101000             -0.0360499              0.03369360
     25.8780000             -0.1166310              0.13975500
      9.4522100              0.0968328              0.33936200
      3.6656600              0.6144180              0.45092100
      1.4674600              0.4037980              0.23858600
SP   3   1.00
      2.1562300             -0.2529230             -0.01776530
      0.7489970              0.0328517              0.27405800
      0.2831450              1.0812500              0.78542100
SP   1   1.00
      0.0998317              1.0000000              1.00000000
D    1   1.00
      1.1000000              1.0000000
D    1   1.00
      0.2750000              1.0000000
F    1   1.00
      0.4500000              1.0000000
****
S     0
S    6   1.00
  21917.1000000              0.0018690
   3301.4900000              0.0142300
    754.1460000              0.0696960
    212.7110000              0.2384870
     67.9896000              0.4833070
     23.0515000              0.3380740
SP   6   1.00
    423.7350000             -0.0023767              0.0040610
    100.7100000             -0.0316930              0.0306810
     32.1599000             -0.1133170              0.1304520
     11.8079000              0.0560900              0.3272050
      4.6311000              0.5922550              0.4528510
      1.8702500              0.4550060              0.2560420
SP   3   1.00
      2.6158400             -0.2503740             -0.0145110
      0.9221670              0.0669570              0.3102630
      0.3412870              1.0545100              0.7544830
SP   1   1.00
      0.1171670              1.0000000              1.0000000
D    1   1.00
      1.3000000              1.0000000
D    1   1.00
      0.3250000              1.0000000
F    1   1.00
      0.5500000              1.0000000
****
Cl     0
S    6   1.00
  25180.1000000              0.0018330
   3780.3500000              0.0140340
    860.4740000              0.0690970
    242.1450000              0.2374520
     77.3349000              0.4830340
     26.2470000              0.3398560
SP   6   1.00
    491.7650000             -0.0022974              0.0039894
    116.9840000             -0.0307140              0.0303180
     37.4153000             -0.1125280              0.1298800
     13.7834000              0.0450160              0.3279510
      5.4521500              0.5893530              0.4535270
      2.2258800              0.4652060              0.2521540
SP   3   1.00
      3.1864900             -0.2518300             -0.0142990
      1.1442700              0.0615890              0.3235720
      0.4203770              1.0601800              0.7435070
SP   1   1.00
      0.1426570              1.0000000              1.0000000
D    1   1.00
      1.5000000              1.0000000
D    1   1.00
      0.3750000              1.0000000
F    1   1.00
      0.7000000              1.0000000
****
}


set {
reference rhf                          
freeze_core true
e_convergence 10                       
d_convergence 10                      
dft_spherical_points 1202
dft_radial_points 99
}

e = energy('b3lyp')

print_out('Grab this energy {0}'.format(e))
--------------------------------------------------------------------------

  Memory set to  13.039 GiB by Python driver.

Scratch directory: /tmp/

*** tstart() called on n061
*** at Sun Nov 14 13:57:18 2021

   => Loading Basis Set <=

    Name: ANONYMOUSB5F571C8
    Role: ORBITAL
    Keyword: BASIS
    atoms 1   entry O          line    90 inputblock 6-31g_2dfp_ 
    atoms 2-5 entry C          line    48 inputblock 6-31g_2dfp_ 
    atoms 6-9 entry H          line    15 inputblock 6-31g_2dfp_ 


         ---------------------------------------------------------
                                   SCF
               by Justin Turney, Rob Parrish, Andy Simmonett
                          and Daniel G. A. Smith
                              RKS Reference
                        4 Threads,  13351 MiB Core
         ---------------------------------------------------------

  ==> Geometry <==

    Molecular point group: c2v
    Full point group: C2v

    Geometry (in Bohr), charge = 0, multiplicity = 1:

       Center              X                  Y                   Z               Mass       
    ------------   -----------------  -----------------  -----------------  -----------------
         O            0.000000000000     0.000000000000    -2.148661141158    15.994914619570
         C           -0.000000000000     2.058015695800    -0.599901077758    12.000000000000
         C            0.000000000000    -2.058015695800    -0.599901077758    12.000000000000
         C            0.000000000000    -1.333718566200     1.866600573942    12.000000000000
         C           -0.000000000000     1.333718566200     1.866600573942    12.000000000000
         H           -0.000000000000     3.869353393300    -1.524418220458     1.007825032230
         H            0.000000000000    -3.869353393300    -1.524418220458     1.007825032230
         H            0.000000000000    -2.566925257200     3.492450102942     1.007825032230
         H           -0.000000000000     2.566925257200     3.492450102942     1.007825032230

  Running in c2v symmetry.

  Rotational constants: A =      0.32055  B =      0.30813  C =      0.15711 [cm^-1]
  Rotational constants: A =   9609.85711  B =   9237.47476  C =   4709.99360 [MHz]
  Nuclear repulsion =  161.240306681344208

  Charge       = 0
  Multiplicity = 1
  Electrons    = 36
  Nalpha       = 18
  Nbeta        = 18

  ==> Algorithm <==

  SCF Algorithm Type is DF.
  DIIS enabled.
  MOM disabled.
  Fractional occupation disabled.
  Guess Type is SAD.
  Energy threshold   = 1.00e-10
  Density threshold  = 1.00e-10
  Integral threshold = 0.00e+00

  ==> Primary Basis <==

  Basis Set: ANONYMOUSB5F571C8
    Blend: 6-31G_2DFP_
    Number of shells: 56
    Number of basis function: 162
    Number of Cartesian functions: 187
    Spherical Harmonics?: true
    Max angular momentum: 3

  ==> DFT Potential <==

   => Composite Functional: B3LYP <= 

    B3LYP Hyb-GGA Exchange-Correlation Functional

    P. J. Stephens, F. J. Devlin, C. F. Chabalowski, and M. J. Frisch, J. Phys. Chem. 98, 11623 (1994)

    Deriv               =              1
    GGA                 =           TRUE
    Meta                =          FALSE

    Exchange Hybrid     =           TRUE
    MP2 Hybrid          =          FALSE

   => Exchange Functionals <=

    0.0800   Slater exchange
    0.7200         Becke 88

   => Exact (HF) Exchange <=

    0.2000               HF 

   => Correlation Functionals <=

    0.1900   Vosko, Wilk & Nusair (VWN5_RPA)
    0.8100   Lee, Yang & Parr

   => Molecular Quadrature <=

    Radial Scheme          =       TREUTLER
    Pruning Scheme         =           NONE
    Nuclear Scheme         =       TREUTLER

    BS radius alpha        =              1
    Pruning alpha          =              1
    Radial Points          =             99
    Spherical Points       =           1202
    Total Points           =         996155
    Total Blocks           =           6650
    Max Points             =            256
    Max Functions          =            162
    Weights Tolerance      =       1.00E-15

   => Loading Basis Set <=

    Name: (ANONYMOUSB5F571C8 AUX)
    Role: JKFIT
    Keyword: DF_BASIS_SCF
    atoms 1   entry O          line   318 file /opt/psi/4/master/share/psi4/basis/def2-universal-jkfit.gbs 
    atoms 2-5 entry C          line   198 file /opt/psi/4/master/share/psi4/basis/def2-universal-jkfit.gbs 
    atoms 6-9 entry H          line    18 file /opt/psi/4/master/share/psi4/basis/def2-universal-jkfit.gbs 

  ==> Integral Setup <==

  DFHelper Memory: AOs need 0.095 GiB; user supplied 5.916 GiB. Using in-core AOs.

  ==> MemDFJK: Density-Fitted J/K Matrices <==

    J tasked:                   Yes
    K tasked:                   Yes
    wK tasked:                   No
    OpenMP threads:               4
    Memory [MiB]:              6057
    Algorithm:                 Core
    Schwarz Cutoff:           1E-12
    Mask sparsity (%):       0.7468
    Fitting Condition:        1E-10

   => Auxiliary Basis Set <=

  Basis Set: (ANONYMOUSB5F571C8 AUX)
    Blend: DEF2-UNIVERSAL-JKFIT
    Number of shells: 149
    Number of basis function: 449
    Number of Cartesian functions: 529
    Spherical Harmonics?: true
    Max angular momentum: 4

  Cached 100.0% of DFT collocation blocks in 3.863 [GiB].

  Minimum eigenvalue in the overlap matrix is 3.8152705851E-04.
  Reciprocal condition number of the overlap matrix is 6.5378825966E-05.
    Using symmetric orthogonalization.

  ==> Pre-Iterations <==

  SCF Guess: Superposition of Atomic Densities via on-the-fly atomic UHF (no occupation information).

   -------------------------
    Irrep   Nso     Nmo    
   -------------------------
     A1        57      57 
     A2        25      25 
     B1        28      28 
     B2        52      52 
   -------------------------
    Total     162     162
   -------------------------

  ==> Iterations <==

                           Total Energy        Delta E     RMS |[F,P]|

   @DF-RKS iter SAD:  -229.74250703303647   -2.29743e+02   0.00000e+00 
   @DF-RKS iter   1:  -229.79490549194119   -5.23985e-02   7.72433e-03 DIIS
   @DF-RKS iter   2:  -229.69731836865660    9.75871e-02   9.15943e-03 DIIS
   @DF-RKS iter   3:  -230.01899250084924   -3.21674e-01   2.06607e-03 DIIS
   @DF-RKS iter   4:  -230.03237007572835   -1.33776e-02   8.01067e-04 DIIS
   @DF-RKS iter   5:  -230.03438248299895   -2.01241e-03   1.71720e-04 DIIS
   @DF-RKS iter   6:  -230.03444145544731   -5.89724e-05   9.02457e-05 DIIS
   @DF-RKS iter   7:  -230.03446654869555   -2.50932e-05   4.57926e-06 DIIS
   @DF-RKS iter   8:  -230.03446663127730   -8.25817e-08   5.26245e-07 DIIS
   @DF-RKS iter   9:  -230.03446663256608   -1.28878e-09   1.43896e-07 DIIS
   @DF-RKS iter  10:  -230.03446663266132   -9.52411e-11   2.60551e-08 DIIS
   @DF-RKS iter  11:  -230.03446663266394   -2.61480e-12   2.86198e-09 DIIS
   @DF-RKS iter  12:  -230.03446663266382    1.13687e-13   4.30772e-10 DIIS
   @DF-RKS iter  13:  -230.03446663266374    8.52651e-14   1.18730e-10 DIIS
   @DF-RKS iter  14:  -230.03446663266391   -1.70530e-13   7.77781e-12 DIIS
  Energy and wave function converged.


  ==> Post-Iterations <==

    Orbital Energies [Eh]
    ---------------------

    Doubly Occupied:                                                      

       1A1   -19.208045     1B2   -10.224096     2A1   -10.224026  
       3A1   -10.175044     2B2   -10.174661     4A1    -1.103058  
       5A1    -0.796416     3B2    -0.736582     4B2    -0.590652  
       6A1    -0.565728     7A1    -0.536790     1B1    -0.444134  
       5B2    -0.438820     6B2    -0.402524     8A1    -0.394757  
       9A1    -0.368269     2B1    -0.277603     1A2    -0.223331  

    Virtual:                                                              

       3B1     0.016052     2A2     0.078172    10A1     0.110797  
      11A1     0.134302     7B2     0.143966     8B2     0.153407  
      12A1     0.180931     9B2     0.201411    13A1     0.287224  
      10B2     0.345888    14A1     0.379202    11B2     0.400406  
       4B1     0.439702    15A1     0.458080    12B2     0.479551  
      16A1     0.489362    13B2     0.508941     3A2     0.516698  
      17A1     0.524122     5B1     0.543429     6B1     0.571165  
       4A2     0.611299    14B2     0.623991    18A1     0.646130  
       7B1     0.690890    15B2     0.704346    16B2     0.723848  
      19A1     0.732218     5A2     0.737159    20A1     0.767195  
       6A2     0.772808     8B1     0.786770    21A1     0.819946  
      17B2     0.864339    18B2     0.913419     9B1     0.916636  
      22A1     0.932044     7A2     1.034658    23A1     1.046321  
      19B2     1.050903    10B1     1.071967    24A1     1.138914  
      20B2     1.155469    11B1     1.176825     8A2     1.200041  
      25A1     1.236858    21B2     1.242843    26A1     1.255211  
      12B1     1.265074     9A2     1.294273    22B2     1.332761  
      27A1     1.358011    23B2     1.360113    10A2     1.500045  
      28A1     1.536474    24B2     1.558220    29A1     1.609614  
      25B2     1.609785    30A1     1.696681    31A1     1.713532  
      26B2     1.749048    13B1     1.893259    11A2     1.911161  
      27B2     2.047665    32A1     2.067568    28B2     2.137045  
      33A1     2.253035    29B2     2.307845    34A1     2.399941  
      30B2     2.549611    14B1     2.587551    35A1     2.604954  
      15B1     2.701767    36A1     2.756960    12A2     2.782160  
      16B1     2.804959    37A1     2.816055    31B2     2.913097  
      13A2     2.951901    32B2     2.975453    38A1     3.022257  
      39A1     3.050684    17B1     3.059241    33B2     3.108061  
      18B1     3.113073    34B2     3.142013    19B1     3.204290  
      14A2     3.207964    40A1     3.224369    15A2     3.245951  
      16A2     3.276267    20B1     3.321246    41A1     3.322099  
      35B2     3.335355    17A2     3.338291    42A1     3.418997  
      36B2     3.438526    37B2     3.495394    43A1     3.513228  
      38B2     3.534988    21B1     3.542086    44A1     3.616702  
      18A2     3.635652    22B1     3.713086    39B2     3.713621  
      19A2     3.738277    45A1     3.804233    40B2     3.892708  
      46A1     3.946162    20A2     3.965414    41B2     4.007370  
      23B1     4.031467    47A1     4.123043    24B1     4.156511  
      42B2     4.157992    48A1     4.280145    25B1     4.281829  
      21A2     4.286446    43B2     4.372813    22A2     4.407699  
      49A1     4.533083    44B2     4.558261    50A1     4.664637  
      23A2     4.686909    45B2     4.816288    51A1     5.031085  
      46B2     5.037604    52A1     5.108599    47B2     5.235807  
      53A1     5.269529    26B1     5.313199    54A1     5.514937  
      48B2     5.539981    49B2     5.581148    27B1     5.621103  
      50B2     5.678149    24A2     5.758267    55A1     6.114798  
      51B2     6.561941    28B1     7.064293    56A1     7.124189  
      25A2     7.153090    57A1     7.566858    52B2     7.609420  

    Final Occupation by Irrep:
             A1    A2    B1    B2 
    DOCC [     9,    1,    2,    6 ]

  @DF-RKS Final Energy:  -230.03446663266391

   => Energetics <=

    Nuclear Repulsion Energy =            161.2403066813442081
    One-Electron Energy =                -630.2828898726345415
    Two-Electron Energy =                 264.7438785857307266
    DFT Exchange-Correlation Energy =     -25.7357620271043395
    Empirical Dispersion Energy =           0.0000000000000000
    VV10 Nonlocal Energy =                  0.0000000000000000
    Total Energy =                       -230.0344666326639071

Computation Completed


Properties will be evaluated at   0.000000,   0.000000,   0.000000 [a0]

Properties computed using the SCF density matrix

  Nuclear Dipole Moment: [e a0]
     X:     0.0000      Y:     0.0000      Z:     1.9472

  Electronic Dipole Moment: [e a0]
     X:     0.0000      Y:     0.0000      Z:    -1.7047

  Dipole Moment: [e a0]
     X:     0.0000      Y:     0.0000      Z:     0.2425     Total:     0.2425

  Dipole Moment: [D]
     X:     0.0000      Y:     0.0000      Z:     0.6163     Total:     0.6163


*** tstop() called on n061 at Sun Nov 14 13:57:39 2021
Module time:
	user time   =      81.06 seconds =       1.35 minutes
	system time =       1.16 seconds =       0.02 minutes
	total time  =         21 seconds =       0.35 minutes
Total time:
	user time   =      81.06 seconds =       1.35 minutes
	system time =       1.16 seconds =       0.02 minutes
	total time  =         21 seconds =       0.35 minutes
Grab this energy -230.0344666326639
    Psi4 stopped on: Sunday, 14 November 2021 01:57PM
    Psi4 wall time for execution: 0:00:21.14

*** Psi4 exiting successfully. Buy a developer a beer!
