
    -----------------------------------------------------------------------
          Psi4: An Open-Source Ab Initio Electronic Structure Package
                               Psi4 1.4a2.dev629 

                         Git: Rev {master} 2938fc2 dirty


    D. G. A. Smith, L. A. Burns, A. C. Simmonett, R. M. Parrish,
    M. C. Schieber, R. Galvelis, P. Kraus, H. Kruse, R. Di Remigio,
    A. Alenaizan, A. M. James, S. Lehtola, J. P. Misiewicz, M. Scheurer,
    R. A. Shaw, J. B. Schriber, Y. Xie, Z. L. Glick, D. A. Sirianni,
    J. S. O'Brien, J. M. Waldrop, A. Kumar, E. G. Hohenstein,
    B. P. Pritchard, B. R. Brooks, H. F. Schaefer III, A. Yu. Sokolov,
    K. Patkowski, A. E. DePrince III, U. Bozkaya, R. A. King,
    F. A. Evangelista, J. M. Turney, T. D. Crawford, C. D. Sherrill,
    J. Chem. Phys. 152(18) 184108 (2020). https://doi.org/10.1063/5.0006002

                            Additional Code Authors
    E. T. Seidl, C. L. Janssen, E. F. Valeev, M. L. Leininger,
    J. F. Gonthier, R. M. Richard, H. R. McAlexander, M. Saitow, X. Wang,
    P. Verma, and M. H. Lechner

             Previous Authors, Complete List of Code Contributors,
                       and Citations for Specific Modules
    https://github.com/psi4/psi4/blob/master/codemeta.json
    https://github.com/psi4/psi4/graphs/contributors
    http://psicode.org/psi4manual/master/introduction.html#citing-psifour

    -----------------------------------------------------------------------


    Psi4 started on: Monday, 14 March 2022 06:09PM

    Process ID: 21366
    Host:       n087
    PSIDATADIR: /opt/psi/4/master/share/psi4
    Memory:     500.0 MiB
    Threads:    4
    
  ==> Input File <==

--------------------------------------------------------------------------
import os
memory 14 GB 
 
molecule {
 X   -0.0000000000    0.0000000000   -0.2578467100
 O   -0.0000000000    0.0036522237   -2.1462577257
 C   -0.0000000000    2.0656277324   -0.6076470374
 C   -0.0000000000   -2.0560385186   -0.5967190988
 C   -0.0000000000   -1.3603035037    1.8818303891
 C    0.0000000000    1.3561194281    1.8642212414
 H   -0.0000000000    3.8668566732   -1.5479187831
 H    0.0000000000   -3.8549495493   -1.5363454767
 H   -0.0000000000   -2.6158300395    3.4859882297
 H    0.0000000000    2.5948655537    3.4777574715
units bohr
}

basis {

assign 6-31g_2dfp_

[ 6-31g_2dfp_ ]

spherical

!----------------------------------------------------------------------
! Basis Set Exchange
! Version v0.8.13
! https://www.basissetexchange.org
!----------------------------------------------------------------------
!   Basis set: 6-31G(2df,p)
! Description: 6-31G(2df,p)
!        Role: orbital
!     Version: 0  (Data from the original Basis Set Exchange)
!----------------------------------------------------------------------


****
H     0
S    3   1.00
     18.7311370              0.03349460
      2.8253937              0.23472695
      0.6401217              0.81375733
S    1   1.00
      0.1612778              1.00000000
P    1   1.00
      1.5000000              1.0000000
P    1   1.00
      0.3750000              1.0000000
****
B     0
S    6   1.00
   2068.8823000              0.0018663
    310.6495700              0.0142515
     70.6830330              0.0695516
     19.8610800              0.2325729
      6.2993048              0.4670787
      2.1270270              0.3634314
SP   3   1.00
      4.7279710             -0.1303938              0.0745976
      1.1903377             -0.1307889              0.3078467
      0.3594117              1.1309444              0.7434568
SP   1   1.00
      0.1267512              1.0000000              1.0000000
D    1   1.00
      0.8020000              1.0000000
D    1   1.00
      0.2005000              1.0000000
F    1   1.00
      0.5000000              1.0000000
****
C     0
S    6   1.00
   3047.5249000              0.0018347
    457.3695100              0.0140373
    103.9486900              0.0688426
     29.2101550              0.2321844
      9.2866630              0.4679413
      3.1639270              0.3623120
SP   3   1.00
      7.8682724             -0.1193324              0.0689991
      1.8812885             -0.1608542              0.3164240
      0.5442493              1.1434564              0.7443083
SP   1   1.00
      0.1687144              1.0000000              1.0000000
D    1   1.00
      1.2520000              1.0000000
D    1   1.00
      0.3130000              1.0000000
F    1   1.00
      0.8000000              1.0000000
****
N     0
S    6   1.00
   4173.5110000              0.0018348
    627.4579000              0.0139950
    142.9021000              0.0685870
     40.2343300              0.2322410
     12.8202100              0.4690700
      4.3904370              0.3604550
SP   3   1.00
     11.6263580             -0.1149610              0.0675800
      2.7162800             -0.1691180              0.3239070
      0.7722180              1.1458520              0.7408950
SP   1   1.00
      0.2120313              1.0000000              1.0000000
D    1   1.00
      1.8260000              1.0000000
D    1   1.00
      0.4565000              1.0000000
F    1   1.00
      1.0000000              1.0000000
****
O     0
S    6   1.00
   5484.6717000              0.0018311
    825.2349500              0.0139501
    188.0469600              0.0684451
     52.9645000              0.2327143
     16.8975700              0.4701930
      5.7996353              0.3585209
SP   3   1.00
     15.5396160             -0.1107775              0.0708743
      3.5999336             -0.1480263              0.3397528
      1.0137618              1.1307670              0.7271586
SP   1   1.00
      0.2700058              1.0000000              1.0000000
D    1   1.00
      2.5840000              1.0000000
D    1   1.00
      0.6460000              1.0000000
F    1   1.00
      1.4000000              1.0000000
****
F     0
S    6   1.00
   7001.7130900              0.0018196169
   1051.3660900              0.0139160796
    239.2856900              0.0684053245
     67.3974453              0.233185760
     21.5199573              0.471267439
      7.40310130             0.356618546
SP   3   1.00
     20.8479528             -0.108506975            0.0716287243
      4.80830834            -0.146451658            0.3459121030
      1.34406986             1.128688580            0.7224699570
SP   1   1.00
      0.358151393            1.0000000              1.0000000
D    1   1.00
      3.5000000              1.0000000
D    1   1.00
      0.8750000              1.0000000
F    1   1.00
      1.8500000              1.0000000
****
Al     0
S    6   1.00
  13983.1000000              0.00194267
   2098.7500000              0.0148599
    477.7050000              0.0728494
    134.3600000              0.2468300
     42.8709000              0.4872580
     14.5189000              0.3234960
SP   6   1.00
    239.6680000             -0.00292619             0.00460285
     57.4419000             -0.0374080              0.0331990
     18.2859000             -0.1144870              0.1362820
      6.5991400              0.1156350              0.3304760
      2.4904900              0.6125950              0.4491460
      0.9445400              0.3937990              0.2657040
SP   3   1.00
      1.2779000             -0.2276060             -0.0175130
      0.3975900              0.00144583             0.2445330
      0.1600950              1.0927900              0.8049340
SP   1   1.00
      0.0556577              1.0000000              1.0000000
D    1   1.00
      0.6500000              1.0000000
D    1   1.00
      0.1625000              1.0000000
F    1   1.00
      0.2500000              1.0000000
****
Si     0
S    6   1.00
  16115.9000000              0.00195948
   2425.5800000              0.01492880
    553.8670000              0.07284780
    156.3400000              0.24613000
     50.0683000              0.48591400
     17.0178000              0.32500200
SP   6   1.00
    292.7180000             -0.00278094             0.00443826
     69.8731000             -0.03571460             0.03266790
     22.3363000             -0.11498500             0.13472100
      8.1503900              0.09356340             0.32867800
      3.1345800              0.60301700             0.44964000
      1.2254300              0.41895900             0.26137200
SP   3   1.00
      1.7273800             -0.24463000            -0.01779510
      0.5729220              0.00431572             0.25353900
      0.2221920              1.09818000             0.80066900
SP   1   1.00
      0.0778369              1.00000000             1.00000000
D    1   1.00
      0.9000000              1.0000000
D    1   1.00
      0.2250000              1.0000000
F    1   1.00
      0.3200000              1.0000000
****
P     0
S    6   1.00
  19413.3000000              0.0018516
   2909.4200000              0.0142062
    661.3640000              0.0699995
    185.7590000              0.2400790
     59.1943000              0.4847620
     20.0310000              0.3352000
SP   6   1.00
    339.4780000             -0.00278217             0.00456462
     81.0101000             -0.0360499              0.03369360
     25.8780000             -0.1166310              0.13975500
      9.4522100              0.0968328              0.33936200
      3.6656600              0.6144180              0.45092100
      1.4674600              0.4037980              0.23858600
SP   3   1.00
      2.1562300             -0.2529230             -0.01776530
      0.7489970              0.0328517              0.27405800
      0.2831450              1.0812500              0.78542100
SP   1   1.00
      0.0998317              1.0000000              1.00000000
D    1   1.00
      1.1000000              1.0000000
D    1   1.00
      0.2750000              1.0000000
F    1   1.00
      0.4500000              1.0000000
****
S     0
S    6   1.00
  21917.1000000              0.0018690
   3301.4900000              0.0142300
    754.1460000              0.0696960
    212.7110000              0.2384870
     67.9896000              0.4833070
     23.0515000              0.3380740
SP   6   1.00
    423.7350000             -0.0023767              0.0040610
    100.7100000             -0.0316930              0.0306810
     32.1599000             -0.1133170              0.1304520
     11.8079000              0.0560900              0.3272050
      4.6311000              0.5922550              0.4528510
      1.8702500              0.4550060              0.2560420
SP   3   1.00
      2.6158400             -0.2503740             -0.0145110
      0.9221670              0.0669570              0.3102630
      0.3412870              1.0545100              0.7544830
SP   1   1.00
      0.1171670              1.0000000              1.0000000
D    1   1.00
      1.3000000              1.0000000
D    1   1.00
      0.3250000              1.0000000
F    1   1.00
      0.5500000              1.0000000
****
Cl     0
S    6   1.00
  25180.1000000              0.0018330
   3780.3500000              0.0140340
    860.4740000              0.0690970
    242.1450000              0.2374520
     77.3349000              0.4830340
     26.2470000              0.3398560
SP   6   1.00
    491.7650000             -0.0022974              0.0039894
    116.9840000             -0.0307140              0.0303180
     37.4153000             -0.1125280              0.1298800
     13.7834000              0.0450160              0.3279510
      5.4521500              0.5893530              0.4535270
      2.2258800              0.4652060              0.2521540
SP   3   1.00
      3.1864900             -0.2518300             -0.0142990
      1.1442700              0.0615890              0.3235720
      0.4203770              1.0601800              0.7435070
SP   1   1.00
      0.1426570              1.0000000              1.0000000
D    1   1.00
      1.5000000              1.0000000
D    1   1.00
      0.3750000              1.0000000
F    1   1.00
      0.7000000              1.0000000
****
}


set {
reference rhf                          
freeze_core true
e_convergence 10                       
d_convergence 10                      
dft_spherical_points 1202
dft_radial_points 99
}

e = energy('b3lyp')

print_out('Grab this energy {0}'.format(e))
--------------------------------------------------------------------------

  Memory set to  13.039 GiB by Python driver.

Scratch directory: /tmp/

*** tstart() called on n087
*** at Mon Mar 14 18:09:16 2022

   => Loading Basis Set <=

    Name: ANONYMOUS98B9D88B
    Role: ORBITAL
    Keyword: BASIS
    atoms 1   entry O          line    90 inputblock 6-31g_2dfp_ 
    atoms 2-5 entry C          line    48 inputblock 6-31g_2dfp_ 
    atoms 6-9 entry H          line    15 inputblock 6-31g_2dfp_ 


         ---------------------------------------------------------
                                   SCF
               by Justin Turney, Rob Parrish, Andy Simmonett
                          and Daniel G. A. Smith
                              RKS Reference
                        4 Threads,  13351 MiB Core
         ---------------------------------------------------------

  ==> Geometry <==

    Molecular point group: cs
    Full point group: Cs

    Geometry (in Bohr), charge = 0, multiplicity = 1:

       Center              X                  Y                   Z               Mass       
    ------------   -----------------  -----------------  -----------------  -----------------
         O           -0.001974187828     2.147446316987     0.000000000000    15.994914619570
         C           -2.063949696528     0.608835628687     0.000000000000    12.000000000000
         C            2.057716554472     0.597907690087     0.000000000000    12.000000000000
         C            1.361981539572    -1.880641797813     0.000000000000    12.000000000000
         C           -1.354441392228    -1.863032650113     0.000000000000    12.000000000000
         H           -3.865178637328     1.549107374387     0.000000000000     1.007825032230
         H            3.856627585172     1.537534067987     0.000000000000     1.007825032230
         H            2.617508075372    -3.484799638413     0.000000000000     1.007825032230
         H           -2.593187517828    -3.476568880213     0.000000000000     1.007825032230

  Running in cs symmetry.

  Rotational constants: A =      0.31723  B =      0.30717  C =      0.15606 [cm^-1]
  Rotational constants: A =   9510.40701  B =   9208.82929  C =   4678.59443 [MHz]
  Nuclear repulsion =  160.777944153764480

  Charge       = 0
  Multiplicity = 1
  Electrons    = 36
  Nalpha       = 18
  Nbeta        = 18

  ==> Algorithm <==

  SCF Algorithm Type is DF.
  DIIS enabled.
  MOM disabled.
  Fractional occupation disabled.
  Guess Type is SAD.
  Energy threshold   = 1.00e-10
  Density threshold  = 1.00e-10
  Integral threshold = 0.00e+00

  ==> Primary Basis <==

  Basis Set: ANONYMOUS98B9D88B
    Blend: 6-31G_2DFP_
    Number of shells: 56
    Number of basis function: 162
    Number of Cartesian functions: 187
    Spherical Harmonics?: true
    Max angular momentum: 3

  ==> DFT Potential <==

   => Composite Functional: B3LYP <= 

    B3LYP Hyb-GGA Exchange-Correlation Functional

    P. J. Stephens, F. J. Devlin, C. F. Chabalowski, and M. J. Frisch, J. Phys. Chem. 98, 11623 (1994)

    Deriv               =              1
    GGA                 =           TRUE
    Meta                =          FALSE

    Exchange Hybrid     =           TRUE
    MP2 Hybrid          =          FALSE

   => Exchange Functionals <=

    0.0800   Slater exchange
    0.7200         Becke 88

   => Exact (HF) Exchange <=

    0.2000               HF 

   => Correlation Functionals <=

    0.1900   Vosko, Wilk & Nusair (VWN5_RPA)
    0.8100   Lee, Yang & Parr

   => Molecular Quadrature <=

    Radial Scheme          =       TREUTLER
    Pruning Scheme         =           NONE
    Nuclear Scheme         =       TREUTLER

    BS radius alpha        =              1
    Pruning alpha          =              1
    Radial Points          =             99
    Spherical Points       =           1202
    Total Points           =         996245
    Total Blocks           =           6672
    Max Points             =            256
    Max Functions          =            162
    Weights Tolerance      =       1.00E-15

   => Loading Basis Set <=

    Name: (ANONYMOUS98B9D88B AUX)
    Role: JKFIT
    Keyword: DF_BASIS_SCF
    atoms 1   entry O          line   318 file /opt/psi/4/master/share/psi4/basis/def2-universal-jkfit.gbs 
    atoms 2-5 entry C          line   198 file /opt/psi/4/master/share/psi4/basis/def2-universal-jkfit.gbs 
    atoms 6-9 entry H          line    18 file /opt/psi/4/master/share/psi4/basis/def2-universal-jkfit.gbs 

  ==> Integral Setup <==

  DFHelper Memory: AOs need 0.095 GiB; user supplied 5.924 GiB. Using in-core AOs.

  ==> MemDFJK: Density-Fitted J/K Matrices <==

    J tasked:                   Yes
    K tasked:                   Yes
    wK tasked:                   No
    OpenMP threads:               4
    Memory [MiB]:              6065
    Algorithm:                 Core
    Schwarz Cutoff:           1E-12
    Mask sparsity (%):       0.7468
    Fitting Condition:        1E-10

   => Auxiliary Basis Set <=

  Basis Set: (ANONYMOUS98B9D88B AUX)
    Blend: DEF2-UNIVERSAL-JKFIT
    Number of shells: 149
    Number of basis function: 449
    Number of Cartesian functions: 529
    Spherical Harmonics?: true
    Max angular momentum: 4

  Cached 100.0% of DFT collocation blocks in 3.855 [GiB].

  Minimum eigenvalue in the overlap matrix is 2.2262666151E-04.
  Reciprocal condition number of the overlap matrix is 3.7585114324E-05.
    Using symmetric orthogonalization.

  ==> Pre-Iterations <==

  SCF Guess: Superposition of Atomic Densities via on-the-fly atomic UHF (no occupation information).

   -------------------------
    Irrep   Nso     Nmo    
   -------------------------
     A'       109     109 
     A"        53      53 
   -------------------------
    Total     162     162
   -------------------------

  ==> Iterations <==

                           Total Energy        Delta E     RMS |[F,P]|

   @DF-RKS iter SAD:  -229.71077257328869   -2.29711e+02   0.00000e+00 
   @DF-RKS iter   1:  -229.80324895998706   -9.24764e-02   5.36588e-03 DIIS
   @DF-RKS iter   2:  -229.71945699595852    8.37920e-02   6.26862e-03 DIIS
   @DF-RKS iter   3:  -230.01995913378724   -3.00502e-01   1.42190e-03 DIIS
   @DF-RKS iter   4:  -230.03267912509878   -1.27200e-02   5.53526e-04 DIIS
   @DF-RKS iter   5:  -230.03462295324562   -1.94383e-03   1.15461e-04 DIIS
   @DF-RKS iter   6:  -230.03467477868287   -5.18254e-05   6.24678e-05 DIIS
   @DF-RKS iter   7:  -230.03469862055479   -2.38419e-05   3.22849e-06 DIIS
   @DF-RKS iter   8:  -230.03469870073195   -8.01772e-08   5.36157e-07 DIIS
   @DF-RKS iter   9:  -230.03469870218333   -1.45138e-09   3.62049e-07 DIIS
   @DF-RKS iter  10:  -230.03469870309172   -9.08386e-10   7.97618e-08 DIIS
   @DF-RKS iter  11:  -230.03469870313137   -3.96483e-11   3.92511e-08 DIIS
   @DF-RKS iter  12:  -230.03469870314268   -1.13118e-11   1.03376e-08 DIIS
   @DF-RKS iter  13:  -230.03469870314370   -1.02318e-12   8.55228e-10 DIIS
   @DF-RKS iter  14:  -230.03469870314353    1.70530e-13   1.40827e-10 DIIS
   @DF-RKS iter  15:  -230.03469870314345    8.52651e-14   1.88660e-11 DIIS
  Energy and wave function converged.


  ==> Post-Iterations <==

    Orbital Energies [Eh]
    ---------------------

    Doubly Occupied:                                                      

       1Ap   -19.207474     2Ap   -10.224810     3Ap   -10.224599  
       4Ap   -10.177714     5Ap   -10.177022     6Ap    -1.102524  
       7Ap    -0.792134     8Ap    -0.737531     9Ap    -0.592491  
      10Ap    -0.563740    11Ap    -0.535704     1App   -0.443463  
      12Ap    -0.439333    13Ap    -0.405240    14Ap    -0.392299  
      15Ap    -0.367273     2App   -0.274792     3App   -0.224669  

    Virtual:                                                              

       4App    0.017070     5App    0.074121    16Ap     0.112164  
      17Ap     0.135484    18Ap     0.143880    19Ap     0.151160  
      20Ap     0.180928    21Ap     0.197999    22Ap     0.286406  
      23Ap     0.345335    24Ap     0.380155    25Ap     0.399129  
       6App    0.441532    26Ap     0.458322    27Ap     0.468844  
      28Ap     0.489571    29Ap     0.507938     7App    0.517331  
      30Ap     0.525052     8App    0.542510     9App    0.572565  
      10App    0.611831    31Ap     0.622770    32Ap     0.647499  
      11App    0.686263    33Ap     0.699571    34Ap     0.719677  
      35Ap     0.731315    12App    0.736179    36Ap     0.768151  
      13App    0.773337    14App    0.786674    37Ap     0.819684  
      38Ap     0.864386    39Ap     0.907375    15App    0.916876  
      40Ap     0.930524    16App    1.031324    41Ap     1.044939  
      42Ap     1.055089    17App    1.072081    43Ap     1.133992  
      44Ap     1.156104    18App    1.175205    19App    1.199844  
      45Ap     1.233337    46Ap     1.236105    47Ap     1.253243  
      20App    1.262932    21App    1.287319    48Ap     1.333458  
      49Ap     1.352869    50Ap     1.359588    22App    1.499787  
      51Ap     1.541856    52Ap     1.553673    53Ap     1.605145  
      54Ap     1.611374    55Ap     1.697460    56Ap     1.713239  
      57Ap     1.756641    23App    1.891591    24App    1.912344  
      58Ap     2.048161    59Ap     2.055368    60Ap     2.135926  
      61Ap     2.230777    62Ap     2.301337    63Ap     2.401623  
      64Ap     2.536602    25App    2.584934    65Ap     2.600075  
      26App    2.700808    66Ap     2.757441    27App    2.776550  
      28App    2.803809    67Ap     2.809348    68Ap     2.912162  
      29App    2.947953    69Ap     2.974795    70Ap     3.019021  
      71Ap     3.055815    30App    3.060279    72Ap     3.115732  
      31App    3.116144    73Ap     3.141223    32App    3.203508  
      33App    3.207927    74Ap     3.226546    34App    3.261176  
      35App    3.285661    75Ap     3.316416    36App    3.321134  
      76Ap     3.321725    37App    3.339703    77Ap     3.419760  
      78Ap     3.430642    79Ap     3.502977    80Ap     3.512930  
      81Ap     3.521761    38App    3.543063    82Ap     3.616583  
      39App    3.635096    40App    3.695072    83Ap     3.706293  
      41App    3.725605    84Ap     3.805771    85Ap     3.888971  
      42App    3.944646    86Ap     3.946525    87Ap     3.990223  
      43App    4.035871    88Ap     4.107242    89Ap     4.131512  
      44App    4.157641    90Ap     4.273306    45App    4.279068  
      46App    4.288520    91Ap     4.368167    47App    4.382299  
      92Ap     4.511536    93Ap     4.545012    94Ap     4.669194  
      48App    4.673252    95Ap     4.791196    96Ap     4.993315  
      97Ap     5.041808    98Ap     5.109944    99Ap     5.219257  
     100Ap     5.264727    49App    5.311461   101Ap     5.507449  
     102Ap     5.516983   103Ap     5.568120    50App    5.623110  
     104Ap     5.675311    51App    5.757905   105Ap     6.114274  
     106Ap     6.559557    52App    7.063567   107Ap     7.123407  
      53App    7.153126   108Ap     7.568277   109Ap     7.609629  

    Final Occupation by Irrep:
             Ap   App 
    DOCC [    15,    3 ]

  @DF-RKS Final Energy:  -230.03469870314345

   => Energetics <=

    Nuclear Repulsion Energy =            160.7779441537644800
    One-Electron Energy =                -629.3683530401117423
    Two-Electron Energy =                 264.2822185995119639
    DFT Exchange-Correlation Energy =     -25.7265084163081106
    Empirical Dispersion Energy =           0.0000000000000000
    VV10 Nonlocal Energy =                  0.0000000000000000
    Total Energy =                       -230.0346987031434480

Computation Completed


Properties will be evaluated at   0.000000,   0.000000,   0.000000 [a0]

Properties computed using the SCF density matrix

  Nuclear Dipole Moment: [e a0]
     X:     0.0078      Y:    -1.9167      Z:     0.0000

  Electronic Dipole Moment: [e a0]
     X:    -0.0045      Y:     1.6828      Z:     0.0000

  Dipole Moment: [e a0]
     X:     0.0033      Y:    -0.2340      Z:     0.0000     Total:     0.2340

  Dipole Moment: [D]
     X:     0.0083      Y:    -0.5947      Z:     0.0000     Total:     0.5948


*** tstop() called on n087 at Mon Mar 14 18:09:37 2022
Module time:
	user time   =      77.60 seconds =       1.29 minutes
	system time =       1.13 seconds =       0.02 minutes
	total time  =         21 seconds =       0.35 minutes
Total time:
	user time   =      77.60 seconds =       1.29 minutes
	system time =       1.13 seconds =       0.02 minutes
	total time  =         21 seconds =       0.35 minutes
Grab this energy -230.03469870314345
    Psi4 stopped on: Monday, 14 March 2022 06:09PM
    Psi4 wall time for execution: 0:00:20.15

*** Psi4 exiting successfully. Buy a developer a beer!
