
 Primary working directories    : /tmp/1049102.1164.gen5.q
 Secondary working directories  : /tmp/1049102.1164.gen5.q
 Wavefunction directory         : /home/vulcan/mel64643/wfu/
 Main file repository           : /tmp/1049102.1164.gen5.q/

 ARCHNAME  : Linux/x86_64
 FC        : /opt/intel/compilers_and_libraries_2016.1.150/linux/bin/intel64/ifort
 FCVERSION : 16.0.1
 BLASLIB   : -mkl
 id        : ccgc

 Nodes     nprocs
 n072         1
 ga_uses_ma=false, calling ma_init with nominal heap.
 GA-space will be limited to   8.0 MW (determined by -G option)

 Using customized tuning parameters: mindgm=10; mindgv=16; mindgc=4; mindgr=1; noblas=0; mincuda=1000; minvec=7
 default implementation of scratch files=df  

 ***,Optimization of h2o_3
 memory,1000,m
 gthresh,energy=1.0d-12,orbital=1.0d-10,oneint=1.0d-16,twoint=1.0d-16,optgrad=1.0d-6,compress=1.0d-13
 geomtyp=xyz
 
 
 
 bohr
 geometry = {
  C    0.9156951494    1.4021116541   -2.2670517018
  C    0.7390066643    2.7125489062    0.0205759118
  C    0.9980893641    1.4093323699    2.3046392937
  C    1.4309689142   -1.1978557983    2.2896444591
  C    1.6083819132   -2.5078030887    0.0020585932
  C    1.3493579498   -1.2043625128   -2.2818004998
  H    0.7065795244    2.4061445487   -4.0398491638
  H    0.3879562152    4.7300641457    0.0292882344
  H    0.8563474338    2.4219711906    4.0794377036
  H    1.6299243675   -2.2130523895    4.0576617030
  H    1.9421341126   -4.5287476520    0.0051810161
  H    1.4822138658   -2.2075056674   -4.0629538935
  N   -5.4427889268   -0.3570395032   -0.0702591600
  H   -5.5916927706   -1.5658027950   -1.5528288602
  H   -6.0691826171   -1.3178775713    1.4677790960
  H   -3.5620592927   -0.0739154349    0.1985549452
 }
 
 basis=aug-cc-pvdz, H=cc-pvdz
 {rhf;maxit,200}
 {ccsd(t)}

 Variables initialized (661), CPU time= 0.01 sec
 Commands  initialized (458), CPU time= 0.00 sec, 486 directives.
 Default parameters read. Elapsed time= 0.05 sec

 Checking input...
 Passed
1


                                         ***  PROGRAM SYSTEM MOLPRO  ***
                         Copyright, University College Cardiff Consultants Limited, 2008

                                    Version 2010.1 linked May 16 2016 07:17:05


 **********************************************************************************************************************************
 LABEL *   Optimization of h2o_3                                                         
 Linux-4.4.3/n072(x86_64) 64 bit mpp version                                             DATE: 20-Mar-24          TIME: 14:54:07  
 **********************************************************************************************************************************

 SHA1:             9e8077add272b0f3cad6f7df79ec5211205f459d
 **********************************************************************************************************************************

 THRESHOLDS:

 ZERO    =  1.00D-12  ONEINT  =  1.00D-16  TWOINT  =  1.00D-16  PREFAC  =  1.00D-14  LOCALI  =  1.00D-09  EORDER  =  1.00D-04
 ENERGY  =  1.00D-12  ETEST   =  0.00D+00  EDENS   =  0.00D+00  THRDEDEF=  1.00D-06  GRADIENT=  1.00D-02  STEP    =  1.00D-03
 ORBITAL =  1.00D-10  CIVEC   =  1.00D-05  COEFF   =  1.00D-04  PRINTCI =  5.00D-02  PUNCHCI =  9.90D+01  OPTGRAD =  1.00D-06
 OPTENERG=  1.00D-06  OPTSTEP =  3.00D-04  THRGRAD =  1.00D-10  COMPRESS=  1.00D-13  VARMIN  =  1.00D-07  VARMAX  =  1.00D-03
 THRDOUB =  0.00D+00  THRDIV  =  1.00D-05  THRRED  =  1.00D-07  THRPSP  =  1.00D+00  THRDC   =  1.00D-10  THRCS   =  1.00D-10
 THRNRM  =  1.00D-08  THREQ   =  0.00D+00  THRDE   =  1.00D+00  THRREF  =  1.00D-05  SPARFAC =  1.00D+00  THRDLP  =  1.00D-07
 THRDIA  =  1.00D-10  THRDLS  =  1.00D-07  THRGPS  =  0.00D+00  THRKEX  =  0.00D+00  THRDIS  =  2.00D-01  THRVAR  =  1.00D-10
 THRLOC  =  1.00D-06  THRGAP  =  1.00D-06  THRLOCT = -1.00D+00  THRGAPT = -1.00D+00  THRORB  =  1.00D-06  THRMLTP =  0.00D+00
 THRCPQCI=  1.00D-10  KEXTA   =  0.00D+00  THRCOARS=  0.00D+00  SYMTOL  =  1.00D-06  GRADTOL =  1.00D-06  THROVL  =  1.00D-08
 THRORTH =  1.00D-08  GRID    =  1.00D-06  GRIDMAX =  1.00D-03  DTMAX   =  0.00D+00

 SETTING GEOMTYP        =    XYZ
 ZUNIT=BOHR
 

 Variable memory set to 1000000000 words,  buffer space   230000 words

 SETTING BASIS          =    AUG-CC-PVDZ,H=CC-PVDZ


 Recomputing integrals since basis changed


 Using spherical harmonics

 Library entry C      S aug-cc-pVDZ          selected for orbital group  1
 Library entry C      P aug-cc-pVDZ          selected for orbital group  1
 Library entry C      D aug-cc-pVDZ          selected for orbital group  1
 Library entry H      S cc-pVDZ              selected for orbital group  2
 Library entry H      P cc-pVDZ              selected for orbital group  2
 Library entry N      S aug-cc-pVDZ          selected for orbital group  3
 Library entry N      P aug-cc-pVDZ          selected for orbital group  3
 Library entry N      D aug-cc-pVDZ          selected for orbital group  3

1PROGRAM * SEWARD (Integral evaluation for generally contracted gaussian basis sets)     Author: Roland Lindh, 1990

 Geometry written to block  1 of record 700


 Point group  C1  



 ATOMIC COORDINATES

 NR  ATOM    CHARGE       X              Y              Z

   1  C       6.00    0.915695149    1.402111654   -2.267051702
   2  C       6.00    0.739006664    2.712548906    0.020575912
   3  C       6.00    0.998089364    1.409332370    2.304639294
   4  C       6.00    1.430968914   -1.197855798    2.289644459
   5  C       6.00    1.608381913   -2.507803089    0.002058593
   6  C       6.00    1.349357950   -1.204362513   -2.281800500
   7  H       1.00    0.706579524    2.406144549   -4.039849164
   8  H       1.00    0.387956215    4.730064146    0.029288234
   9  H       1.00    0.856347434    2.421971191    4.079437704
  10  H       1.00    1.629924367   -2.213052390    4.057661703
  11  H       1.00    1.942134113   -4.528747652    0.005181016
  12  H       1.00    1.482213866   -2.207505667   -4.062953893
  13  N       7.00   -5.442788927   -0.357039503   -0.070259160
  14  H       1.00   -5.591692771   -1.565802795   -1.552828860
  15  H       1.00   -6.069182617   -1.317877571    1.467779096
  16  H       1.00   -3.562059293   -0.073915435    0.198554945

 Bond lengths in Bohr (Angstrom)

 1-2  2.642291564  1-6  2.642345272  1-7  2.048077694  2-3  2.642431214  2-8  2.047847666
     ( 1.398240475)     ( 1.398268896)     ( 1.083796038)     ( 1.398314375)     ( 1.083674312)

  3- 4  2.642922567   3- 9  2.048276727   4- 5  2.642061008   4-10  2.048436566   5- 6  2.642359382
       ( 1.398574388)       ( 1.083901362)       ( 1.398118470)       ( 1.083985945)       ( 1.398276363)

  5-11  2.048320582   6-12  2.048524907  13-14  1.918669843  13-15  1.918629856  13-16  1.920823838
       ( 1.083924569)       ( 1.084032693)       ( 1.015316352)       ( 1.015295192)       ( 1.016456198)

 Bond angles

  1- 2- 3  119.81529452   1- 2- 8  120.24825832   1- 6- 5  119.85811915   1- 6-12  119.90344257

  2-1-6  120.33279074   2-1-7  119.96358450   2-3-4  119.84629656   2-3-9  119.89159095

  3- 2- 8  119.93476453   3- 4- 5  120.33215438   3- 4-10  119.99378671   4- 3- 9  120.26177966

  4- 5- 6  119.81531674   4- 5-11  119.92064275   5- 4-10  119.67405423   5- 6-12  120.23842369

  6- 1- 7  119.70288978   6- 5-11  120.26392613  14-13-15  106.17607583  14-13-16  106.08043224

 15-13-16  106.33745550

 NUCLEAR CHARGE:                   52
 NUMBER OF PRIMITIVE AOS:         322
 NUMBER OF SYMMETRY AOS:          308
 NUMBER OF CONTRACTIONS:          206   ( 206A   )
 NUMBER OF CORE ORBITALS:           7   (   7A   )
 NUMBER OF VALENCE ORBITALS:       37   (  37A   )


 NUCLEAR REPULSION ENERGY  273.71088161


 Eigenvalues of metric

         1 0.861E-05 0.184E-04 0.228E-04 0.532E-04 0.641E-04 0.645E-04 0.107E-03 0.107E-03


 Contracted 2-electron integrals neglected if value below      1.0D-16
 AO integral compression algorithm  1   Integral accuracy      1.0D-16

     1893.466 MB (compressed) written to integral file ( 94.6%)

     Node minimum: 1893.466 MB, node maximum: 1893.466 MB


 NUMBER OF SORTED TWO-ELECTRON INTEGRALS:  227303181.     BUFFER LENGTH:  32768
 NUMBER OF SEGMENTS:  15  SEGMENT LENGTH:   15999503      RECORD LENGTH: 524288

 Memory used in sort:      16.56 MW

 SORT1 READ   250230319. AND WROTE   226408619. INTEGRALS IN    654 RECORDS. CPU TIME:     2.49 SEC, REAL TIME:     4.04 SEC
 SORT2 READ   226408619. AND WROTE   227303181. INTEGRALS IN   7223 RECORDS. CPU TIME:     1.51 SEC, REAL TIME:     2.52 SEC

 FILE SIZES:   FILE 1:  1744.0 MBYTE,  FILE 4:  2743.1 MBYTE,   TOTAL:   4487.1 MBYTE

 OPERATOR DM      FOR CENTER  0  COORDINATES:    0.000000    0.000000    0.000000


 **********************************************************************************************************************************
 DATASETS  * FILE   NREC   LENGTH (MB)   RECORD NAMES
              1      19     1744.51       500      610      700      900      950      970     1000      129      960     1100   
                                          VAR    BASINP    GEOM    SYMINP    ZMAT    AOBASIS   BASIS     P2S    ABASIS      S 
                                         1400     1410     1200     1210     1080     1600     1650     1300     1700   
                                           T        V       H0       H01     AOSYM     SMH    MOLCAS    ERIS     OPER   

 PROGRAMS   *        TOTAL       INT
 CPU TIMES  *        15.11     15.06
 REAL TIME  *        19.09 SEC
 DISK USED  *         6.38 GB      
 GA USED    *         0.01 MB       (max)       0.00 MB       (current)
 **********************************************************************************************************************************

1PROGRAM * RHF-SCF (CLOSED SHELL)       Authors: W. Meyer, H.-J. Werner


 NUMBER OF ELECTRONS:      26+   26-    SPACE SYMMETRY=1    SPIN SYMMETRY: Singlet 
 CONVERGENCE THRESHOLDS:    1.00E-10 (Density)    1.00E-13 (Energy)
 MAX. NUMBER OF ITERATIONS:      200
 INTERPOLATION TYPE:            DIIS
 INTERPOLATION STEPS:              2 (START)      1 (STEP)
 LEVEL SHIFTS:                  0.00 (CLOSED)  0.00 (OPEN) 



 Orbital guess generated from atomic densities. Full valence occupancy:   44

 Molecular orbital dump at record        2100.2

 ITERATION    DDIFF          GRAD             ENERGY        2-EL.EN.            DIPOLE MOMENTS         DIIS
    1      0.000D+00      0.000D+00      -286.85322599    740.884003    0.51946   -0.76814    0.13482    0
    2      0.000D+00      0.322D-02      -286.92078327    735.093653    0.43510   -0.38439    0.06172    1
    3      0.826D-02      0.133D-02      -286.93011141    737.725468    0.45165   -0.52295    0.09141    2
    4      0.218D-02      0.381D-03      -286.93132942    737.205702    0.45024   -0.49618    0.08377    3
    5      0.783D-03      0.526D-04      -286.93135323    737.194470    0.45607   -0.50630    0.08765    4
    6      0.135D-03      0.177D-04      -286.93135566    737.209365    0.45492   -0.50079    0.08562    5
    7      0.511D-04      0.553D-05      -286.93135594    737.206282    0.45557   -0.50301    0.08635    6
    8      0.150D-04      0.129D-05      -286.93135596    737.205280    0.45572   -0.50265    0.08622    7
    9      0.417D-05      0.541D-06      -286.93135596    737.205737    0.45576   -0.50274    0.08624    7
   10      0.148D-05      0.142D-06      -286.93135596    737.205686    0.45576   -0.50274    0.08624    7
   11      0.514D-06      0.405D-07      -286.93135596    737.205672    0.45577   -0.50274    0.08624    7
   12      0.140D-06      0.171D-07      -286.93135596    737.205686    0.45577   -0.50274    0.08624    8
   13      0.603D-07      0.745D-08      -286.93135596    737.205681    0.45577   -0.50274    0.08624    8
   14      0.330D-07      0.361D-08      -286.93135596    737.205683    0.45577   -0.50274    0.08624    8
   15      0.198D-07      0.150D-08      -286.93135596    737.205682    0.45577   -0.50274    0.08624    8
   16      0.761D-08      0.521D-09      -286.93135596    737.205682    0.45577   -0.50274    0.08624    9
   17      0.238D-08      0.157D-09      -286.93135596    737.205682    0.45577   -0.50274    0.08624    9
   18      0.489D-09      0.578D-10      -286.93135596    737.205682    0.45577   -0.50274    0.08624    9
   19      0.158D-09      0.245D-10      -286.93135596    737.205682    0.45577   -0.50274    0.08624    9
   20      0.183D-09      0.859D-11      -286.93135596    737.205682    0.45577   -0.50274    0.08624    9
   21      0.162D-09      0.440D-11      -286.93135596    737.205682    0.45577   -0.50274    0.08624    9
   22      0.150D-09      0.222D-11      -286.93135596    737.205682    0.45577   -0.50274    0.08624    9
   23      0.138D-09      0.104D-11      -286.93135596    737.205682    0.45577   -0.50274    0.08624    9
   24      0.141D-09      0.704D-12      -286.93135596    737.205682    0.45577   -0.50274    0.08624    9
   25      0.787D-10      0.591D-12      -286.93135596    737.205682    0.45577   -0.50274    0.08624    9
   26      0.476D-10      0.481D-12      -286.93135596    737.205682    0.45577   -0.50274    0.08624    9
   27      0.385D-10      0.470D-12      -286.93135596    737.205682    0.45577   -0.50274    0.08624    9
   28      0.253D-10      0.518D-12      -286.93135596    737.205682    0.45577   -0.50274    0.08624    9
   29      0.189D-10      0.473D-12      -286.93135596    737.205682    0.45577   -0.50274    0.08624    9
   30      0.137D-10      0.460D-12      -286.93135596    737.205682    0.45577   -0.50274    0.08624    9
   31      0.135D-10      0.436D-12      -286.93135596    737.205682    0.45577   -0.50274    0.08624    9
   32      0.189D-10      0.629D-12      -286.93135596    737.205682    0.45577   -0.50274    0.08624    9
   33      0.129D-10      0.561D-12      -286.93135596    737.205682    0.45577   -0.50274    0.08624    9
   34      0.102D-10      0.413D-12      -286.93135596    737.205682    0.45577   -0.50274    0.08624    9
   35      0.160D-10      0.423D-12      -286.93135596    737.205682    0.45577   -0.50274    0.08624    9
   36      0.153D-10      0.421D-12      -286.93135596    737.205682    0.45577   -0.50274    0.08624    9
   37      0.205D-10      0.571D-12      -286.93135596    737.205682    0.45577   -0.50274    0.08624    9
   38      0.312D-10      0.496D-12      -286.93135596    737.205682    0.45577   -0.50274    0.08624    9
   39      0.152D-10      0.474D-12      -286.93135596    737.205682    0.45577   -0.50274    0.08624    9
   40      0.176D-10      0.405D-12      -286.93135596    737.205682    0.45577   -0.50274    0.08624    9
   41      0.189D-10      0.462D-12      -286.93135596    737.205682    0.45577   -0.50274    0.08624    9
   42      0.158D-10      0.516D-12      -286.93135596    737.205682    0.45577   -0.50274    0.08624    9
   43      0.783D-11      0.456D-12      -286.93135596    737.205682    0.45577   -0.50274    0.08624    9
   44      0.862D-11      0.412D-12      -286.93135596    737.205682    0.45577   -0.50274    0.08624    9
   45      0.115D-10      0.450D-12      -286.93135596    737.205682    0.45577   -0.50274    0.08624    9
   46      0.208D-10      0.517D-12      -286.93135596    737.205682    0.45577   -0.50274    0.08624    0

 Final occupancy:  26

 !RHF STATE 1.1 Energy               -286.931355958824
 Nuclear energy                       273.71088161
 One-electron energy                 -929.24507862
 Two-electron energy                  368.60284105
 Virial quotient                       -1.00146518
 !RHF STATE 1.1 Dipole moment           0.45576794    -0.50274353     0.08624289
 Dipole moment /Debye                   1.15837069    -1.27776291     0.21919321

 Orbital energies:

         1.1          2.1          3.1          4.1          5.1          6.1          7.1          8.1          9.1         10.1
    -15.535006   -11.250630   -11.250033   -11.249685   -11.248807   -11.248647   -11.247824    -1.157505    -1.125561    -1.022365

        11.1         12.1         13.1         14.1         15.1         16.1         17.1         18.1         19.1         20.1
     -1.021641    -0.830786    -0.830386    -0.714506    -0.650457    -0.623922    -0.611680    -0.609819    -0.594217    -0.592801

        21.1         22.1         23.1         24.1         25.1         26.1         27.1         28.1
     -0.504904    -0.500788    -0.499332    -0.413436    -0.343005    -0.341958     0.063885     0.066430


 **********************************************************************************************************************************
 DATASETS  * FILE   NREC   LENGTH (MB)   RECORD NAMES
              1      19     1744.51       500      610      700      900      950      970     1000      129      960     1100   
                                          VAR    BASINP    GEOM    SYMINP    ZMAT    AOBASIS   BASIS     P2S    ABASIS      S 
                                         1400     1410     1200     1210     1080     1600     1650     1300     1700   
                                           T        V       H0       H01     AOSYM     SMH    MOLCAS    ERIS     OPER   

              2       3        1.40       700     1000     2100   
                                         GEOM     BASIS     RHF  

 PROGRAMS   *        TOTAL       RHF       INT
 CPU TIMES  *        96.97     81.86     15.06
 REAL TIME  *       110.46 SEC
 DISK USED  *         6.38 GB      
 GA USED    *         0.01 MB       (max)       0.00 MB       (current)
 **********************************************************************************************************************************


1PROGRAM * CCSD (Closed-shell coupled cluster)     Authors: C. Hampel, H.-J. Werner, 1991, M. Deegan, P.J. Knowles, 1992


 Convergence thresholds:  THRVAR = 1.00D-08  THRDEN = 1.00D-12

 CCSD(T)     terms to be evaluated (factor= 1.000)


 Number of core orbitals:           7 (   7 )
 Number of closed-shell orbitals:  19 (  19 )
 Number of external orbitals:     180 ( 180 )

 Molecular orbitals read from record     2100.2  Type=RHF/CANONICAL (state 1.1)

 Number of N-1 electron functions:              19
 Number of N-2 electron functions:             190
 Number of singly external CSFs:              3420
 Number of doubly external CSFs:           5849910
 Total number of CSFs:                     5853331

 Length of J-op  integral file:               0.00 MB
 Length of K-op  integral file:               2.96 MB
 Length of 3-ext integral record:             0.00 MB

 Memory could be reduced to 140.12 Mwords without degradation in triples

 Integral transformation finished. Total CPU:  14.43 sec, npass=  1  Memory used: 101.90 MW

 Reference energy:                   -286.93135596

 MP2 singlet pair energy:              -0.62063284
 MP2 triplet pair energy:              -0.38983476
 MP2 correlation energy:               -1.01046760
 MP2 total energy:                   -287.94182356

 SCS-MP2 correlation energy:           -0.98732326   (PS=  1.200000  PT=  0.333333)
 SCS-MP2 total energy:               -287.91867922

 ITER.      SQ.NORM     CORR.ENERGY   TOTAL ENERGY   ENERGY CHANGE        DEN1      VAR(S)    VAR(P)  DIIS     TIME
   1      1.38488289    -1.05475950  -287.98611545    -0.04429190    -0.01721319  0.36D-02  0.80D-02  1  1    50.63
   2      1.41439593    -1.06062213  -287.99197809    -0.00586263    -0.02705315  0.63D-04  0.10D-02  2  2    87.31
   3      1.42352690    -1.06071783  -287.99207379    -0.00009570    -0.00464334  0.27D-04  0.84D-04  3  3   124.08
   4      1.42746396    -1.06088658  -287.99224254    -0.00016875    -0.00121404  0.22D-05  0.11D-04  4  4   160.88
   5      1.42867762    -1.06091753  -287.99227349    -0.00003095    -0.00027326  0.27D-06  0.13D-05  5  5   197.67
   6      1.42898024    -1.06090729  -287.99226325     0.00001023    -0.00004349  0.23D-07  0.79D-07  6  6   234.52
   7      1.42902098    -1.06090893  -287.99226488    -0.00000163    -0.00000103  0.35D-08  0.82D-08  6  2   271.37
   8      1.42903017    -1.06090878  -287.99226474     0.00000014    -0.00000117  0.75D-09  0.76D-09  6  1   308.24
   9      1.42903000    -1.06090892  -287.99226488    -0.00000014     0.00000123  0.21D-09  0.92D-10  6  4   345.07
  10      1.42903119    -1.06090893  -287.99226489    -0.00000001    -0.00000018  0.57D-10  0.15D-10  6  3   381.92
  11      1.42903114    -1.06090895  -287.99226490    -0.00000002     0.00000013  0.14D-10  0.37D-11  6  5   418.77
  12      1.42903110    -1.06090895  -287.99226491    -0.00000000     0.00000003  0.15D-11  0.10D-11  6  6   455.58
  13      1.42903092    -1.06090895  -287.99226491    -0.00000000     0.00000006  0.69D-13  0.20D-12  6  2   492.44
  14      1.42903082    -1.06090895  -287.99226491    -0.00000000     0.00000002  0.81D-14  0.40D-13  6  1   529.28
  15      1.42903076    -1.06090895  -287.99226491    -0.00000000     0.00000001  0.89D-15  0.54D-14  6  3   566.12
  16      1.42903074    -1.06090895  -287.99226491    -0.00000000     0.00000000  0.12D-15  0.37D-15  6  4   602.96
  17      1.42903074    -1.06090895  -287.99226491    -0.00000000     0.00000000  0.31D-16  0.44D-16  6  5   639.79
  18      1.42903074    -1.06090895  -287.99226491    -0.00000000     0.00000000  0.82D-17  0.71D-17  6  6   676.66
  19      1.42903074    -1.06090895  -287.99226491    -0.00000000     0.00000000  0.24D-17  0.77D-18  6  2   713.53
  20      1.42903074    -1.06090895  -287.99226491    -0.00000000     0.00000000  0.77D-18  0.19D-18  6  1   750.38
  21      1.42903074    -1.06090895  -287.99226491    -0.00000000     0.00000000  0.30D-18  0.79D-19  6  3   787.21
  22      1.42903074    -1.06090895  -287.99226491    -0.00000000     0.00000000  0.12D-18  0.36D-19  6  4   824.04
  23      1.42903074    -1.06090895  -287.99226491    -0.00000000     0.00000000  0.56D-19  0.21D-19  6  6   860.87

 Norm of t1 vector:      0.08385697      S-energy:    -0.00000000      T1 diagnostic:  0.00961905
                                                                       D1 diagnostic:  0.02619603

 Doubles amplitudes (print threshold =  0.500E-01):

         I         J         SYM. A    SYM. B    A         B      T(IJ, AB)

        18        18         1         1         6         6     -0.05094458
        19        19         1         1         7         7     -0.05595749


 Total CPU time for triples:    764.85 sec


 RESULTS
 =======

  Reference energy                   -286.931355958828
  CCSD singlet pair energy             -0.711157063761
  CCSD triplet pair energy             -0.349751889449
  CCSD correlation energy              -1.060908953211

  Triples (T) contribution             -0.045602903563
  Total correlation energy             -1.106511856774

  CCSD total energy                  -287.992264912038
  CCSD[T] energy                     -288.038738035784
  CCSD-T energy                      -288.037479267681
 !CCSD(T) total energy               -288.037867815601

 Timing summary (sec):

 STEP                 CPU(USER)    SYS     CPU(TOT)    WALL
 Transformation         14.86      0.90     15.76     15.77
 CCSD iterations       846.03     13.09    859.12    859.22
 Triples               764.85     13.16    778.01    778.04

 Program statistics:

 Available memory in ccsd:               999998456
 Min. memory needed in ccsd:              14392275
 Max. memory used in ccsd:                19775697
 Max. memory used in cckext:              16737545 (23 integral passes)



 **********************************************************************************************************************************
 DATASETS  * FILE   NREC   LENGTH (MB)   RECORD NAMES
              1      20     2288.12       500      610      700      900      950      970     1000      129      960     1100   
                                          VAR    BASINP    GEOM    SYMINP    ZMAT    AOBASIS   BASIS     P2S    ABASIS      S 
                                         1400     1410     1200     1210     1080     1600     1650     1300     1700     1380   
                                           T        V       H0       H01     AOSYM     SMH    MOLCAS    ERIS     OPER     JKOP   

              2       3        1.40       700     1000     2100   
                                         GEOM     BASIS     RHF  

 PROGRAMS   *        TOTAL   CCSD(T)       RHF       INT
 CPU TIMES  *      1722.73   1625.75     81.86     15.06
 REAL TIME  *      1763.60 SEC
 DISK USED  *         6.38 GB      
 GA USED    *         0.01 MB       (max)       0.00 MB       (current)
 **********************************************************************************************************************************

        CCSD(T)         RHF-SCF 
   -288.03786782   -286.93135596
 **********************************************************************************************************************************
 Variable memory released
