
 Primary working directories    : /tmp/879303.101.gen6.q
 Secondary working directories  : /tmp/879303.101.gen6.q
 Wavefunction directory         : /home/vulcan/lo21740/wfu/
 Main file repository           : /tmp/879303.101.gen6.q/

 ARCHNAME  : Linux/x86_64
 FC        : /opt/intel/compilers_and_libraries_2016.1.150/linux/bin/intel64/ifort
 FCVERSION : 16.0.1
 BLASLIB   : -mkl
 id        : ccgc

 Nodes     nprocs
 n077         1
 ga_uses_ma=false, calling ma_init with nominal heap.
 GA-space will be limited to   8.0 MW (determined by -G option)

 Using customized tuning parameters: mindgm=10; mindgv=16; mindgc=4; mindgr=1; noblas=0; mincuda=1000; minvec=7
 default implementation of scratch files=df  

 ***,Optimization of formamide
 memory,1000,m
 gthresh,energy=1.0d-12,orbital=1.0d-10,oneint=1.0d-16,twoint=1.0d-16,optgrad=1.0d-6,compress=1.0d-13
 geomtyp=xyz
 
 bohr
 geometry = {
  C   -3.8260871978    0.0877817672    0.0000032539
  O   -2.7273641410    2.1430488212    0.0001339715
  N   -2.6822662217   -2.1789440035   -0.0002377224
  H   -3.7370335195   -3.7581098182   -0.0000014012
  H   -0.7540666838   -2.3045271072    0.0003514870
  H   -5.9034483057   -0.0216346839    0.0000000990
  C    3.8260871978   -0.0877817672   -0.0000032539
  O    2.7273641410   -2.1430488212   -0.0001339715
  N    2.6822662217    2.1789440035    0.0002377224
  H    3.7370335195    3.7581098182    0.0000014012
  H    0.7540666838    2.3045271072   -0.0003514870
  H    5.9034483057    0.0216346839   -0.0000000990
 }
 
 basis=AVDZ, H=VDZ
 {rhf;maxit,200}
 {ccsd(t);maxit,200}

 Variables initialized (661), CPU time= 0.00 sec
 Commands  initialized (458), CPU time= 0.00 sec, 486 directives.
 Default parameters read. Elapsed time= 0.05 sec

 Checking input...
 Passed
1


                                         ***  PROGRAM SYSTEM MOLPRO  ***
                         Copyright, University College Cardiff Consultants Limited, 2008

                                    Version 2010.1 linked May 16 2016 07:17:05


 **********************************************************************************************************************************
 LABEL *   Optimization of formamide                                                     
 Linux-4.4.3/n077(x86_64) 64 bit mpp version                                             DATE: 23-May-23          TIME: 12:31:52  
 **********************************************************************************************************************************

 SHA1:             9e8077add272b0f3cad6f7df79ec5211205f459d
 **********************************************************************************************************************************

 THRESHOLDS:

 ZERO    =  1.00D-12  ONEINT  =  1.00D-16  TWOINT  =  1.00D-16  PREFAC  =  1.00D-14  LOCALI  =  1.00D-09  EORDER  =  1.00D-04
 ENERGY  =  1.00D-12  ETEST   =  0.00D+00  EDENS   =  0.00D+00  THRDEDEF=  1.00D-06  GRADIENT=  1.00D-02  STEP    =  1.00D-03
 ORBITAL =  1.00D-10  CIVEC   =  1.00D-05  COEFF   =  1.00D-04  PRINTCI =  5.00D-02  PUNCHCI =  9.90D+01  OPTGRAD =  1.00D-06
 OPTENERG=  1.00D-06  OPTSTEP =  3.00D-04  THRGRAD =  1.00D-10  COMPRESS=  1.00D-13  VARMIN  =  1.00D-07  VARMAX  =  1.00D-03
 THRDOUB =  0.00D+00  THRDIV  =  1.00D-05  THRRED  =  1.00D-07  THRPSP  =  1.00D+00  THRDC   =  1.00D-10  THRCS   =  1.00D-10
 THRNRM  =  1.00D-08  THREQ   =  0.00D+00  THRDE   =  1.00D+00  THRREF  =  1.00D-05  SPARFAC =  1.00D+00  THRDLP  =  1.00D-07
 THRDIA  =  1.00D-10  THRDLS  =  1.00D-07  THRGPS  =  0.00D+00  THRKEX  =  0.00D+00  THRDIS  =  2.00D-01  THRVAR  =  1.00D-10
 THRLOC  =  1.00D-06  THRGAP  =  1.00D-06  THRLOCT = -1.00D+00  THRGAPT = -1.00D+00  THRORB  =  1.00D-06  THRMLTP =  0.00D+00
 THRCPQCI=  1.00D-10  KEXTA   =  0.00D+00  THRCOARS=  0.00D+00  SYMTOL  =  1.00D-06  GRADTOL =  1.00D-06  THROVL  =  1.00D-08
 THRORTH =  1.00D-08  GRID    =  1.00D-06  GRIDMAX =  1.00D-03  DTMAX   =  0.00D+00

 SETTING GEOMTYP        =    XYZ
 ZUNIT=BOHR
 

 Variable memory set to 1000000000 words,  buffer space   230000 words

 SETTING BASIS          =    AVDZ,H=VDZ


 Recomputing integrals since basis changed


 Using spherical harmonics

 Library entry C      S aug-cc-pVDZ          selected for orbital group  1
 Library entry C      P aug-cc-pVDZ          selected for orbital group  1
 Library entry C      D aug-cc-pVDZ          selected for orbital group  1
 Library entry O      S aug-cc-pVDZ          selected for orbital group  2
 Library entry O      P aug-cc-pVDZ          selected for orbital group  2
 Library entry O      D aug-cc-pVDZ          selected for orbital group  2
 Library entry N      S aug-cc-pVDZ          selected for orbital group  3
 Library entry N      P aug-cc-pVDZ          selected for orbital group  3
 Library entry N      D aug-cc-pVDZ          selected for orbital group  3
 Library entry H      S cc-pVDZ              selected for orbital group  4
 Library entry H      P cc-pVDZ              selected for orbital group  4

1PROGRAM * SEWARD (Integral evaluation for generally contracted gaussian basis sets)     Author: Roland Lindh, 1990

 Geometry written to block  1 of record 700


 Point group  Ci  



 ATOMIC COORDINATES

 NR  ATOM    CHARGE       X              Y              Z

   1  C       6.00   -3.826087198    0.087781767    0.000003254
   2  C       6.00    3.826087198   -0.087781767   -0.000003254
   3  O       8.00   -2.727364141    2.143048821    0.000133971
   4  O       8.00    2.727364141   -2.143048821   -0.000133971
   5  N       7.00   -2.682266222   -2.178944003   -0.000237722
   6  N       7.00    2.682266222    2.178944003    0.000237722
   7  H       1.00   -3.737033520   -3.758109818   -0.000001401
   8  H       1.00    3.737033520    3.758109818    0.000001401
   9  H       1.00   -0.754066684   -2.304527107    0.000351487
  10  H       1.00    0.754066684    2.304527107   -0.000351487
  11  H       1.00   -5.903448306   -0.021634684    0.000000099
  12  H       1.00    5.903448306    0.021634684   -0.000000099

 Bond lengths in Bohr (Angstrom)

  1- 3  2.330518190   1- 5  2.538970698   1-11  2.080240643   2- 4  2.330518190   2- 6  2.538970698
       ( 1.233257112)       ( 1.343565427)       ( 1.100815937)       ( 1.233257112)       ( 1.343565427)

  2-12  2.080240643   5- 7  1.899025745   5- 9  1.932284896   6- 8  1.899025745   6-10  1.932284896
       ( 1.100815937)       ( 1.004921143)       ( 1.022521128)       ( 1.004921143)       ( 1.022521128)

 Bond angles

  1- 5- 7  119.48383323   1- 5- 9  120.50253070   2- 6- 8  119.48383323   2- 6-10  120.50253070

  3- 1- 5  125.09539347   3- 1-11  121.14350097   4- 2- 6  125.09539347   4- 2-12  121.14350097

  5- 1-11  113.76110551   6- 2-12  113.76110551   7- 5- 9  120.01362694   8- 6-10  120.01362694

 NUCLEAR CHARGE:                   48
 NUMBER OF PRIMITIVE AOS:         264
 NUMBER OF SYMMETRY AOS:          252
 NUMBER OF CONTRACTIONS:          168   (  84Ag  +  84Au  )
 NUMBER OF CORE ORBITALS:           6   (   3Ag  +   3Au  )
 NUMBER OF VALENCE ORBITALS:       30   (  15Ag  +  15Au  )


 NUCLEAR REPULSION ENERGY  230.40699667


 Eigenvalues of metric

         1 0.626E-03 0.114E-02 0.162E-02 0.366E-02 0.514E-02 0.795E-02 0.800E-02 0.902E-02
         2 0.417E-03 0.135E-02 0.169E-02 0.436E-02 0.526E-02 0.720E-02 0.813E-02 0.108E-01


 Contracted 2-electron integrals neglected if value below      1.0D-16
 AO integral compression algorithm  1   Integral accuracy      1.0D-16

     448.266 MB (compressed) written to integral file ( 86.5%)

     Node minimum: 448.266 MB, node maximum: 448.266 MB


 NUMBER OF SORTED TWO-ELECTRON INTEGRALS:   50983170.     BUFFER LENGTH:  32768
 NUMBER OF SEGMENTS:   4  SEGMENT LENGTH:   15993600      RECORD LENGTH: 524288

 Memory used in sort:      16.55 MW

 SORT1 READ    64801056. AND WROTE    50981962. INTEGRALS IN    147 RECORDS. CPU TIME:     0.61 SEC, REAL TIME:     0.93 SEC
 SORT2 READ    50981962. AND WROTE    50983170. INTEGRALS IN   1710 RECORDS. CPU TIME:     0.50 SEC, REAL TIME:     0.71 SEC

 FILE SIZES:   FILE 1:   365.3 MBYTE,  FILE 4:   616.6 MBYTE,   TOTAL:    981.9 MBYTE

 OPERATOR DM      FOR CENTER  0  COORDINATES:    0.000000    0.000000    0.000000


 **********************************************************************************************************************************
 DATASETS  * FILE   NREC   LENGTH (MB)   RECORD NAMES
              1      19      365.48       500      610      700      900      950      970     1000      129      960     1100   
                                          VAR    BASINP    GEOM    SYMINP    ZMAT    AOBASIS   BASIS     P2S    ABASIS      S 
                                         1400     1410     1200     1210     1080     1600     1650     1300     1700   
                                           T        V       H0       H01     AOSYM     SMH    MOLCAS    ERIS     OPER   

 PROGRAMS   *        TOTAL       INT
 CPU TIMES  *         3.74      3.71
 REAL TIME  *         4.70 SEC
 DISK USED  *         1.43 GB      
 GA USED    *         0.00 MB       (max)       0.00 MB       (current)
 **********************************************************************************************************************************

1PROGRAM * RHF-SCF (CLOSED SHELL)       Authors: W. Meyer, H.-J. Werner


 NUMBER OF ELECTRONS:      24+   24-
 CONVERGENCE THRESHOLDS:    1.00E-10 (Density)    1.00E-13 (Energy)
 MAX. NUMBER OF ITERATIONS:      200
 INTERPOLATION TYPE:            DIIS
 INTERPOLATION STEPS:              2 (START)      1 (STEP)
 LEVEL SHIFTS:                  0.00 (CLOSED)  0.00 (OPEN) 



 Orbital guess generated from atomic densities. Full valence occupancy:   18  18

 Molecular orbital dump at record        2100.2

 Initial alpha occupancy:  12  12
 Initial beta  occupancy:  12  12
 Wave function symmetry:    1

 ITERATION    DDIFF          GRAD             ENERGY        2-EL.EN.            DIPOLE MOMENTS         DIIS
    1      0.000D+00      0.000D+00      -337.80320395    704.477751    0.00000    0.00000    0.00000    0
    2      0.000D+00      0.908D-02      -337.88064198    698.881860    0.00000    0.00000    0.00000    1
    3      0.174D-01      0.663D-02      -337.93886527    701.625499    0.00000    0.00000    0.00000    2
    4      0.688D-02      0.874D-03      -337.94107906    701.526848    0.00000    0.00000    0.00000    3
    5      0.151D-02      0.301D-03      -337.94134624    701.462019    0.00000    0.00000    0.00000    4
    6      0.542D-03      0.984D-04      -337.94140707    701.487523    0.00000    0.00000    0.00000    5
    7      0.234D-03      0.436D-04      -337.94141795    701.478562    0.00000    0.00000    0.00000    6
    8      0.116D-03      0.130D-04      -337.94141889    701.484185    0.00000    0.00000    0.00000    7
    9      0.358D-04      0.396D-05      -337.94141896    701.481697    0.00000    0.00000    0.00000    8
   10      0.972D-05      0.137D-05      -337.94141897    701.482232    0.00000    0.00000    0.00000    7
   11      0.406D-05      0.328D-06      -337.94141897    701.482160    0.00000    0.00000    0.00000    8
   12      0.931D-06      0.490D-07      -337.94141897    701.482166    0.00000    0.00000    0.00000    7
   13      0.143D-06      0.116D-07      -337.94141897    701.482167    0.00000    0.00000    0.00000    7
   14      0.357D-07      0.207D-08      -337.94141897    701.482167    0.00000    0.00000    0.00000    6
   15      0.509D-08      0.785D-09      -337.94141897    701.482168    0.00000    0.00000    0.00000    6
   16      0.167D-08      0.318D-09      -337.94141897    701.482167    0.00000    0.00000    0.00000    7
   17      0.578D-09      0.757D-10      -337.94141897    701.482167    0.00000    0.00000    0.00000    7
   18      0.184D-09      0.224D-10      -337.94141897    701.482167    0.00000    0.00000    0.00000    7
   19      0.599D-10      0.765D-11      -337.94141897    701.482167    0.00000    0.00000    0.00000    7
   20      0.188D-10      0.268D-11      -337.94141897    701.482167    0.00000    0.00000    0.00000    7
   21      0.743D-11      0.562D-12      -337.94141897    701.482167    0.00000    0.00000    0.00000    8
   22      0.191D-11      0.218D-12      -337.94141897    701.482167    0.00000    0.00000    0.00000    8
   23      0.850D-12      0.827D-13      -337.94141897    701.482167    0.00000    0.00000    0.00000    8
   24      0.870D-12      0.611D-13      -337.94141897    701.482167    0.00000    0.00000    0.00000    0

 Final occupancy:  12  12

 !RHF STATE 1.1 Energy               -337.941418971524
 Nuclear energy                       230.40699667
 One-electron energy                 -919.08949938
 Two-electron energy                  350.74108374
 Virial quotient                       -1.00181604
 !RHF STATE 1.1 Dipole moment           0.00000000     0.00000000     0.00000000
 Dipole moment /Debye                   0.00000000     0.00000000     0.00000000

 Orbital energies:

         1.1          2.1          3.1          4.1          5.1          6.1          7.1          8.1          9.1         10.1
    -20.540894   -15.589611   -11.368875    -1.388165    -1.212402    -0.861255    -0.749694    -0.644827    -0.618895    -0.565141

        11.1         12.1         13.1         14.1
     -0.454323    -0.420365     0.068792     0.093360

         1.2          2.2          3.2          4.2          5.2          6.2          7.2          8.2          9.2         10.2
    -20.540894   -15.589610   -11.368875    -1.383381    -1.218663    -0.836189    -0.740748    -0.705425    -0.593345    -0.573234

        11.2         12.2         13.2         14.2
     -0.429106    -0.409748     0.067961     0.083216


 **********************************************************************************************************************************
 DATASETS  * FILE   NREC   LENGTH (MB)   RECORD NAMES
              1      19      365.48       500      610      700      900      950      970     1000      129      960     1100   
                                          VAR    BASINP    GEOM    SYMINP    ZMAT    AOBASIS   BASIS     P2S    ABASIS      S 
                                         1400     1410     1200     1210     1080     1600     1650     1300     1700   
                                           T        V       H0       H01     AOSYM     SMH    MOLCAS    ERIS     OPER   

              2       3        0.76       700     1000     2100   
                                         GEOM     BASIS     RHF  

 PROGRAMS   *        TOTAL       RHF       INT
 CPU TIMES  *        10.00      6.26      3.71
 REAL TIME  *        11.78 SEC
 DISK USED  *         1.43 GB      
 GA USED    *         0.00 MB       (max)       0.00 MB       (current)
 **********************************************************************************************************************************


1PROGRAM * CCSD (Closed-shell coupled cluster)     Authors: C. Hampel, H.-J. Werner, 1991, M. Deegan, P.J. Knowles, 1992


 Convergence thresholds:  THRVAR = 1.00D-08  THRDEN = 1.00D-12

 CCSD(T)     terms to be evaluated (factor= 1.000)


 Number of core orbitals:           6 (   3   3 )
 Number of closed-shell orbitals:  18 (   9   9 )
 Number of external orbitals:     144 (  72  72 )

 Molecular orbitals read from record     2100.2  Type=RHF/CANONICAL (state 1.1)

 Number of N-1 electron functions:              18
 Number of N-2 electron functions:             171
 Number of singly external CSFs:              1296
 Number of doubly external CSFs:           1680912
 Total number of CSFs:                     1682209

 Length of J-op  integral file:               0.00 MB
 Length of K-op  integral file:               1.01 MB
 Length of 3-ext integral record:             0.00 MB

 Memory could be reduced to 35.12 Mwords without degradation in triples

 Integral transformation finished. Total CPU:   2.02 sec, npass=  1  Memory used:  19.69 MW

 Reference energy:                   -337.94141897

 MP2 singlet pair energy:              -0.61982580
 MP2 triplet pair energy:              -0.40497791
 MP2 correlation energy:               -1.02480371
 MP2 total energy:                   -338.96622268

 SCS-MP2 correlation energy:           -0.99577722   (PS=  1.200000  PT=  0.333333)
 SCS-MP2 total energy:               -338.93719619

 ITER.      SQ.NORM     CORR.ENERGY   TOTAL ENERGY   ENERGY CHANGE        DEN1      VAR(S)    VAR(P)  DIIS     TIME
   1      1.31897600    -1.05346569  -338.99488466    -0.02866198     0.00253321  0.10D-01  0.60D-02  1  1     5.10
   2      1.34447106    -1.05539678  -338.99681576    -0.00193109    -0.02590715  0.22D-03  0.11D-02  2  2     8.34
   3      1.35711255    -1.05629864  -338.99771761    -0.00090185    -0.00556427  0.22D-03  0.51D-04  3  3    11.59
   4      1.36234064    -1.05603321  -338.99745218     0.00026542    -0.00169297  0.22D-04  0.93D-05  4  4    14.85
   5      1.36448390    -1.05597626  -338.99739523     0.00005695    -0.00044566  0.26D-05  0.11D-05  5  5    18.11
   6      1.36499700    -1.05594655  -338.99736552     0.00002971    -0.00004776  0.24D-06  0.17D-06  6  6    21.36
   7      1.36512560    -1.05593450  -338.99735347     0.00001205    -0.00000771  0.31D-07  0.22D-07  6  2    24.63
   8      1.36514973    -1.05593435  -338.99735332     0.00000015     0.00000004  0.58D-08  0.26D-08  6  1    27.89
   9      1.36515204    -1.05593404  -338.99735301     0.00000031     0.00000185  0.91D-09  0.46D-09  6  4    31.15
  10      1.36515611    -1.05593398  -338.99735295     0.00000006    -0.00000042  0.26D-09  0.46D-10  6  3    34.41
  11      1.36515632    -1.05593405  -338.99735302    -0.00000007     0.00000016  0.39D-10  0.11D-10  6  5    37.65
  12      1.36515612    -1.05593407  -338.99735304    -0.00000001     0.00000009  0.51D-11  0.27D-11  6  6    40.91
  13      1.36515582    -1.05593411  -338.99735308    -0.00000004     0.00000013  0.81D-12  0.33D-12  6  2    44.16
  14      1.36515566    -1.05593411  -338.99735309    -0.00000001     0.00000004  0.98D-13  0.66D-13  6  1    47.42
  15      1.36515560    -1.05593412  -338.99735309    -0.00000000     0.00000001  0.19D-13  0.13D-13  6  4    50.68
  16      1.36515557    -1.05593412  -338.99735309    -0.00000000     0.00000000  0.34D-14  0.19D-14  6  3    53.95
  17      1.36515556    -1.05593412  -338.99735309    -0.00000000    -0.00000000  0.72D-15  0.32D-15  6  5    57.21
  18      1.36515556    -1.05593412  -338.99735309    -0.00000000     0.00000000  0.91D-16  0.71D-16  6  6    60.48
  19      1.36515555    -1.05593412  -338.99735309    -0.00000000     0.00000000  0.25D-16  0.10D-16  6  2    63.73
  20      1.36515555    -1.05593412  -338.99735309    -0.00000000     0.00000000  0.32D-17  0.15D-17  6  1    67.00
  21      1.36515555    -1.05593412  -338.99735309    -0.00000000     0.00000000  0.35D-18  0.37D-18  6  4    70.28
  22      1.36515555    -1.05593412  -338.99735309    -0.00000000     0.00000000  0.14D-18  0.56D-19  6  3    73.54
  23      1.36515555    -1.05593412  -338.99735309    -0.00000000     0.00000000  0.18D-19  0.99D-20  6  5    76.80
  24      1.36515555    -1.05593412  -338.99735309    -0.00000000     0.00000000  0.42D-20  0.22D-20  6  6    80.05
  25      1.36515555    -1.05593412  -338.99735309    -0.00000000    -0.00000000  0.15D-20  0.52D-21  6  2    83.31
  26      1.36515555    -1.05593412  -338.99735309    -0.00000000     0.00000000  0.33D-21  0.13D-21  6  1    86.57

 Norm of t1 vector:      0.14843822      S-energy:     0.00000000      T1 diagnostic:  0.01749361
                                                                       D1 diagnostic:  0.05931614


 Total CPU time for triples:     81.77 sec


 RESULTS
 =======

  Reference energy                   -337.941418971525
  CCSD singlet pair energy             -0.696981680568
  CCSD triplet pair energy             -0.358952440515
  CCSD correlation energy              -1.055934121083

  Triples (T) contribution             -0.039345252583
  Total correlation energy             -1.095279373666

  CCSD total energy                  -338.997353092607
  CCSD[T] energy                     -339.039913073862
  CCSD-T energy                      -339.035596769338
 !CCSD(T) total energy               -339.036698345190

 Timing summary (sec):

 STEP                 CPU(USER)    SYS     CPU(TOT)    WALL
 Transformation          2.06      0.19      2.25      2.25
 CCSD iterations        84.51      2.91     87.42     88.54
 Triples                81.77      2.24     84.01     84.03

 Program statistics:

 Available memory in ccsd:               999998604
 Min. memory needed in ccsd:               4264540
 Max. memory used in ccsd:                 5806348
 Max. memory used in cckext:               5610853 (26 integral passes)



 **********************************************************************************************************************************
 DATASETS  * FILE   NREC   LENGTH (MB)   RECORD NAMES
              1      20      504.01       500      610      700      900      950      970     1000      129      960     1100   
                                          VAR    BASINP    GEOM    SYMINP    ZMAT    AOBASIS   BASIS     P2S    ABASIS      S 
                                         1400     1410     1200     1210     1080     1600     1650     1300     1700     1380   
                                           T        V       H0       H01     AOSYM     SMH    MOLCAS    ERIS     OPER     JKOP   

              2       3        0.76       700     1000     2100   
                                         GEOM     BASIS     RHF  

 PROGRAMS   *        TOTAL   CCSD(T)       RHF       INT
 CPU TIMES  *       178.35    168.35      6.26      3.71
 REAL TIME  *       186.66 SEC
 DISK USED  *         1.43 GB      
 GA USED    *         0.00 MB       (max)       0.00 MB       (current)
 **********************************************************************************************************************************

        CCSD(T)         RHF-SCF 
   -339.03669835   -337.94141897
 **********************************************************************************************************************************
 Variable memory released
