
    -----------------------------------------------------------------------
          Psi4: An Open-Source Ab Initio Electronic Structure Package
                               Psi4 1.4a2.dev629 

                         Git: Rev {master} 2938fc2 dirty


    D. G. A. Smith, L. A. Burns, A. C. Simmonett, R. M. Parrish,
    M. C. Schieber, R. Galvelis, P. Kraus, H. Kruse, R. Di Remigio,
    A. Alenaizan, A. M. James, S. Lehtola, J. P. Misiewicz, M. Scheurer,
    R. A. Shaw, J. B. Schriber, Y. Xie, Z. L. Glick, D. A. Sirianni,
    J. S. O'Brien, J. M. Waldrop, A. Kumar, E. G. Hohenstein,
    B. P. Pritchard, B. R. Brooks, H. F. Schaefer III, A. Yu. Sokolov,
    K. Patkowski, A. E. DePrince III, U. Bozkaya, R. A. King,
    F. A. Evangelista, J. M. Turney, T. D. Crawford, C. D. Sherrill,
    J. Chem. Phys. 152(18) 184108 (2020). https://doi.org/10.1063/5.0006002

                            Additional Code Authors
    E. T. Seidl, C. L. Janssen, E. F. Valeev, M. L. Leininger,
    J. F. Gonthier, R. M. Richard, H. R. McAlexander, M. Saitow, X. Wang,
    P. Verma, and M. H. Lechner

             Previous Authors, Complete List of Code Contributors,
                       and Citations for Specific Modules
    https://github.com/psi4/psi4/blob/master/codemeta.json
    https://github.com/psi4/psi4/graphs/contributors
    http://psicode.org/psi4manual/master/introduction.html#citing-psifour

    -----------------------------------------------------------------------


    Psi4 started on: Thursday, 04 November 2021 10:01AM

    Process ID: 29332
    Host:       n058
    PSIDATADIR: /opt/psi/4/master/share/psi4
    Memory:     500.0 MiB
    Threads:    1
    
  ==> Input File <==

--------------------------------------------------------------------------
import os
memory 14 GB 
 
molecule {
 N    1.5957151545    0.1760238548    0.0025917968
 C   -0.8147344222   -0.0264733682    1.4009704615
 C   -0.8143224502   -0.0258901219   -1.3983901561
 H   -1.1484265127   -1.7883175051    2.3858596655
 H   -1.4382753601    1.6557361230    2.3850090672
 H   -1.4378406168    1.6548703070   -2.3872016513
 H   -1.1490209656   -1.7884267038   -2.3863758444
 H    2.4243249432   -1.5535573359   -0.0024633392
units bohr
}

basis {

assign 6-31g_2dfp_

[ 6-31g_2dfp_ ]

spherical

!----------------------------------------------------------------------
! Basis Set Exchange
! Version v0.8.13
! https://www.basissetexchange.org
!----------------------------------------------------------------------
!   Basis set: 6-31G(2df,p)
! Description: 6-31G(2df,p)
!        Role: orbital
!     Version: 0  (Data from the original Basis Set Exchange)
!----------------------------------------------------------------------


****
H     0
S    3   1.00
     18.7311370              0.03349460
      2.8253937              0.23472695
      0.6401217              0.81375733
S    1   1.00
      0.1612778              1.00000000
P    1   1.00
      1.5000000              1.0000000
P    1   1.00
      0.3750000              1.0000000
****
B     0
S    6   1.00
   2068.8823000              0.0018663
    310.6495700              0.0142515
     70.6830330              0.0695516
     19.8610800              0.2325729
      6.2993048              0.4670787
      2.1270270              0.3634314
SP   3   1.00
      4.7279710             -0.1303938              0.0745976
      1.1903377             -0.1307889              0.3078467
      0.3594117              1.1309444              0.7434568
SP   1   1.00
      0.1267512              1.0000000              1.0000000
D    1   1.00
      0.8020000              1.0000000
D    1   1.00
      0.2005000              1.0000000
F    1   1.00
      0.5000000              1.0000000
****
C     0
S    6   1.00
   3047.5249000              0.0018347
    457.3695100              0.0140373
    103.9486900              0.0688426
     29.2101550              0.2321844
      9.2866630              0.4679413
      3.1639270              0.3623120
SP   3   1.00
      7.8682724             -0.1193324              0.0689991
      1.8812885             -0.1608542              0.3164240
      0.5442493              1.1434564              0.7443083
SP   1   1.00
      0.1687144              1.0000000              1.0000000
D    1   1.00
      1.2520000              1.0000000
D    1   1.00
      0.3130000              1.0000000
F    1   1.00
      0.8000000              1.0000000
****
N     0
S    6   1.00
   4173.5110000              0.0018348
    627.4579000              0.0139950
    142.9021000              0.0685870
     40.2343300              0.2322410
     12.8202100              0.4690700
      4.3904370              0.3604550
SP   3   1.00
     11.6263580             -0.1149610              0.0675800
      2.7162800             -0.1691180              0.3239070
      0.7722180              1.1458520              0.7408950
SP   1   1.00
      0.2120313              1.0000000              1.0000000
D    1   1.00
      1.8260000              1.0000000
D    1   1.00
      0.4565000              1.0000000
F    1   1.00
      1.0000000              1.0000000
****
O     0
S    6   1.00
   5484.6717000              0.0018311
    825.2349500              0.0139501
    188.0469600              0.0684451
     52.9645000              0.2327143
     16.8975700              0.4701930
      5.7996353              0.3585209
SP   3   1.00
     15.5396160             -0.1107775              0.0708743
      3.5999336             -0.1480263              0.3397528
      1.0137618              1.1307670              0.7271586
SP   1   1.00
      0.2700058              1.0000000              1.0000000
D    1   1.00
      2.5840000              1.0000000
D    1   1.00
      0.6460000              1.0000000
F    1   1.00
      1.4000000              1.0000000
****
F     0
S    6   1.00
   7001.7130900              0.0018196169
   1051.3660900              0.0139160796
    239.2856900              0.0684053245
     67.3974453              0.233185760
     21.5199573              0.471267439
      7.40310130             0.356618546
SP   3   1.00
     20.8479528             -0.108506975            0.0716287243
      4.80830834            -0.146451658            0.3459121030
      1.34406986             1.128688580            0.7224699570
SP   1   1.00
      0.358151393            1.0000000              1.0000000
D    1   1.00
      3.5000000              1.0000000
D    1   1.00
      0.8750000              1.0000000
F    1   1.00
      1.8500000              1.0000000
****
Al     0
S    6   1.00
  13983.1000000              0.00194267
   2098.7500000              0.0148599
    477.7050000              0.0728494
    134.3600000              0.2468300
     42.8709000              0.4872580
     14.5189000              0.3234960
SP   6   1.00
    239.6680000             -0.00292619             0.00460285
     57.4419000             -0.0374080              0.0331990
     18.2859000             -0.1144870              0.1362820
      6.5991400              0.1156350              0.3304760
      2.4904900              0.6125950              0.4491460
      0.9445400              0.3937990              0.2657040
SP   3   1.00
      1.2779000             -0.2276060             -0.0175130
      0.3975900              0.00144583             0.2445330
      0.1600950              1.0927900              0.8049340
SP   1   1.00
      0.0556577              1.0000000              1.0000000
D    1   1.00
      0.6500000              1.0000000
D    1   1.00
      0.1625000              1.0000000
F    1   1.00
      0.2500000              1.0000000
****
Si     0
S    6   1.00
  16115.9000000              0.00195948
   2425.5800000              0.01492880
    553.8670000              0.07284780
    156.3400000              0.24613000
     50.0683000              0.48591400
     17.0178000              0.32500200
SP   6   1.00
    292.7180000             -0.00278094             0.00443826
     69.8731000             -0.03571460             0.03266790
     22.3363000             -0.11498500             0.13472100
      8.1503900              0.09356340             0.32867800
      3.1345800              0.60301700             0.44964000
      1.2254300              0.41895900             0.26137200
SP   3   1.00
      1.7273800             -0.24463000            -0.01779510
      0.5729220              0.00431572             0.25353900
      0.2221920              1.09818000             0.80066900
SP   1   1.00
      0.0778369              1.00000000             1.00000000
D    1   1.00
      0.9000000              1.0000000
D    1   1.00
      0.2250000              1.0000000
F    1   1.00
      0.3200000              1.0000000
****
P     0
S    6   1.00
  19413.3000000              0.0018516
   2909.4200000              0.0142062
    661.3640000              0.0699995
    185.7590000              0.2400790
     59.1943000              0.4847620
     20.0310000              0.3352000
SP   6   1.00
    339.4780000             -0.00278217             0.00456462
     81.0101000             -0.0360499              0.03369360
     25.8780000             -0.1166310              0.13975500
      9.4522100              0.0968328              0.33936200
      3.6656600              0.6144180              0.45092100
      1.4674600              0.4037980              0.23858600
SP   3   1.00
      2.1562300             -0.2529230             -0.01776530
      0.7489970              0.0328517              0.27405800
      0.2831450              1.0812500              0.78542100
SP   1   1.00
      0.0998317              1.0000000              1.00000000
D    1   1.00
      1.1000000              1.0000000
D    1   1.00
      0.2750000              1.0000000
F    1   1.00
      0.4500000              1.0000000
****
S     0
S    6   1.00
  21917.1000000              0.0018690
   3301.4900000              0.0142300
    754.1460000              0.0696960
    212.7110000              0.2384870
     67.9896000              0.4833070
     23.0515000              0.3380740
SP   6   1.00
    423.7350000             -0.0023767              0.0040610
    100.7100000             -0.0316930              0.0306810
     32.1599000             -0.1133170              0.1304520
     11.8079000              0.0560900              0.3272050
      4.6311000              0.5922550              0.4528510
      1.8702500              0.4550060              0.2560420
SP   3   1.00
      2.6158400             -0.2503740             -0.0145110
      0.9221670              0.0669570              0.3102630
      0.3412870              1.0545100              0.7544830
SP   1   1.00
      0.1171670              1.0000000              1.0000000
D    1   1.00
      1.3000000              1.0000000
D    1   1.00
      0.3250000              1.0000000
F    1   1.00
      0.5500000              1.0000000
****
Cl     0
S    6   1.00
  25180.1000000              0.0018330
   3780.3500000              0.0140340
    860.4740000              0.0690970
    242.1450000              0.2374520
     77.3349000              0.4830340
     26.2470000              0.3398560
SP   6   1.00
    491.7650000             -0.0022974              0.0039894
    116.9840000             -0.0307140              0.0303180
     37.4153000             -0.1125280              0.1298800
     13.7834000              0.0450160              0.3279510
      5.4521500              0.5893530              0.4535270
      2.2258800              0.4652060              0.2521540
SP   3   1.00
      3.1864900             -0.2518300             -0.0142990
      1.1442700              0.0615890              0.3235720
      0.4203770              1.0601800              0.7435070
SP   1   1.00
      0.1426570              1.0000000              1.0000000
D    1   1.00
      1.5000000              1.0000000
D    1   1.00
      0.3750000              1.0000000
F    1   1.00
      0.7000000              1.0000000
****
}


set {
reference rhf                          
freeze_core true
e_convergence 10                       
d_convergence 10                      
dft_spherical_points 1202
dft_radial_points 99
}

e = energy('b3lyp')

print_out('Grab this energy {0}'.format(e))
--------------------------------------------------------------------------

  Memory set to  13.039 GiB by Python driver.

Scratch directory: /tmp/

*** tstart() called on n058
*** at Thu Nov  4 10:01:32 2021

   => Loading Basis Set <=

    Name: ANONYMOUS13D59BD8
    Role: ORBITAL
    Keyword: BASIS
    atoms 1   entry N          line    69 inputblock 6-31g_2dfp_ 
    atoms 2-3 entry C          line    48 inputblock 6-31g_2dfp_ 
    atoms 4-8 entry H          line    15 inputblock 6-31g_2dfp_ 


         ---------------------------------------------------------
                                   SCF
               by Justin Turney, Rob Parrish, Andy Simmonett
                          and Daniel G. A. Smith
                              RKS Reference
                        1 Threads,  13351 MiB Core
         ---------------------------------------------------------

  ==> Geometry <==

    Molecular point group: c1
    Full point group: C1

    Geometry (in Bohr), charge = 0, multiplicity = 1:

       Center              X                  Y                   Z               Mass       
    ------------   -----------------  -----------------  -----------------  -----------------
         N            1.595123095121     0.175963939265     0.001150322751    14.003074004430
         C           -0.815326481579    -0.026533283735     1.399528987451    12.000000000000
         C           -0.814914509579    -0.025950037435    -1.399831630149    12.000000000000
         H           -1.149018572079    -1.788377420635     2.384418191451     1.007825032230
         H           -1.438867419479     1.655676207465     2.383567593151     1.007825032230
         H           -1.438432676179     1.654810391465    -2.388643125349     1.007825032230
         H           -1.149613024979    -1.788486619335    -2.387817318449     1.007825032230
         H            2.423732883821    -1.553617251435    -0.003904813249     1.007825032230

  Running in c1 symmetry.

  Rotational constants: A =      0.76026  B =      0.70971  C =      0.44824 [cm^-1]
  Rotational constants: A =  22792.09286  B =  21276.48130  C =  13437.98504 [MHz]
  Nuclear repulsion =   76.080428757161130

  Charge       = 0
  Multiplicity = 1
  Electrons    = 24
  Nalpha       = 12
  Nbeta        = 12

  ==> Algorithm <==

  SCF Algorithm Type is DF.
  DIIS enabled.
  MOM disabled.
  Fractional occupation disabled.
  Guess Type is SAD.
  Energy threshold   = 1.00e-10
  Density threshold  = 1.00e-10
  Integral threshold = 0.00e+00

  ==> Primary Basis <==

  Basis Set: ANONYMOUS13D59BD8
    Blend: 6-31G_2DFP_
    Number of shells: 44
    Number of basis function: 118
    Number of Cartesian functions: 133
    Spherical Harmonics?: true
    Max angular momentum: 3

  ==> DFT Potential <==

   => Composite Functional: B3LYP <= 

    B3LYP Hyb-GGA Exchange-Correlation Functional

    P. J. Stephens, F. J. Devlin, C. F. Chabalowski, and M. J. Frisch, J. Phys. Chem. 98, 11623 (1994)

    Deriv               =              1
    GGA                 =           TRUE
    Meta                =          FALSE

    Exchange Hybrid     =           TRUE
    MP2 Hybrid          =          FALSE

   => Exchange Functionals <=

    0.0800   Slater exchange
    0.7200         Becke 88

   => Exact (HF) Exchange <=

    0.2000               HF 

   => Correlation Functionals <=

    0.1900   Vosko, Wilk & Nusair (VWN5_RPA)
    0.8100   Lee, Yang & Parr

   => Molecular Quadrature <=

    Radial Scheme          =       TREUTLER
    Pruning Scheme         =           NONE
    Nuclear Scheme         =       TREUTLER

    BS radius alpha        =              1
    Pruning alpha          =              1
    Radial Points          =             99
    Spherical Points       =           1202
    Total Points           =         895453
    Total Blocks           =           6031
    Max Points             =            256
    Max Functions          =            118
    Weights Tolerance      =       1.00E-15

   => Loading Basis Set <=

    Name: (ANONYMOUS13D59BD8 AUX)
    Role: JKFIT
    Keyword: DF_BASIS_SCF
    atoms 1   entry N          line   258 file /opt/psi/4/master/share/psi4/basis/def2-universal-jkfit.gbs 
    atoms 2-3 entry C          line   198 file /opt/psi/4/master/share/psi4/basis/def2-universal-jkfit.gbs 
    atoms 4-8 entry H          line    18 file /opt/psi/4/master/share/psi4/basis/def2-universal-jkfit.gbs 

  ==> Integral Setup <==

  DFHelper Memory: AOs need 0.037 GiB; user supplied 7.028 GiB. Using in-core AOs.

  ==> MemDFJK: Density-Fitted J/K Matrices <==

    J tasked:                   Yes
    K tasked:                   Yes
    wK tasked:                   No
    OpenMP threads:               1
    Memory [MiB]:              7196
    Algorithm:                 Core
    Schwarz Cutoff:           1E-12
    Mask sparsity (%):       0.0000
    Fitting Condition:        1E-10

   => Auxiliary Basis Set <=

  Basis Set: (ANONYMOUS13D59BD8 AUX)
    Blend: DEF2-UNIVERSAL-JKFIT
    Number of shells: 105
    Number of basis function: 317
    Number of Cartesian functions: 371
    Spherical Harmonics?: true
    Max angular momentum: 4

  Cached 100.0% of DFT collocation blocks in 2.751 [GiB].

  Minimum eigenvalue in the overlap matrix is 1.6419345546E-03.
  Reciprocal condition number of the overlap matrix is 2.7716835909E-04.
    Using symmetric orthogonalization.

  ==> Pre-Iterations <==

  SCF Guess: Superposition of Atomic Densities via on-the-fly atomic UHF (no occupation information).

   -------------------------
    Irrep   Nso     Nmo    
   -------------------------
     A        118     118 
   -------------------------
    Total     118     118
   -------------------------

  ==> Iterations <==

                           Total Energy        Delta E     RMS |[F,P]|

   @DF-RKS iter SAD:  -133.58301449682341   -1.33583e+02   0.00000e+00 
   @DF-RKS iter   1:  -133.71620772137766   -1.33193e-01   5.43496e-03 DIIS
   @DF-RKS iter   2:  -133.58842962810817    1.27778e-01   7.04403e-03 DIIS
   @DF-RKS iter   3:  -133.92913913756678   -3.40710e-01   6.96454e-04 DIIS
   @DF-RKS iter   4:  -133.93134882832621   -2.20969e-03   3.57516e-04 DIIS
   @DF-RKS iter   5:  -133.93212249653016   -7.73668e-04   5.10451e-05 DIIS
   @DF-RKS iter   6:  -133.93213810598991   -1.56095e-05   4.33875e-06 DIIS
   @DF-RKS iter   7:  -133.93213822374099   -1.17751e-07   1.33422e-06 DIIS
   @DF-RKS iter   8:  -133.93213823660241   -1.28614e-08   1.04442e-07 DIIS
   @DF-RKS iter   9:  -133.93213823665840   -5.59908e-11   6.48255e-08 DIIS
   @DF-RKS iter  10:  -133.93213823668594   -2.75406e-11   1.46809e-08 DIIS
   @DF-RKS iter  11:  -133.93213823668734   -1.39266e-12   1.62123e-09 DIIS
   @DF-RKS iter  12:  -133.93213823668719    1.42109e-13   1.23930e-10 DIIS
   @DF-RKS iter  13:  -133.93213823668722   -2.84217e-14   3.37679e-11 DIIS
  Energy and wave function converged.


  ==> Post-Iterations <==

    Orbital Energies [Eh]
    ---------------------

    Doubly Occupied:                                                      

       1A    -14.324015     2A    -10.205290     3A    -10.205061  
       4A     -0.946457     5A     -0.653721     6A     -0.611785  
       7A     -0.513503     8A     -0.462577     9A     -0.373562  
      10A     -0.336406    11A     -0.335850    12A     -0.245119  

    Virtual:                                                              

      13A      0.071360    14A      0.111912    15A      0.124806  
      16A      0.141432    17A      0.144668    18A      0.205810  
      19A      0.220896    20A      0.261813    21A      0.399700  
      22A      0.419912    23A      0.468746    24A      0.479129  
      25A      0.504491    26A      0.510721    27A      0.524307  
      28A      0.543291    29A      0.568913    30A      0.623495  
      31A      0.635987    32A      0.637304    33A      0.669760  
      34A      0.711906    35A      0.717304    36A      0.742261  
      37A      0.776812    38A      0.855965    39A      0.924471  
      40A      0.974030    41A      0.980934    42A      1.078060  
      43A      1.093167    44A      1.124201    45A      1.151159  
      46A      1.159821    47A      1.186882    48A      1.249763  
      49A      1.280951    50A      1.328106    51A      1.333759  
      52A      1.397856    53A      1.400788    54A      1.407985  
      55A      1.513885    56A      1.566035    57A      1.632687  
      58A      1.654695    59A      1.708251    60A      1.739706  
      61A      1.781237    62A      1.796480    63A      1.871147  
      64A      2.057862    65A      2.164638    66A      2.261126  
      67A      2.322948    68A      2.670853    69A      2.795400  
      70A      2.853665    71A      2.939944    72A      2.951531  
      73A      3.029344    74A      3.059450    75A      3.079897  
      76A      3.110650    77A      3.195981    78A      3.215951  
      79A      3.262790    80A      3.271425    81A      3.272576  
      82A      3.319721    83A      3.375491    84A      3.439976  
      85A      3.526713    86A      3.656279    87A      3.660252  
      88A      3.845354    89A      3.860557    90A      3.865280  
      91A      3.905850    92A      3.956043    93A      4.070059  
      94A      4.126853    95A      4.135652    96A      4.162575  
      97A      4.232933    98A      4.276804    99A      4.292308  
     100A      4.324279   101A      4.425501   102A      4.471280  
     103A      4.596039   104A      4.616995   105A      4.678885  
     106A      4.829363   107A      4.838120   108A      5.014047  
     109A      5.068706   110A      5.110581   111A      5.152119  
     112A      5.175823   113A      5.278378   114A      5.412141  
     115A      5.455182   116A      5.565916   117A      5.619470  
     118A      5.863061  

    Final Occupation by Irrep:
              A 
    DOCC [    12 ]

  @DF-RKS Final Energy:  -133.93213823668722

   => Energetics <=

    Nuclear Repulsion Energy =             76.0804287571611297
    One-Electron Energy =                -330.1717275262469116
    Two-Electron Energy =                 136.0555103142765461
    DFT Exchange-Correlation Energy =     -15.8963497818779924
    Empirical Dispersion Energy =           0.0000000000000000
    VV10 Nonlocal Energy =                  0.0000000000000000
    Total Energy =                       -133.9321382366872228

Computation Completed


Properties will be evaluated at   0.000000,   0.000000,   0.000000 [a0]

Properties computed using the SCF density matrix

  Nuclear Dipole Moment: [e a0]
     X:    -1.3678      Y:    -0.9031      Z:    -0.0061

  Electronic Dipole Moment: [e a0]
     X:     0.9894      Y:     0.3913      Z:     0.0056

  Dipole Moment: [e a0]
     X:    -0.3784      Y:    -0.5118      Z:    -0.0005     Total:     0.6365

  Dipole Moment: [D]
     X:    -0.9619      Y:    -1.3010      Z:    -0.0014     Total:     1.6179


*** tstop() called on n058 at Thu Nov  4 10:02:19 2021
Module time:
	user time   =      45.89 seconds =       0.76 minutes
	system time =       0.79 seconds =       0.01 minutes
	total time  =         47 seconds =       0.78 minutes
Total time:
	user time   =      45.89 seconds =       0.76 minutes
	system time =       0.79 seconds =       0.01 minutes
	total time  =         47 seconds =       0.78 minutes
Grab this energy -133.93213823668722
    Psi4 stopped on: Thursday, 04 November 2021 10:02AM
    Psi4 wall time for execution: 0:00:46.72

*** Psi4 exiting successfully. Buy a developer a beer!
