
 Primary working directories    : /tmp/985636.714.gen4.q
 Secondary working directories  : /tmp/985636.714.gen4.q
 Wavefunction directory         : /home/vulcan/jj04645/wfu/
 Main file repository           : /tmp/985636.714.gen4.q/

 ARCHNAME  : Linux/x86_64
 FC        : /opt/intel/compilers_and_libraries_2016.1.150/linux/bin/intel64/ifort
 FCVERSION : 16.0.1
 BLASLIB   : -mkl
 id        : ccgc

 Nodes     nprocs
 n067         1
 ga_uses_ma=false, calling ma_init with nominal heap.
 GA-space will be limited to   8.0 MW (determined by -G option)

 Using customized tuning parameters: mindgm=10; mindgv=16; mindgc=4; mindgr=1; noblas=0; mincuda=1000; minvec=7
 default implementation of scratch files=df  

 ***,Optimization of tetrahydrothiopyran
 memory,1000,m
 gthresh,energy=1.0d-12,orbital=1.0d-10,oneint=1.0d-16,twoint=1.0d-16,optgrad=1.0d-6,compress=1.0d-13
 geomtyp=xyz
 
 bohr
 geometry = {
  S    0.3513314510    2.6998905940   -0.0003798688
  C   -0.3305063495   -3.3652877307   -0.0005660412
  C   -0.6631198986    0.6690349812   -2.5818569088
  C   -0.6643590050    0.6690158171    2.5805948129
  C    0.4718723746   -1.9814600100   -2.4142710560
  C    0.4707135910   -1.9814779317    2.4135341479
  H   -2.7342192601    0.5676085651   -2.5800793792
  H   -2.7254692532    0.5680785542    2.5778356791
  H   -0.0688757038    1.6215308856   -4.3059978341
  H   -0.0680582917    1.6261283892    4.3134093483
  H    2.5339090033   -1.8360662391   -2.4806738122
  H    2.5327181055   -1.8360846573    2.4809278473
  H   -0.1275089569   -3.0744333955   -4.0660989678
  H   -0.1294606218   -3.0744635803    4.0650660241
  H    0.4652333867   -5.2719443743   -0.0003821234
  H   -2.3929355881   -3.5798912842   -0.0010618681
 }
 
 basis=VDZ
 {rhf;maxit,200}
 {ccsd(t);maxit,200}

 Variables initialized (661), CPU time= 0.00 sec
 Commands  initialized (458), CPU time= 0.00 sec, 486 directives.
 Default parameters read. Elapsed time= 0.04 sec

 Checking input...
 Passed
1


                                         ***  PROGRAM SYSTEM MOLPRO  ***
                         Copyright, University College Cardiff Consultants Limited, 2008

                                    Version 2010.1 linked May 16 2016 07:17:05


 **********************************************************************************************************************************
 LABEL *   Optimization of tetrahydrothiopyran                                           
 Linux-4.4.3/n067(x86_64) 64 bit mpp version                                             DATE: 26-Jan-24          TIME: 14:22:59  
 **********************************************************************************************************************************

 SHA1:             9e8077add272b0f3cad6f7df79ec5211205f459d
 **********************************************************************************************************************************

 THRESHOLDS:

 ZERO    =  1.00D-12  ONEINT  =  1.00D-16  TWOINT  =  1.00D-16  PREFAC  =  1.00D-14  LOCALI  =  1.00D-09  EORDER  =  1.00D-04
 ENERGY  =  1.00D-12  ETEST   =  0.00D+00  EDENS   =  0.00D+00  THRDEDEF=  1.00D-06  GRADIENT=  1.00D-02  STEP    =  1.00D-03
 ORBITAL =  1.00D-10  CIVEC   =  1.00D-05  COEFF   =  1.00D-04  PRINTCI =  5.00D-02  PUNCHCI =  9.90D+01  OPTGRAD =  1.00D-06
 OPTENERG=  1.00D-06  OPTSTEP =  3.00D-04  THRGRAD =  1.00D-10  COMPRESS=  1.00D-13  VARMIN  =  1.00D-07  VARMAX  =  1.00D-03
 THRDOUB =  0.00D+00  THRDIV  =  1.00D-05  THRRED  =  1.00D-07  THRPSP  =  1.00D+00  THRDC   =  1.00D-10  THRCS   =  1.00D-10
 THRNRM  =  1.00D-08  THREQ   =  0.00D+00  THRDE   =  1.00D+00  THRREF  =  1.00D-05  SPARFAC =  1.00D+00  THRDLP  =  1.00D-07
 THRDIA  =  1.00D-10  THRDLS  =  1.00D-07  THRGPS  =  0.00D+00  THRKEX  =  0.00D+00  THRDIS  =  2.00D-01  THRVAR  =  1.00D-10
 THRLOC  =  1.00D-06  THRGAP  =  1.00D-06  THRLOCT = -1.00D+00  THRGAPT = -1.00D+00  THRORB  =  1.00D-06  THRMLTP =  0.00D+00
 THRCPQCI=  1.00D-10  KEXTA   =  0.00D+00  THRCOARS=  0.00D+00  SYMTOL  =  1.00D-06  GRADTOL =  1.00D-06  THROVL  =  1.00D-08
 THRORTH =  1.00D-08  GRID    =  1.00D-06  GRIDMAX =  1.00D-03  DTMAX   =  0.00D+00

 SETTING GEOMTYP        =    XYZ
 ZUNIT=BOHR
 

 Variable memory set to 1000000000 words,  buffer space   230000 words

 SETTING BASIS          =    VDZ


 Recomputing integrals since basis changed


 Using spherical harmonics

 Library entry S      S cc-pVDZ              selected for orbital group  1
 Library entry S      P cc-pVDZ              selected for orbital group  1
 Library entry S      D cc-pVDZ              selected for orbital group  1
 Library entry C      S cc-pVDZ              selected for orbital group  2
 Library entry C      P cc-pVDZ              selected for orbital group  2
 Library entry C      D cc-pVDZ              selected for orbital group  2
 Library entry H      S cc-pVDZ              selected for orbital group  3
 Library entry H      P cc-pVDZ              selected for orbital group  3

1PROGRAM * SEWARD (Integral evaluation for generally contracted gaussian basis sets)     Author: Roland Lindh, 1990

 Geometry written to block  1 of record 700


 Point group  C1  



 ATOMIC COORDINATES

 NR  ATOM    CHARGE       X              Y              Z

   1  S      16.00    0.351331451    2.699890594   -0.000379869
   2  C       6.00   -0.330506350   -3.365287731   -0.000566041
   3  C       6.00   -0.663119899    0.669034981   -2.581856909
   4  C       6.00   -0.664359005    0.669015817    2.580594813
   5  C       6.00    0.471872375   -1.981460010   -2.414271056
   6  C       6.00    0.470713591   -1.981477932    2.413534148
   7  H       1.00   -2.734219260    0.567608565   -2.580079379
   8  H       1.00   -2.725469253    0.568078554    2.577835679
   9  H       1.00   -0.068875704    1.621530886   -4.305997834
  10  H       1.00   -0.068058292    1.626128389    4.313409348
  11  H       1.00    2.533909003   -1.836066239   -2.480673812
  12  H       1.00    2.532718105   -1.836084657    2.480927847
  13  H       1.00   -0.127508957   -3.074433395   -4.066098968
  14  H       1.00   -0.129460622   -3.074463580    4.065066024
  15  H       1.00    0.465233387   -5.271944374   -0.000382123
  16  H       1.00   -2.392935588   -3.579891284   -0.001061868

 Bond lengths in Bohr (Angstrom)

  1- 3  3.437660508   1- 4  3.437660508   2- 5  2.895645468   2- 6  2.895645468   2-15  2.066044849
       ( 1.819131593)       ( 1.819131593)       ( 1.532309587)       ( 1.532309587)       ( 1.093303847)

  2-16  2.073564394   3- 5  2.888150996   3- 7  2.073582177   3- 9  2.057434456   4- 6  2.888150996
       ( 1.097283019)       ( 1.528343683)       ( 1.097292429)       ( 1.088747423)       ( 1.528343683)

  4- 8  2.063582176   4-10  2.067434456   5-11  2.068222361   5-13  2.069392242   6-12  2.068222361
       ( 1.092000657)       ( 1.094039195)       ( 1.094456136)       ( 1.095075211)       ( 1.094456136)

  6-14  2.069392242
       ( 1.095075211)

 Bond angles

  1-3-5  112.49558609   1-3-7  108.84437806   1-3-9  105.69768092   1-4-6  112.49558607

  1- 4- 8  108.84437806   1- 4-10  105.69768092   2- 5- 3  112.21281611   2- 5-11  109.67156745

  2- 5-13  109.43267522   2- 6- 4  112.21281613   2- 6-12  109.67156744   2- 6-14  109.43267521

  3- 1- 4   97.33107720   3- 5-11  108.99161300   3- 5-13  108.93892958   4- 6-12  108.99161299

  4- 6-14  108.93892957   5- 2- 6  112.94731682   5- 2-15  109.53488201   5- 2-16  108.95777567

  5- 3- 7  110.33896192   5- 3- 9  111.09894947   6- 2-15  109.53488202   6- 2-16  108.95777567

  6- 4- 8  110.33896192   6- 4-10  111.09894948   7- 3- 9  108.17045486   8- 4-10  108.17045487

 11- 5-13  107.47420344  12- 6-14  107.47420344  15- 2-16  106.71266623

 NUCLEAR CHARGE:                   56
 NUMBER OF PRIMITIVE AOS:         247
 NUMBER OF SYMMETRY AOS:          241
 NUMBER OF CONTRACTIONS:          138   ( 138A   )
 NUMBER OF CORE ORBITALS:          10   (  10A   )
 NUMBER OF VALENCE ORBITALS:       34   (  34A   )


 NUCLEAR REPULSION ENERGY  312.14526193


 Eigenvalues of metric

         1 0.285E-02 0.305E-02 0.426E-02 0.634E-02 0.704E-02 0.151E-01 0.157E-01 0.196E-01


 Contracted 2-electron integrals neglected if value below      1.0D-16
 AO integral compression algorithm  1   Integral accuracy      1.0D-16

     373.817 MB (compressed) written to integral file ( 94.1%)

     Node minimum: 373.817 MB, node maximum: 373.817 MB


 NUMBER OF SORTED TWO-ELECTRON INTEGRALS:   45998436.     BUFFER LENGTH:  32768
 NUMBER OF SEGMENTS:   3  SEGMENT LENGTH:   15998004      RECORD LENGTH: 524288

 Memory used in sort:      16.56 MW

 SORT1 READ    49670376. AND WROTE    45792485. INTEGRALS IN    132 RECORDS. CPU TIME:     0.50 SEC, REAL TIME:     0.76 SEC
 SORT2 READ    45792485. AND WROTE    45998436. INTEGRALS IN   1426 RECORDS. CPU TIME:     0.34 SEC, REAL TIME:     0.56 SEC

 FILE SIZES:   FILE 1:   349.3 MBYTE,  FILE 4:   553.7 MBYTE,   TOTAL:    903.0 MBYTE

 OPERATOR DM      FOR CENTER  0  COORDINATES:    0.000000    0.000000    0.000000


 **********************************************************************************************************************************
 DATASETS  * FILE   NREC   LENGTH (MB)   RECORD NAMES
              1      19      349.51       500      610      700      900      950      970     1000      129      960     1100   
                                          VAR    BASINP    GEOM    SYMINP    ZMAT    AOBASIS   BASIS     P2S    ABASIS      S 
                                         1400     1410     1200     1210     1080     1600     1650     1300     1700   
                                           T        V       H0       H01     AOSYM     SMH    MOLCAS    ERIS     OPER   

 PROGRAMS   *        TOTAL       INT
 CPU TIMES  *         5.18      5.14
 REAL TIME  *         5.99 SEC
 DISK USED  *         1.28 GB      
 GA USED    *         0.01 MB       (max)       0.00 MB       (current)
 **********************************************************************************************************************************

1PROGRAM * RHF-SCF (CLOSED SHELL)       Authors: W. Meyer, H.-J. Werner


 NUMBER OF ELECTRONS:      28+   28-    SPACE SYMMETRY=1    SPIN SYMMETRY: Singlet 
 CONVERGENCE THRESHOLDS:    1.00E-10 (Density)    1.00E-13 (Energy)
 MAX. NUMBER OF ITERATIONS:      200
 INTERPOLATION TYPE:            DIIS
 INTERPOLATION STEPS:              2 (START)      1 (STEP)
 LEVEL SHIFTS:                  0.00 (CLOSED)  0.00 (OPEN) 



 Orbital guess generated from atomic densities. Full valence occupancy:   44

 Molecular orbital dump at record        2100.2

 ITERATION    DDIFF          GRAD             ENERGY        2-EL.EN.            DIPOLE MOMENTS         DIIS
    1      0.000D+00      0.000D+00      -592.64383416   1056.859920   -0.40647   -0.80604    0.00200    0
    2      0.000D+00      0.396D-02      -592.70487577   1054.274144   -0.20665   -0.74002   -0.00052    1
    3      0.778D-02      0.132D-02      -592.71081375   1055.708517   -0.27920   -0.67750   -0.00047    2
    4      0.269D-02      0.540D-03      -592.71182317   1055.090871   -0.25201   -0.71052   -0.00073    3
    5      0.931D-03      0.773D-04      -592.71184890   1055.153702   -0.24810   -0.70203   -0.00074    4
    6      0.181D-03      0.267D-04      -592.71185142   1055.122845   -0.24983   -0.70231   -0.00076    5
    7      0.503D-04      0.620D-05      -592.71185163   1055.126011   -0.24916   -0.70220   -0.00075    6
    8      0.164D-04      0.174D-05      -592.71185165   1055.125148   -0.24915   -0.70206   -0.00075    7
    9      0.539D-05      0.453D-06      -592.71185165   1055.125030   -0.24913   -0.70202   -0.00075    7
   10      0.127D-05      0.162D-06      -592.71185165   1055.125069   -0.24912   -0.70202   -0.00075    7
   11      0.480D-06      0.344D-07      -592.71185165   1055.125054   -0.24912   -0.70201   -0.00075    7
   12      0.114D-06      0.689D-08      -592.71185165   1055.125060   -0.24912   -0.70201   -0.00075    7
   13      0.183D-07      0.288D-08      -592.71185165   1055.125057   -0.24912   -0.70201   -0.00075    7
   14      0.633D-08      0.850D-09      -592.71185165   1055.125058   -0.24912   -0.70201   -0.00075    7
   15      0.227D-08      0.278D-09      -592.71185165   1055.125058   -0.24912   -0.70201   -0.00075    7
   16      0.669D-09      0.887D-10      -592.71185165   1055.125058   -0.24912   -0.70201   -0.00075    8
   17      0.215D-09      0.224D-10      -592.71185165   1055.125058   -0.24912   -0.70201   -0.00075    7
   18      0.607D-10      0.851D-11      -592.71185165   1055.125058   -0.24912   -0.70201   -0.00075    7
   19      0.278D-10      0.324D-11      -592.71185165   1055.125058   -0.24912   -0.70201   -0.00075    8
   20      0.107D-10      0.113D-11      -592.71185165   1055.125058   -0.24912   -0.70201   -0.00075    8
   21      0.419D-11      0.363D-12      -592.71185165   1055.125058   -0.24912   -0.70201   -0.00075    8
   22      0.131D-11      0.111D-12      -592.71185165   1055.125058   -0.24912   -0.70201   -0.00075    8
   23      0.397D-12      0.516D-13      -592.71185165   1055.125058   -0.24912   -0.70201   -0.00075    8
   24      0.206D-12      0.391D-13      -592.71185165   1055.125058   -0.24912   -0.70201   -0.00075    9
   25      0.151D-12      0.379D-13      -592.71185165   1055.125058   -0.24912   -0.70201   -0.00075    9
   26      0.955D-13      0.321D-13      -592.71185165   1055.125058   -0.24912   -0.70201   -0.00075    9
   27      0.759D-13      0.322D-13      -592.71185165   1055.125058   -0.24912   -0.70201   -0.00075    9
   28      0.400D-13      0.320D-13      -592.71185165   1055.125058   -0.24912   -0.70201   -0.00075    9
   29      0.423D-13      0.284D-13      -592.71185165   1055.125058   -0.24912   -0.70201   -0.00075    0

 Final occupancy:  28

 !RHF STATE 1.1 Energy               -592.711851652667
 Nuclear energy                       312.14526193
 One-electron energy                -1432.41964239
 Two-electron energy                  527.56252880
 Virial quotient                       -1.00019414
 !RHF STATE 1.1 Dipole moment          -0.24912423    -0.70201328    -0.00075390
 Dipole moment /Debye                  -0.63316916    -1.78422291    -0.00191611

 Orbital energies:

         1.1          2.1          3.1          4.1          5.1          6.1          7.1          8.1          9.1         10.1
    -91.929675   -11.255022   -11.255001   -11.231015   -11.230927   -11.229121    -8.933578    -6.615473    -6.614039    -6.611838

        11.1         12.1         13.1         14.1         15.1         16.1         17.1         18.1         19.1         20.1
     -1.119617    -1.020005    -1.006511    -0.842314    -0.835808    -0.755531    -0.646746    -0.614760    -0.609739    -0.578837

        21.1         22.1         23.1         24.1         25.1         26.1         27.1         28.1         29.1         30.1
     -0.546951    -0.523665    -0.497820    -0.495401    -0.473025    -0.434519    -0.411721    -0.328635     0.176926     0.190308


 **********************************************************************************************************************************
 DATASETS  * FILE   NREC   LENGTH (MB)   RECORD NAMES
              1      19      349.51       500      610      700      900      950      970     1000      129      960     1100   
                                          VAR    BASINP    GEOM    SYMINP    ZMAT    AOBASIS   BASIS     P2S    ABASIS      S 
                                         1400     1410     1200     1210     1080     1600     1650     1300     1700   
                                           T        V       H0       H01     AOSYM     SMH    MOLCAS    ERIS     OPER   

              2       3        0.92       700     1000     2100   
                                         GEOM     BASIS     RHF  

 PROGRAMS   *        TOTAL       RHF       INT
 CPU TIMES  *        15.43     10.25      5.14
 REAL TIME  *        17.38 SEC
 DISK USED  *         1.28 GB      
 GA USED    *         0.01 MB       (max)       0.00 MB       (current)
 **********************************************************************************************************************************


1PROGRAM * CCSD (Closed-shell coupled cluster)     Authors: C. Hampel, H.-J. Werner, 1991, M. Deegan, P.J. Knowles, 1992


 Convergence thresholds:  THRVAR = 1.00D-08  THRDEN = 1.00D-12

 CCSD(T)     terms to be evaluated (factor= 1.000)


 Number of core orbitals:          10 (  10 )
 Number of closed-shell orbitals:  18 (  18 )
 Number of external orbitals:     110 ( 110 )

 Molecular orbitals read from record     2100.2  Type=RHF/CANONICAL (state 1.1)

 Number of N-1 electron functions:              18
 Number of N-2 electron functions:             171
 Number of singly external CSFs:              1980
 Number of doubly external CSFs:           1961190
 Total number of CSFs:                     1963171

 Length of J-op  integral file:               0.00 MB
 Length of K-op  integral file:               1.35 MB
 Length of 3-ext integral record:             0.00 MB

 Memory could be reduced to 32.58 Mwords without degradation in triples

 Integral transformation finished. Total CPU:   2.63 sec, npass=  1  Memory used:  30.89 MW

 Reference energy:                   -592.71185165

 MP2 singlet pair energy:              -0.53946270
 MP2 triplet pair energy:              -0.30437104
 MP2 correlation energy:               -0.84383374
 MP2 total energy:                   -593.55568539

 SCS-MP2 correlation energy:           -0.83674166   (PS=  1.200000  PT=  0.333333)
 SCS-MP2 total energy:               -593.54859332

 ITER.      SQ.NORM     CORR.ENERGY   TOTAL ENERGY   ENERGY CHANGE        DEN1      VAR(S)    VAR(P)  DIIS     TIME
   1      1.33970592    -0.91080765  -593.62265931    -0.06697391    -0.04301539  0.26D-02  0.55D-02  1  1    10.63
   2      1.36670189    -0.91615571  -593.62800736    -0.00534805    -0.02577698  0.69D-04  0.46D-03  2  2    18.71
   3      1.37203588    -0.91628338  -593.62813503    -0.00012767    -0.00303800  0.16D-04  0.28D-04  3  3    26.82
   4      1.37352937    -0.91634143  -593.62819308    -0.00005805    -0.00059402  0.76D-06  0.20D-05  4  4    34.92
   5      1.37377021    -0.91634805  -593.62819970    -0.00000662    -0.00007088  0.17D-06  0.16D-06  5  5    43.04
   6      1.37381594    -0.91634360  -593.62819525     0.00000445    -0.00001394  0.30D-07  0.14D-07  6  6    51.15
   7      1.37382355    -0.91634349  -593.62819514     0.00000011     0.00000064  0.53D-08  0.23D-08  6  2    59.27
   8      1.37382965    -0.91634317  -593.62819482     0.00000031    -0.00000125  0.73D-09  0.27D-09  6  1    67.38
   9      1.37383047    -0.91634311  -593.62819476     0.00000006     0.00000051  0.66D-10  0.44D-10  6  4    75.47
  10      1.37383136    -0.91634307  -593.62819473     0.00000003    -0.00000011  0.48D-11  0.35D-11  6  3    83.57
  11      1.37383137    -0.91634308  -593.62819473    -0.00000000     0.00000004  0.12D-11  0.54D-12  6  5    91.67
  12      1.37383133    -0.91634308  -593.62819473    -0.00000000     0.00000002  0.17D-12  0.77D-13  6  6    99.77
  13      1.37383128    -0.91634308  -593.62819473    -0.00000000     0.00000002  0.24D-13  0.11D-13  6  1   107.87
  14      1.37383127    -0.91634308  -593.62819473    -0.00000000     0.00000000  0.31D-14  0.12D-14  6  2   115.96
  15      1.37383127    -0.91634308  -593.62819473     0.00000000    -0.00000000  0.67D-15  0.31D-15  6  4   124.05
  16      1.37383128    -0.91634308  -593.62819473     0.00000000    -0.00000000  0.32D-16  0.23D-16  6  5   132.14
  17      1.37383128    -0.91634308  -593.62819473     0.00000000    -0.00000000  0.56D-17  0.24D-17  6  3   140.24
  18      1.37383128    -0.91634308  -593.62819473     0.00000000    -0.00000000  0.18D-17  0.49D-18  6  6   148.33
  19      1.37383128    -0.91634308  -593.62819473     0.00000000    -0.00000000  0.37D-18  0.11D-18  6  1   156.41
  20      1.37383128    -0.91634308  -593.62819473     0.00000000     0.00000000  0.46D-19  0.17D-19  6  2   164.51
  21      1.37383128    -0.91634308  -593.62819473    -0.00000000     0.00000000  0.83D-20  0.35D-20  6  4   172.62

 Norm of t1 vector:      0.07016373      S-energy:    -0.00000000      T1 diagnostic:  0.00826887
                                                                       D1 diagnostic:  0.02109187


 Total CPU time for triples:    122.93 sec


 RESULTS
 =======

  Reference energy                   -592.711851652667
  CCSD singlet pair energy             -0.634216017042
  CCSD triplet pair energy             -0.282127063268
  CCSD correlation energy              -0.916343080310

  Triples (T) contribution             -0.029869506526
  Total correlation energy             -0.946212586836

  CCSD total energy                  -593.628194732977
  CCSD[T] energy                     -593.658683715258
  CCSD-T energy                      -593.657752992646
 !CCSD(T) total energy               -593.658064239503

 Timing summary (sec):

 STEP                 CPU(USER)    SYS     CPU(TOT)    WALL
 Transformation          2.75      0.23      2.98      2.98
 CCSD iterations       169.87      2.89    172.76    172.81
 Triples               122.93      2.26    125.19    125.20

 Program statistics:

 Available memory in ccsd:               999998604
 Min. memory needed in ccsd:               5123362
 Max. memory used in ccsd:                 6867976
 Max. memory used in cckext:               6836871 (21 integral passes)



 **********************************************************************************************************************************
 DATASETS  * FILE   NREC   LENGTH (MB)   RECORD NAMES
              1      20      485.89       500      610      700      900      950      970     1000      129      960     1100   
                                          VAR    BASINP    GEOM    SYMINP    ZMAT    AOBASIS   BASIS     P2S    ABASIS      S 
                                         1400     1410     1200     1210     1080     1600     1650     1300     1700     1380   
                                           T        V       H0       H01     AOSYM     SMH    MOLCAS    ERIS     OPER     JKOP   

              2       3        0.92       700     1000     2100   
                                         GEOM     BASIS     RHF  

 PROGRAMS   *        TOTAL   CCSD(T)       RHF       INT
 CPU TIMES  *       311.00    295.57     10.25      5.14
 REAL TIME  *       318.43 SEC
 DISK USED  *         1.28 GB      
 GA USED    *         0.01 MB       (max)       0.00 MB       (current)
 **********************************************************************************************************************************

        CCSD(T)         RHF-SCF 
   -593.65806424   -592.71185165
 **********************************************************************************************************************************
 Variable memory released
