
 Primary working directories    : /tmp/1049502.906.gen4.q
 Secondary working directories  : /tmp/1049502.906.gen4.q
 Wavefunction directory         : /home/vulcan/jj04645/wfu/
 Main file repository           : /tmp/1049502.906.gen4.q/

 ARCHNAME  : Linux/x86_64
 FC        : /opt/intel/compilers_and_libraries_2016.1.150/linux/bin/intel64/ifort
 FCVERSION : 16.0.1
 BLASLIB   : -mkl
 id        : ccgc

 Nodes     nprocs
 n067         1
 ga_uses_ma=false, calling ma_init with nominal heap.
 GA-space will be limited to   8.0 MW (determined by -G option)

 Using customized tuning parameters: mindgm=10; mindgv=16; mindgc=4; mindgr=1; noblas=0; mincuda=1000; minvec=7
 default implementation of scratch files=df  

 ***,Optimization of neopentane
 memory,1000,m
 gthresh,energy=1.0d-12,orbital=1.0d-10,oneint=1.0d-16,twoint=1.0d-16,optgrad=1.0d-6,compress=1.0d-13
 geomtyp=xyz
 
 bohr
 geometry = {
  C   -0.0011095173   -0.0011076891    0.0005496749
  C    2.3643323800   -0.0018102929   -1.6720701195
  C   -0.0018123903   -2.3665495863    1.6731694692
  C   -0.0004069135    2.3643339389    1.6731698499
  C   -2.3665511453   -0.0004048162   -1.6720705002
  H    2.4118958977    1.6730691782   -2.8896790569
  H   -1.6726492884   -2.4058192052    2.8827398030
  H    1.6678977261    2.4107185239    2.8859792065
  H   -2.4069726785   -1.6778303798   -2.8864282042
  H    4.0812004415   -0.0023204280   -0.5244251874
  H   -0.0023220105   -4.0822178416    0.5164129783
  H    0.0001042079    4.0845962161    0.5232564456
  H   -4.0788346192    0.0001038199   -0.5175965346
  H    2.4107630491   -1.6717655865   -2.8860794280
  H    1.6739600554   -2.4069314748    2.8863303874
  H   -1.6736357763    2.4118503823    2.8895788112
  H   -2.4058594183    1.6720852410   -2.8828375953
 }
 
 basis=VDZ
 {rhf;maxit,200}
 {ccsd(t);maxit,200}

 Variables initialized (661), CPU time= 0.00 sec
 Commands  initialized (458), CPU time= 0.00 sec, 486 directives.
 Default parameters read. Elapsed time= 0.04 sec

 Checking input...
 Passed
1


                                         ***  PROGRAM SYSTEM MOLPRO  ***
                         Copyright, University College Cardiff Consultants Limited, 2008

                                    Version 2010.1 linked May 16 2016 07:17:05


 **********************************************************************************************************************************
 LABEL *   Optimization of neopentane                                                    
 Linux-4.4.3/n067(x86_64) 64 bit mpp version                                             DATE: 30-Mar-24          TIME: 22:42:51  
 **********************************************************************************************************************************

 SHA1:             9e8077add272b0f3cad6f7df79ec5211205f459d
 **********************************************************************************************************************************

 THRESHOLDS:

 ZERO    =  1.00D-12  ONEINT  =  1.00D-16  TWOINT  =  1.00D-16  PREFAC  =  1.00D-14  LOCALI  =  1.00D-09  EORDER  =  1.00D-04
 ENERGY  =  1.00D-12  ETEST   =  0.00D+00  EDENS   =  0.00D+00  THRDEDEF=  1.00D-06  GRADIENT=  1.00D-02  STEP    =  1.00D-03
 ORBITAL =  1.00D-10  CIVEC   =  1.00D-05  COEFF   =  1.00D-04  PRINTCI =  5.00D-02  PUNCHCI =  9.90D+01  OPTGRAD =  1.00D-06
 OPTENERG=  1.00D-06  OPTSTEP =  3.00D-04  THRGRAD =  1.00D-10  COMPRESS=  1.00D-13  VARMIN  =  1.00D-07  VARMAX  =  1.00D-03
 THRDOUB =  0.00D+00  THRDIV  =  1.00D-05  THRRED  =  1.00D-07  THRPSP  =  1.00D+00  THRDC   =  1.00D-10  THRCS   =  1.00D-10
 THRNRM  =  1.00D-08  THREQ   =  0.00D+00  THRDE   =  1.00D+00  THRREF  =  1.00D-05  SPARFAC =  1.00D+00  THRDLP  =  1.00D-07
 THRDIA  =  1.00D-10  THRDLS  =  1.00D-07  THRGPS  =  0.00D+00  THRKEX  =  0.00D+00  THRDIS  =  2.00D-01  THRVAR  =  1.00D-10
 THRLOC  =  1.00D-06  THRGAP  =  1.00D-06  THRLOCT = -1.00D+00  THRGAPT = -1.00D+00  THRORB  =  1.00D-06  THRMLTP =  0.00D+00
 THRCPQCI=  1.00D-10  KEXTA   =  0.00D+00  THRCOARS=  0.00D+00  SYMTOL  =  1.00D-06  GRADTOL =  1.00D-06  THROVL  =  1.00D-08
 THRORTH =  1.00D-08  GRID    =  1.00D-06  GRIDMAX =  1.00D-03  DTMAX   =  0.00D+00

 SETTING GEOMTYP        =    XYZ
 ZUNIT=BOHR
 

 Variable memory set to 1000000000 words,  buffer space   230000 words

 SETTING BASIS          =    VDZ


 Recomputing integrals since basis changed


 Using spherical harmonics

 Library entry C      S cc-pVDZ              selected for orbital group  1
 Library entry C      P cc-pVDZ              selected for orbital group  1
 Library entry C      D cc-pVDZ              selected for orbital group  1
 Library entry H      S cc-pVDZ              selected for orbital group  2
 Library entry H      P cc-pVDZ              selected for orbital group  2

1PROGRAM * SEWARD (Integral evaluation for generally contracted gaussian basis sets)     Author: Roland Lindh, 1990

 Geometry written to block  1 of record 700


 Point group  C1  



 ATOMIC COORDINATES

 NR  ATOM    CHARGE       X              Y              Z

   1  C       6.00   -0.001109517   -0.001107689    0.000549675
   2  C       6.00    2.364332380   -0.001810293   -1.672070120
   3  C       6.00   -0.001812390   -2.366549586    1.673169469
   4  C       6.00   -0.000406914    2.364333939    1.673169850
   5  C       6.00   -2.366551145   -0.000404816   -1.672070500
   6  H       1.00    2.411895898    1.673069178   -2.889679057
   7  H       1.00   -1.672649288   -2.405819205    2.882739803
   8  H       1.00    1.667897726    2.410718524    2.885979207
   9  H       1.00   -2.406972678   -1.677830380   -2.886428204
  10  H       1.00    4.081200442   -0.002320428   -0.524425187
  11  H       1.00   -0.002322010   -4.082217842    0.516412978
  12  H       1.00    0.000104208    4.084596216    0.523256446
  13  H       1.00   -4.078834619    0.000103820   -0.517596535
  14  H       1.00    2.410763049   -1.671765587   -2.886079428
  15  H       1.00    1.673960055   -2.406931475    2.886330387
  16  H       1.00   -1.673635776    2.411850382    2.889578811
  17  H       1.00   -2.405859418    1.672085241   -2.882837595

 Bond lengths in Bohr (Angstrom)

 1-2  2.897062795  1-3  2.897062795  1-4  2.897062795  1-5  2.897062795  2-6  2.071244808
     ( 1.533059604)     ( 1.533059604)     ( 1.533059604)     ( 1.533059604)     ( 1.096055547)

  2-10  2.065121084   2-14  2.065121084   3- 7  2.063079842   3-11  2.069203567   3-15  2.069203567
       ( 1.092815011)       ( 1.092815011)       ( 1.091734833)       ( 1.094975368)       ( 1.094975368)

  4- 8  2.063079842   4-12  2.069203567   4-16  2.069203567   5- 9  2.071244808   5-13  2.065121084
       ( 1.091734833)       ( 1.094975368)       ( 1.094975368)       ( 1.096055547)       ( 1.092815011)

  5-17  2.065121084
       ( 1.092815011)

 Bond angles

  1- 2- 6  110.97476481   1- 2-10  110.97476528   1- 2-14  110.97476522   1- 3- 7  110.74655090

  1- 3-11  110.74655134   1- 3-15  110.74655128   1- 4- 8  110.97476554   1- 4-12  110.97476527

  1- 4-16  110.97476450   1- 5- 9  110.74655159   1- 5-13  110.74655135   1- 5-17  110.74655058

  2-1-3  109.47122063   2-1-4  109.47122063   2-1-5  109.47122063   3-1-4  109.47122063

  3- 1- 5  109.47122063   4- 1- 5  109.47122064   6- 2-10  107.92672582   6- 2-14  107.92672572

  7- 3-11  108.16632998   7- 3-15  108.16632988   8- 4-12  107.92672719   8- 4-16  107.92672574

  9- 5-13  108.16633132   9- 5-17  108.16632986  10- 2-14  107.92672659  11- 3-15  108.16633071

 12- 4-16  107.92672520  13- 5-17  108.16632940

 NUCLEAR CHARGE:                   42
 NUMBER OF PRIMITIVE AOS:         219
 NUMBER OF SYMMETRY AOS:          214
 NUMBER OF CONTRACTIONS:          130   ( 130A   )
 NUMBER OF CORE ORBITALS:           5   (   5A   )
 NUMBER OF VALENCE ORBITALS:       32   (  32A   )


 NUCLEAR REPULSION ENERGY  198.59920738


 Eigenvalues of metric

         1 0.280E-02 0.503E-02 0.504E-02 0.504E-02 0.171E-01 0.189E-01 0.189E-01 0.189E-01


 Contracted 2-electron integrals neglected if value below      1.0D-16
 AO integral compression algorithm  1   Integral accuracy      1.0D-16

     302.514 MB (compressed) written to integral file ( 97.0%)

     Node minimum: 302.514 MB, node maximum: 302.514 MB


 NUMBER OF SORTED TWO-ELECTRON INTEGRALS:   36256870.     BUFFER LENGTH:  32768
 NUMBER OF SEGMENTS:   3  SEGMENT LENGTH:   15998004      RECORD LENGTH: 524288

 Memory used in sort:      16.56 MW

 SORT1 READ    38983293. AND WROTE    36206782. INTEGRALS IN    105 RECORDS. CPU TIME:     0.38 SEC, REAL TIME:     0.60 SEC
 SORT2 READ    36206782. AND WROTE    36256870. INTEGRALS IN   1154 RECORDS. CPU TIME:     0.28 SEC, REAL TIME:     0.45 SEC

 FILE SIZES:   FILE 1:   283.1 MBYTE,  FILE 4:   440.4 MBYTE,   TOTAL:    723.5 MBYTE

 OPERATOR DM      FOR CENTER  0  COORDINATES:    0.000000    0.000000    0.000000


 **********************************************************************************************************************************
 DATASETS  * FILE   NREC   LENGTH (MB)   RECORD NAMES
              1      19      283.31       500      610      700      900      950      970     1000      129      960     1100   
                                          VAR    BASINP    GEOM    SYMINP    ZMAT    AOBASIS   BASIS     P2S    ABASIS      S 
                                         1400     1410     1200     1210     1080     1600     1650     1300     1700   
                                           T        V       H0       H01     AOSYM     SMH    MOLCAS    ERIS     OPER   

 PROGRAMS   *        TOTAL       INT
 CPU TIMES  *         4.15      4.10
 REAL TIME  *         4.85 SEC
 DISK USED  *         1.03 GB      
 GA USED    *         0.01 MB       (max)       0.00 MB       (current)
 **********************************************************************************************************************************

1PROGRAM * RHF-SCF (CLOSED SHELL)       Authors: W. Meyer, H.-J. Werner


 NUMBER OF ELECTRONS:      21+   21-    SPACE SYMMETRY=1    SPIN SYMMETRY: Singlet 
 CONVERGENCE THRESHOLDS:    1.00E-10 (Density)    1.00E-13 (Energy)
 MAX. NUMBER OF ITERATIONS:      200
 INTERPOLATION TYPE:            DIIS
 INTERPOLATION STEPS:              2 (START)      1 (STEP)
 LEVEL SHIFTS:                  0.00 (CLOSED)  0.00 (OPEN) 



 Orbital guess generated from atomic densities. Full valence occupancy:   37

 Molecular orbital dump at record        2100.2

 ITERATION    DDIFF          GRAD             ENERGY        2-EL.EN.            DIPOLE MOMENTS         DIIS
    1      0.000D+00      0.000D+00      -196.27088079    527.677315    0.00189    0.00188   -0.00183    0
    2      0.000D+00      0.467D-02      -196.33873997    521.943831    0.00073    0.00072    0.00183    1
    3      0.930D-02      0.177D-02      -196.34653044    524.513925    0.00074    0.00073    0.00134    2
    4      0.346D-02      0.571D-03      -196.34767720    523.812591    0.00062    0.00061    0.00170    3
    5      0.114D-02      0.118D-03      -196.34771178    523.879105    0.00058    0.00057    0.00172    4
    6      0.198D-03      0.238D-04      -196.34771346    523.875346    0.00057    0.00056    0.00172    5
    7      0.659D-04      0.226D-05      -196.34771348    523.875112    0.00057    0.00055    0.00172    6
    8      0.684D-05      0.488D-06      -196.34771348    523.875070    0.00057    0.00055    0.00172    6
    9      0.138D-05      0.703D-07      -196.34771348    523.875062    0.00057    0.00055    0.00172    5
   10      0.244D-06      0.941D-08      -196.34771348    523.875072    0.00057    0.00055    0.00172    5
   11      0.316D-07      0.285D-08      -196.34771348    523.875067    0.00057    0.00055    0.00172    5
   12      0.593D-08      0.106D-08      -196.34771348    523.875068    0.00057    0.00055    0.00172    6
   13      0.218D-08      0.958D-10      -196.34771348    523.875068    0.00057    0.00055    0.00172    6
   14      0.220D-09      0.319D-10      -196.34771348    523.875068    0.00057    0.00055    0.00172    6
   15      0.884D-10      0.943D-11      -196.34771348    523.875068    0.00057    0.00055    0.00172    6
   16      0.300D-10      0.200D-11      -196.34771348    523.875068    0.00057    0.00055    0.00172    7
   17      0.472D-11      0.716D-12      -196.34771348    523.875068    0.00057    0.00055    0.00172    7
   18      0.165D-11      0.139D-12      -196.34771348    523.875068    0.00057    0.00055    0.00172    0

 Final occupancy:  21

 !RHF STATE 1.1 Energy               -196.347713483536
 Nuclear energy                       198.59920738
 One-electron energy                 -656.88445491
 Two-electron energy                  261.93753405
 Virial quotient                       -1.00118108
 !RHF STATE 1.1 Dipole moment           0.00056509     0.00055228     0.00172448
 Dipole moment /Debye                   0.00143622     0.00140365     0.00438291

 Orbital energies:

         1.1          2.1          3.1          4.1          5.1          6.1          7.1          8.1          9.1         10.1
    -11.230715   -11.214150   -11.214106   -11.214082   -11.214030    -1.103749    -0.927590    -0.927563    -0.927535    -0.728614

        11.1         12.1         13.1         14.1         15.1         16.1         17.1         18.1         19.1         20.1
     -0.609366    -0.609076    -0.608788    -0.550490    -0.550485    -0.507993    -0.507786    -0.507578    -0.450600    -0.450332

        21.1         22.1         23.1
     -0.450064     0.170676     0.231126


 **********************************************************************************************************************************
 DATASETS  * FILE   NREC   LENGTH (MB)   RECORD NAMES
              1      19      283.31       500      610      700      900      950      970     1000      129      960     1100   
                                          VAR    BASINP    GEOM    SYMINP    ZMAT    AOBASIS   BASIS     P2S    ABASIS      S 
                                         1400     1410     1200     1210     1080     1600     1650     1300     1700   
                                           T        V       H0       H01     AOSYM     SMH    MOLCAS    ERIS     OPER   

              2       3        0.89       700     1000     2100   
                                         GEOM     BASIS     RHF  

 PROGRAMS   *        TOTAL       RHF       INT
 CPU TIMES  *         9.07      4.92      4.10
 REAL TIME  *        10.39 SEC
 DISK USED  *         1.03 GB      
 GA USED    *         0.01 MB       (max)       0.00 MB       (current)
 **********************************************************************************************************************************


1PROGRAM * CCSD (Closed-shell coupled cluster)     Authors: C. Hampel, H.-J. Werner, 1991, M. Deegan, P.J. Knowles, 1992


 Convergence thresholds:  THRVAR = 1.00D-08  THRDEN = 1.00D-12

 CCSD(T)     terms to be evaluated (factor= 1.000)


 Number of core orbitals:           5 (   5 )
 Number of closed-shell orbitals:  16 (  16 )
 Number of external orbitals:     109 ( 109 )

 Molecular orbitals read from record     2100.2  Type=RHF/CANONICAL (state 1.1)

 Number of N-1 electron functions:              16
 Number of N-2 electron functions:             136
 Number of singly external CSFs:              1744
 Number of doubly external CSFs:           1521640
 Total number of CSFs:                     1523385

 Length of J-op  integral file:               0.00 MB
 Length of K-op  integral file:               1.20 MB
 Length of 3-ext integral record:             0.00 MB

 Memory could be reduced to 28.13 Mwords without degradation in triples

 Integral transformation finished. Total CPU:   1.89 sec, npass=  1  Memory used:  22.98 MW

 Reference energy:                   -196.34771348

 MP2 singlet pair energy:              -0.48845273
 MP2 triplet pair energy:              -0.25007758
 MP2 correlation energy:               -0.73853031
 MP2 total energy:                   -197.08624379

 SCS-MP2 correlation energy:           -0.74174710   (PS=  1.200000  PT=  0.333333)
 SCS-MP2 total energy:               -197.08946059

 ITER.      SQ.NORM     CORR.ENERGY   TOTAL ENERGY   ENERGY CHANGE        DEN1      VAR(S)    VAR(P)  DIIS     TIME
   1      1.28821648    -0.80655560  -197.15426908    -0.06802529    -0.04667766  0.17D-02  0.47D-02  1  1     6.92
   2      1.31153828    -0.81148896  -197.15920244    -0.00493336    -0.02354654  0.47D-04  0.32D-03  2  2    12.03
   3      1.31553805    -0.81163915  -197.15935263    -0.00015019    -0.00242518  0.53D-05  0.22D-04  3  3    17.15
   4      1.31658358    -0.81170131  -197.15941479    -0.00006217    -0.00046501  0.25D-06  0.12D-05  4  4    22.27
   5      1.31671008    -0.81170560  -197.15941908    -0.00000428    -0.00005187  0.15D-07  0.93D-07  5  5    27.41
   6      1.31672250    -0.81170319  -197.15941668     0.00000240    -0.00000839  0.68D-09  0.61D-08  6  6    32.54
   7      1.31672110    -0.81170347  -197.15941695    -0.00000027     0.00000060  0.16D-09  0.52D-09  6  1    37.68
   8      1.31672081    -0.81170362  -197.15941710    -0.00000015     0.00000028  0.78D-11  0.30D-10  6  2    42.83
   9      1.31672052    -0.81170366  -197.15941715    -0.00000005     0.00000025  0.11D-11  0.25D-11  6  3    47.95
  10      1.31672041    -0.81170367  -197.15941715    -0.00000001     0.00000009  0.90D-13  0.22D-12  6  4    53.07
  11      1.31672035    -0.81170367  -197.15941716    -0.00000000     0.00000004  0.95D-14  0.24D-13  6  5    58.21
  12      1.31672032    -0.81170368  -197.15941716    -0.00000000     0.00000002  0.90D-15  0.12D-14  6  1    63.34
  13      1.31672031    -0.81170368  -197.15941716    -0.00000000     0.00000000  0.79D-16  0.70D-16  6  6    68.47
  14      1.31672031    -0.81170368  -197.15941716    -0.00000000     0.00000000  0.15D-16  0.97D-17  6  2    73.61
  15      1.31672031    -0.81170368  -197.15941716    -0.00000000     0.00000000  0.13D-17  0.11D-17  6  3    78.74
  16      1.31672031    -0.81170368  -197.15941716     0.00000000    -0.00000000  0.70D-19  0.92D-19  6  4    83.88
  17      1.31672031    -0.81170368  -197.15941716     0.00000000    -0.00000000  0.35D-20  0.86D-20  6  5    88.99
  18      1.31672031    -0.81170368  -197.15941716     0.00000000    -0.00000000  0.41D-21  0.12D-20  6  1    94.13
  19      1.31672031    -0.81170368  -197.15941716     0.00000000    -0.00000000  0.36D-22  0.17D-21  6  6    99.27

 Norm of t1 vector:      0.05469814      S-energy:    -0.00000000      T1 diagnostic:  0.00683727
                                                                       D1 diagnostic:  0.01260772


 Total CPU time for triples:     81.35 sec


 RESULTS
 =======

  Reference energy                   -196.347713483536
  CCSD singlet pair energy             -0.577587600181
  CCSD triplet pair energy             -0.234116075476
  CCSD correlation energy              -0.811703675657

  Triples (T) contribution             -0.023942414569
  Total correlation energy             -0.835646090226

  CCSD total energy                  -197.159417159194
  CCSD[T] energy                     -197.183818918114
  CCSD-T energy                      -197.183110911162
 !CCSD(T) total energy               -197.183359573762

 Timing summary (sec):

 STEP                 CPU(USER)    SYS     CPU(TOT)    WALL
 Transformation          1.97      0.17      2.14      2.14
 CCSD iterations        97.30      2.15     99.45     99.58
 Triples                81.35      1.58     82.93     82.93

 Program statistics:

 Available memory in ccsd:               999998876
 Min. memory needed in ccsd:               3966807
 Max. memory used in ccsd:                 5311887
 Max. memory used in cckext:               4858018 (19 integral passes)



 **********************************************************************************************************************************
 DATASETS  * FILE   NREC   LENGTH (MB)   RECORD NAMES
              1      20      395.02       500      610      700      900      950      970     1000      129      960     1100   
                                          VAR    BASINP    GEOM    SYMINP    ZMAT    AOBASIS   BASIS     P2S    ABASIS      S 
                                         1400     1410     1200     1210     1080     1600     1650     1300     1700     1380   
                                           T        V       H0       H01     AOSYM     SMH    MOLCAS    ERIS     OPER     JKOP   

              2       3        0.89       700     1000     2100   
                                         GEOM     BASIS     RHF  

 PROGRAMS   *        TOTAL   CCSD(T)       RHF       INT
 CPU TIMES  *       189.71    180.63      4.92      4.10
 REAL TIME  *       195.09 SEC
 DISK USED  *         1.03 GB      
 GA USED    *         0.01 MB       (max)       0.00 MB       (current)
 **********************************************************************************************************************************

        CCSD(T)         RHF-SCF 
   -197.18335957   -196.34771348
 **********************************************************************************************************************************
 Variable memory released
