
 Primary working directories    : /tmp/662446.159.gen6.q
 Secondary working directories  : /tmp/662446.159.gen6.q
 Wavefunction directory         : /home/vulcan/mel64643/wfu/
 Main file repository           : /tmp/662446.159.gen6.q/

 ARCHNAME  : Linux/x86_64
 FC        : /opt/intel/compilers_and_libraries_2016.1.150/linux/bin/intel64/ifort
 FCVERSION : 16.0.1
 BLASLIB   : -mkl
 id        : ccgc

 Nodes     nprocs
 n086         1
 ga_uses_ma=false, calling ma_init with nominal heap.
 GA-space will be limited to   8.0 MW (determined by -G option)

 Using customized tuning parameters: mindgm=10; mindgv=16; mindgc=4; mindgr=1; noblas=0; mincuda=1000; minvec=7
 default implementation of scratch files=df  

 ***,Optimization of min3
 memory,1000,m
 gthresh,energy=1.0d-12,orbital=1.0d-10,oneint=1.0d-16,twoint=1.0d-16,optgrad=1.0d-6,compress=1.0d-13
 geomtyp=xyz
 
 
 
  bohr
  geometry = {
  C    0.0003125401    0.0007378789    1.6744758183
  H    0.0030950526   -1.7262911011    2.7924539702
  H   -0.0001503514    1.7253738428    2.7907518141
  C    1.2234681036   -0.0040561744   -0.9156003671
  C   -1.2304620630    0.0028090275   -0.9062224902
  H    2.9898888295    0.0011934678   -1.9255606519
  H   -2.9861521114    0.0002330585   -1.9320620232
 }
 
 basis=cc-pvdz
 {rhf;maxit,200}
 {ccsd(t);maxit,200}

 Variables initialized (661), CPU time= 0.00 sec
 Commands  initialized (458), CPU time= 0.01 sec, 486 directives.
 Default parameters read. Elapsed time= 0.04 sec

 Checking input...
 Passed
1


                                         ***  PROGRAM SYSTEM MOLPRO  ***
                         Copyright, University College Cardiff Consultants Limited, 2008

                                    Version 2010.1 linked May 16 2016 07:17:05


 **********************************************************************************************************************************
 LABEL *   Optimization of min3                                                          
 Linux-4.4.3/n086(x86_64) 64 bit mpp version                                             DATE: 18-Mar-22          TIME: 17:55:46  
 **********************************************************************************************************************************

 SHA1:             9e8077add272b0f3cad6f7df79ec5211205f459d
 **********************************************************************************************************************************

 THRESHOLDS:

 ZERO    =  1.00D-12  ONEINT  =  1.00D-16  TWOINT  =  1.00D-16  PREFAC  =  1.00D-14  LOCALI  =  1.00D-09  EORDER  =  1.00D-04
 ENERGY  =  1.00D-12  ETEST   =  0.00D+00  EDENS   =  0.00D+00  THRDEDEF=  1.00D-06  GRADIENT=  1.00D-02  STEP    =  1.00D-03
 ORBITAL =  1.00D-10  CIVEC   =  1.00D-05  COEFF   =  1.00D-04  PRINTCI =  5.00D-02  PUNCHCI =  9.90D+01  OPTGRAD =  1.00D-06
 OPTENERG=  1.00D-06  OPTSTEP =  3.00D-04  THRGRAD =  1.00D-10  COMPRESS=  1.00D-13  VARMIN  =  1.00D-07  VARMAX  =  1.00D-03
 THRDOUB =  0.00D+00  THRDIV  =  1.00D-05  THRRED  =  1.00D-07  THRPSP  =  1.00D+00  THRDC   =  1.00D-10  THRCS   =  1.00D-10
 THRNRM  =  1.00D-08  THREQ   =  0.00D+00  THRDE   =  1.00D+00  THRREF  =  1.00D-05  SPARFAC =  1.00D+00  THRDLP  =  1.00D-07
 THRDIA  =  1.00D-10  THRDLS  =  1.00D-07  THRGPS  =  0.00D+00  THRKEX  =  0.00D+00  THRDIS  =  2.00D-01  THRVAR  =  1.00D-10
 THRLOC  =  1.00D-06  THRGAP  =  1.00D-06  THRLOCT = -1.00D+00  THRGAPT = -1.00D+00  THRORB  =  1.00D-06  THRMLTP =  0.00D+00
 THRCPQCI=  1.00D-10  KEXTA   =  0.00D+00  THRCOARS=  0.00D+00  SYMTOL  =  1.00D-06  GRADTOL =  1.00D-06  THROVL  =  1.00D-08
 THRORTH =  1.00D-08  GRID    =  1.00D-06  GRIDMAX =  1.00D-03  DTMAX   =  0.00D+00

 SETTING GEOMTYP        =    XYZ
 ZUNIT=BOHR
 

 Variable memory set to 1000000000 words,  buffer space   230000 words

 SETTING BASIS          =    CC-PVDZ


 Recomputing integrals since basis changed


 Using spherical harmonics

 Library entry C      S cc-pVDZ              selected for orbital group  1
 Library entry C      P cc-pVDZ              selected for orbital group  1
 Library entry C      D cc-pVDZ              selected for orbital group  1
 Library entry H      S cc-pVDZ              selected for orbital group  2
 Library entry H      P cc-pVDZ              selected for orbital group  2

1PROGRAM * SEWARD (Integral evaluation for generally contracted gaussian basis sets)     Author: Roland Lindh, 1990

 Geometry written to block  1 of record 700


 Point group  C1  



 ATOMIC COORDINATES

 NR  ATOM    CHARGE       X              Y              Z

   1  C       6.00    0.000312540    0.000737879    1.674475818
   2  H       1.00    0.003095053   -1.726291101    2.792453970
   3  H       1.00   -0.000150351    1.725373843    2.790751814
   4  C       6.00    1.223468104   -0.004056174   -0.915600367
   5  C       6.00   -1.230462063    0.002809028   -0.906222490
   6  H       1.00    2.989888829    0.001193468   -1.925560652
   7  H       1.00   -2.986152111    0.000233058   -1.932062023

 Bond lengths in Bohr (Angstrom)

 1-2  2.057306975  1-3  2.054371320  1-4  2.864372036  1-5  2.859163195  4-5  2.453957689
     ( 1.088679963)     ( 1.087126481)     ( 1.515760400)     ( 1.513003999)     ( 1.298578481)

 4-6  2.034770138  5-7  2.033420992
     ( 1.076753983)     ( 1.076040045)

 Bond angles

  1-4-5   64.50200855   1-4-6  145.03704952   1-5-4   64.72175340   1-5-7  145.79450367

  2-1-3  114.17023377   2-1-4  119.30097511   2-1-5  119.45125791   3-1-4  119.52702733

  3-1-5  119.32353268   4-1-5   50.77623806   4-5-7  149.48268595   5-4-6  150.45839981

 NUCLEAR CHARGE:                   22
 NUMBER OF PRIMITIVE AOS:         109
 NUMBER OF SYMMETRY AOS:          106
 NUMBER OF CONTRACTIONS:           62   (  62A   )
 NUMBER OF CORE ORBITALS:           3   (   3A   )
 NUMBER OF VALENCE ORBITALS:       16   (  16A   )


 NUCLEAR REPULSION ENERGY   63.66489567


 Eigenvalues of metric

         1 0.170E-02 0.415E-02 0.174E-01 0.194E-01 0.239E-01 0.255E-01 0.334E-01 0.367E-01


 Contracted 2-electron integrals neglected if value below      1.0D-16
 AO integral compression algorithm  1   Integral accuracy      1.0D-16

     18.350 MB (compressed) written to integral file (100.0%)

     Node minimum: 18.350 MB, node maximum: 18.350 MB


 NUMBER OF SORTED TWO-ELECTRON INTEGRALS:    1908081.     BUFFER LENGTH:  32768
 NUMBER OF SEGMENTS:   1  SEGMENT LENGTH:    1908081      RECORD LENGTH: 524288

 Memory used in sort:       2.47 MW

 SORT1 READ     2265018. AND WROTE     1893348. INTEGRALS IN      6 RECORDS. CPU TIME:     0.01 SEC, REAL TIME:     0.03 SEC
 SORT2 READ     1893348. AND WROTE     1908081. INTEGRALS IN     70 RECORDS. CPU TIME:     0.03 SEC, REAL TIME:     0.04 SEC

 FILE SIZES:   FILE 1:    18.3 MBYTE,  FILE 4:    25.2 MBYTE,   TOTAL:     43.5 MBYTE

 OPERATOR DM      FOR CENTER  0  COORDINATES:    0.000000    0.000000    0.000000


 **********************************************************************************************************************************
 DATASETS  * FILE   NREC   LENGTH (MB)   RECORD NAMES
              1      19       18.30       500      610      700      900      950      970     1000      129      960     1100   
                                          VAR    BASINP    GEOM    SYMINP    ZMAT    AOBASIS   BASIS     P2S    ABASIS      S 
                                         1400     1410     1200     1210     1080     1600     1650     1300     1700   
                                           T        V       H0       H01     AOSYM     SMH    MOLCAS    ERIS     OPER   

 PROGRAMS   *        TOTAL       INT
 CPU TIMES  *         0.30      0.26
 REAL TIME  *         0.52 SEC
 DISK USED  *        62.47 MB      
 GA USED    *         0.00 MB       (max)       0.00 MB       (current)
 **********************************************************************************************************************************

1PROGRAM * RHF-SCF (CLOSED SHELL)       Authors: W. Meyer, H.-J. Werner


 NUMBER OF ELECTRONS:      11+   11-    SPACE SYMMETRY=1    SPIN SYMMETRY: Singlet 
 CONVERGENCE THRESHOLDS:    1.00E-10 (Density)    1.00E-13 (Energy)
 MAX. NUMBER OF ITERATIONS:      200
 INTERPOLATION TYPE:            DIIS
 INTERPOLATION STEPS:              2 (START)      1 (STEP)
 LEVEL SHIFTS:                  0.00 (CLOSED)  0.00 (OPEN) 



 Orbital guess generated from atomic densities. Full valence occupancy:   19

 Molecular orbital dump at record        2100.2

 ITERATION    DDIFF          GRAD             ENERGY        2-EL.EN.            DIPOLE MOMENTS         DIIS
    1      0.000D+00      0.000D+00      -115.81244819    203.582877    0.00423    0.00021   -0.29944    0
    2      0.000D+00      0.507D-02      -115.83057331    202.468850    0.00162    0.00103   -0.20409    1
    3      0.105D-01      0.159D-02      -115.83219964    203.088602    0.00311    0.00100   -0.22447    2
    4      0.349D-02      0.597D-03      -115.83245512    202.914031    0.00223    0.00111   -0.20069    3
    5      0.111D-02      0.899D-04      -115.83246400    202.916892    0.00269    0.00112   -0.20085    4
    6      0.274D-03      0.243D-04      -115.83246471    202.920927    0.00238    0.00113   -0.19889    5
    7      0.706D-04      0.886D-05      -115.83246479    202.919611    0.00255    0.00113   -0.19878    6
    8      0.236D-04      0.183D-05      -115.83246480    202.919654    0.00246    0.00113   -0.19868    7
    9      0.584D-05      0.621D-06      -115.83246480    202.919679    0.00251    0.00113   -0.19867    7
   10      0.123D-05      0.210D-06      -115.83246480    202.919673    0.00250    0.00113   -0.19866    7
   11      0.471D-06      0.344D-07      -115.83246480    202.919674    0.00250    0.00113   -0.19866    7
   12      0.149D-06      0.758D-08      -115.83246480    202.919675    0.00250    0.00113   -0.19866    7
   13      0.263D-07      0.280D-08      -115.83246480    202.919675    0.00250    0.00113   -0.19866    6
   14      0.698D-08      0.131D-08      -115.83246480    202.919675    0.00250    0.00113   -0.19866    7
   15      0.378D-08      0.508D-09      -115.83246480    202.919675    0.00250    0.00113   -0.19866    7
   16      0.167D-08      0.836D-10      -115.83246480    202.919675    0.00250    0.00113   -0.19866    7
   17      0.266D-09      0.263D-10      -115.83246480    202.919675    0.00250    0.00113   -0.19866    7
   18      0.827D-10      0.967D-11      -115.83246480    202.919675    0.00250    0.00113   -0.19866    0

 Final occupancy:  11

 !RHF STATE 1.1 Energy               -115.832464799061
 Nuclear energy                        63.66489567
 One-electron energy                 -280.95719798
 Two-electron energy                  101.45983751
 Virial quotient                       -1.00179466
 !RHF STATE 1.1 Dipole moment           0.00249743     0.00112805    -0.19865830
 Dipole moment /Debye                   0.00634743     0.00286703    -0.50490595

 Orbital energies:

         1.1          2.1          3.1          4.1          5.1          6.1          7.1          8.1          9.1         10.1
    -11.250678   -11.248607   -11.244865    -1.153664    -0.822961    -0.765398    -0.677210    -0.594009    -0.488752    -0.417037

        11.1         12.1         13.1
     -0.355581     0.167758     0.215495


 **********************************************************************************************************************************
 DATASETS  * FILE   NREC   LENGTH (MB)   RECORD NAMES
              1      19       18.30       500      610      700      900      950      970     1000      129      960     1100   
                                          VAR    BASINP    GEOM    SYMINP    ZMAT    AOBASIS   BASIS     P2S    ABASIS      S 
                                         1400     1410     1200     1210     1080     1600     1650     1300     1700   
                                           T        V       H0       H01     AOSYM     SMH    MOLCAS    ERIS     OPER   

              2       3        0.44       700     1000     2100   
                                         GEOM     BASIS     RHF  

 PROGRAMS   *        TOTAL       RHF       INT
 CPU TIMES  *         0.50      0.20      0.26
 REAL TIME  *         0.76 SEC
 DISK USED  *        62.47 MB      
 GA USED    *         0.00 MB       (max)       0.00 MB       (current)
 **********************************************************************************************************************************


1PROGRAM * CCSD (Closed-shell coupled cluster)     Authors: C. Hampel, H.-J. Werner, 1991, M. Deegan, P.J. Knowles, 1992


 Convergence thresholds:  THRVAR = 1.00D-08  THRDEN = 1.00D-12

 CCSD(T)     terms to be evaluated (factor= 1.000)


 Number of core orbitals:           3 (   3 )
 Number of closed-shell orbitals:   8 (   8 )
 Number of external orbitals:      51 (  51 )

 Molecular orbitals read from record     2100.2  Type=RHF/CANONICAL (state 1.1)

 Number of N-1 electron functions:               8
 Number of N-2 electron functions:              36
 Number of singly external CSFs:               408
 Number of doubly external CSFs:             83436
 Total number of CSFs:                       83845

 Length of J-op  integral file:               0.00 MB
 Length of K-op  integral file:               0.30 MB
 Length of 3-ext integral record:             0.00 MB

 Memory could be reduced to 1.93 Mwords without degradation in triples

 Integral transformation finished. Total CPU:   0.04 sec, npass=  1  Memory used:   1.45 MW

 Reference energy:                   -115.83246480

 MP2 singlet pair energy:              -0.25570253
 MP2 triplet pair energy:              -0.14556593
 MP2 correlation energy:               -0.40126846
 MP2 total energy:                   -116.23373326

 SCS-MP2 correlation energy:           -0.39741739   (PS=  1.200000  PT=  0.333333)
 SCS-MP2 total energy:               -116.22988219

 ITER.      SQ.NORM     CORR.ENERGY   TOTAL ENERGY   ENERGY CHANGE        DEN1      VAR(S)    VAR(P)  DIIS     TIME
   1      1.16377050    -0.42755966  -116.26002446    -0.02629120    -0.01452840  0.13D-02  0.29D-02  1  1     0.12
   2      1.17853347    -0.43074820  -116.26321300    -0.00318854    -0.01245961  0.29D-04  0.36D-03  2  2     0.21
   3      1.18300156    -0.43093133  -116.26339613    -0.00018313    -0.00208978  0.69D-05  0.36D-04  3  3     0.30
   4      1.18487719    -0.43101014  -116.26347494    -0.00007881    -0.00057009  0.36D-06  0.32D-05  4  4     0.39
   5      1.18528779    -0.43101616  -116.26348096    -0.00000602    -0.00008870  0.34D-07  0.29D-06  5  5     0.48
   6      1.18535343    -0.43101320  -116.26347800     0.00000296    -0.00000910  0.38D-08  0.17D-07  6  6     0.57
   7      1.18536155    -0.43101346  -116.26347826    -0.00000026     0.00000075  0.44D-09  0.12D-08  6  2     0.66
   8      1.18536289    -0.43101333  -116.26347813     0.00000012    -0.00000004  0.33D-10  0.94D-10  6  1     0.75
   9      1.18536318    -0.43101331  -116.26347811     0.00000003    -0.00000009  0.63D-11  0.79D-11  6  3     0.84
  10      1.18536306    -0.43101331  -116.26347811    -0.00000001     0.00000010  0.40D-12  0.63D-12  6  4     0.93
  11      1.18536297    -0.43101332  -116.26347812    -0.00000001     0.00000005  0.73D-13  0.74D-13  6  5     1.02
  12      1.18536291    -0.43101333  -116.26347813    -0.00000000     0.00000002  0.58D-14  0.14D-13  6  6     1.11
  13      1.18536289    -0.43101333  -116.26347813    -0.00000000     0.00000001  0.55D-15  0.25D-14  6  2     1.19
  14      1.18536287    -0.43101333  -116.26347813    -0.00000000     0.00000000  0.47D-16  0.30D-15  6  1     1.28
  15      1.18536287    -0.43101333  -116.26347813    -0.00000000     0.00000000  0.15D-16  0.32D-16  6  3     1.37
  16      1.18536287    -0.43101333  -116.26347813    -0.00000000     0.00000000  0.30D-17  0.38D-17  6  4     1.46
  17      1.18536287    -0.43101333  -116.26347813    -0.00000000     0.00000000  0.69D-18  0.46D-18  6  5     1.55
  18      1.18536287    -0.43101333  -116.26347813    -0.00000000     0.00000000  0.99D-19  0.54D-19  6  6     1.64
  19      1.18536287    -0.43101333  -116.26347813     0.00000000     0.00000000  0.22D-19  0.75D-20  6  2     1.73
  20      1.18536287    -0.43101333  -116.26347813     0.00000000    -0.00000000  0.39D-20  0.16D-20  6  1     1.82

 Norm of t1 vector:      0.05136933      S-energy:    -0.00000000      T1 diagnostic:  0.00908090
                                                                       D1 diagnostic:  0.02704649

 Doubles amplitudes (print threshold =  0.500E-01):

         I         J         SYM. A    SYM. B    A         B      T(IJ, AB)

         8         8         1         1         1         1     -0.10629689


 Total CPU time for triples:      0.57 sec


 RESULTS
 =======

  Reference energy                   -115.832464799061
  CCSD singlet pair energy             -0.301088236991
  CCSD triplet pair energy             -0.129925089837
  CCSD correlation energy              -0.431013326827

  Triples (T) contribution             -0.016205633872
  Total correlation energy             -0.447218960700

  CCSD total energy                  -116.263478125888
  CCSD[T] energy                     -116.280036418337
  CCSD-T energy                      -116.279510033946
 !CCSD(T) total energy               -116.279683759761

 Timing summary (sec):

 STEP                 CPU(USER)    SYS     CPU(TOT)    WALL
 Transformation          0.04      0.01      0.05      0.06
 CCSD iterations         1.78      0.10      1.88      1.90
 Triples                 0.57      0.01      0.58      0.57

 Program statistics:

 Available memory in ccsd:               999999644
 Min. memory needed in ccsd:                278748
 Max. memory used in ccsd:                  341544
 Max. memory used in cckext:                342982 (20 integral passes)



 **********************************************************************************************************************************
 DATASETS  * FILE   NREC   LENGTH (MB)   RECORD NAMES
              1      20       24.38       500      610      700      900      950      970     1000      129      960     1100   
                                          VAR    BASINP    GEOM    SYMINP    ZMAT    AOBASIS   BASIS     P2S    ABASIS      S 
                                         1400     1410     1200     1210     1080     1600     1650     1300     1700     1380   
                                           T        V       H0       H01     AOSYM     SMH    MOLCAS    ERIS     OPER     JKOP   

              2       3        0.44       700     1000     2100   
                                         GEOM     BASIS     RHF  

 PROGRAMS   *        TOTAL   CCSD(T)       RHF       INT
 CPU TIMES  *         2.90      2.39      0.20      0.26
 REAL TIME  *         3.33 SEC
 DISK USED  *        62.47 MB      
 GA USED    *         0.00 MB       (max)       0.00 MB       (current)
 **********************************************************************************************************************************

        CCSD(T)         RHF-SCF 
   -116.27968376   -115.83246480
 **********************************************************************************************************************************
 Variable memory released
