
 Primary working directories    : /tmp/943448.387.gen6.q
 Secondary working directories  : /tmp/943448.387.gen6.q
 Wavefunction directory         : /home/vulcan/mel64643/wfu/
 Main file repository           : /tmp/943448.387.gen6.q/

 ARCHNAME  : Linux/x86_64
 FC        : /opt/intel/compilers_and_libraries_2016.1.150/linux/bin/intel64/ifort
 FCVERSION : 16.0.1
 BLASLIB   : -mkl
 id        : ccgc

 Nodes     nprocs
 n081         1
 ga_uses_ma=false, calling ma_init with nominal heap.
 GA-space will be limited to   8.0 MW (determined by -G option)

 Using customized tuning parameters: mindgm=10; mindgv=16; mindgc=4; mindgr=1; noblas=0; mincuda=1000; minvec=7
 default implementation of scratch files=df  

 ***,Optimization of nh3_nitrosmethane
 memory,1000,m
 gthresh,energy=1.0d-12,orbital=1.0d-10,oneint=1.0d-16,twoint=1.0d-16,optgrad=1.0d-6,compress=1.0d-13
 geomtyp=xyz
 
 bohr
 geometry = {
  N   -5.2222569062   -0.1834077839   -0.0048824442
  H   -6.3062803770    0.2429018374   -1.5292476889
  H   -3.7569835574    1.0585519501    0.0033298632
  H   -6.3016062079    0.2171599796    1.5297467379
  H   -0.9238630141   -2.3991505027    0.0021403581
  H    1.8822548930   -3.4368710151   -1.6640727332
  H    1.8835598843   -3.4318033453    1.6693033398
  C    1.1366350919   -2.4699083301    0.0014412599
  N    2.2679240631    0.0975477480   -0.0029048864
  O    0.7047346203    1.7820364709   -0.0048538061
 }
 
 basis=aug-cc-pvdz
 {rhf;maxit,200}
 {ccsd(t);maxit,200}

 Variables initialized (661), CPU time= 0.00 sec
 Commands  initialized (458), CPU time= 0.01 sec, 486 directives.
 Default parameters read. Elapsed time= 0.04 sec

 Checking input...
 Passed
1


                                         ***  PROGRAM SYSTEM MOLPRO  ***
                         Copyright, University College Cardiff Consultants Limited, 2008

                                    Version 2010.1 linked May 16 2016 07:17:05


 **********************************************************************************************************************************
 LABEL *   Optimization of nh3_nitrosmethane                                             
 Linux-4.4.3/n081(x86_64) 64 bit mpp version                                             DATE: 26-Oct-23          TIME: 14:07:19  
 **********************************************************************************************************************************

 SHA1:             9e8077add272b0f3cad6f7df79ec5211205f459d
 **********************************************************************************************************************************

 THRESHOLDS:

 ZERO    =  1.00D-12  ONEINT  =  1.00D-16  TWOINT  =  1.00D-16  PREFAC  =  1.00D-14  LOCALI  =  1.00D-09  EORDER  =  1.00D-04
 ENERGY  =  1.00D-12  ETEST   =  0.00D+00  EDENS   =  0.00D+00  THRDEDEF=  1.00D-06  GRADIENT=  1.00D-02  STEP    =  1.00D-03
 ORBITAL =  1.00D-10  CIVEC   =  1.00D-05  COEFF   =  1.00D-04  PRINTCI =  5.00D-02  PUNCHCI =  9.90D+01  OPTGRAD =  1.00D-06
 OPTENERG=  1.00D-06  OPTSTEP =  3.00D-04  THRGRAD =  1.00D-10  COMPRESS=  1.00D-13  VARMIN  =  1.00D-07  VARMAX  =  1.00D-03
 THRDOUB =  0.00D+00  THRDIV  =  1.00D-05  THRRED  =  1.00D-07  THRPSP  =  1.00D+00  THRDC   =  1.00D-10  THRCS   =  1.00D-10
 THRNRM  =  1.00D-08  THREQ   =  0.00D+00  THRDE   =  1.00D+00  THRREF  =  1.00D-05  SPARFAC =  1.00D+00  THRDLP  =  1.00D-07
 THRDIA  =  1.00D-10  THRDLS  =  1.00D-07  THRGPS  =  0.00D+00  THRKEX  =  0.00D+00  THRDIS  =  2.00D-01  THRVAR  =  1.00D-10
 THRLOC  =  1.00D-06  THRGAP  =  1.00D-06  THRLOCT = -1.00D+00  THRGAPT = -1.00D+00  THRORB  =  1.00D-06  THRMLTP =  0.00D+00
 THRCPQCI=  1.00D-10  KEXTA   =  0.00D+00  THRCOARS=  0.00D+00  SYMTOL  =  1.00D-06  GRADTOL =  1.00D-06  THROVL  =  1.00D-08
 THRORTH =  1.00D-08  GRID    =  1.00D-06  GRIDMAX =  1.00D-03  DTMAX   =  0.00D+00

 SETTING GEOMTYP        =    XYZ
 ZUNIT=BOHR
 

 Variable memory set to 1000000000 words,  buffer space   230000 words

 SETTING BASIS          =    AUG-CC-PVDZ


 Recomputing integrals since basis changed


 Using spherical harmonics

 Library entry N      S aug-cc-pVDZ          selected for orbital group  1
 Library entry N      P aug-cc-pVDZ          selected for orbital group  1
 Library entry N      D aug-cc-pVDZ          selected for orbital group  1
 Library entry H      S aug-cc-pVDZ          selected for orbital group  2
 Library entry H      P aug-cc-pVDZ          selected for orbital group  2
 Library entry C      S aug-cc-pVDZ          selected for orbital group  3
 Library entry C      P aug-cc-pVDZ          selected for orbital group  3
 Library entry C      D aug-cc-pVDZ          selected for orbital group  3
 Library entry O      S aug-cc-pVDZ          selected for orbital group  5
 Library entry O      P aug-cc-pVDZ          selected for orbital group  5
 Library entry O      D aug-cc-pVDZ          selected for orbital group  5

1PROGRAM * SEWARD (Integral evaluation for generally contracted gaussian basis sets)     Author: Roland Lindh, 1990

 Geometry written to block  1 of record 700


 Point group  C1  



 ATOMIC COORDINATES

 NR  ATOM    CHARGE       X              Y              Z

   1  N       7.00   -5.222256906   -0.183407784   -0.004882444
   2  H       1.00   -6.306280377    0.242901837   -1.529247689
   3  H       1.00   -3.756983557    1.058551950    0.003329863
   4  H       1.00   -6.301606208    0.217159980    1.529746738
   5  H       1.00   -0.923863014   -2.399150503    0.002140358
   6  H       1.00    1.882254893   -3.436871015   -1.664072733
   7  H       1.00    1.883559884   -3.431803345    1.669303340
   8  C       6.00    1.136635092   -2.469908330    0.001441260
   9  N       7.00    2.267924063    0.097547748   -0.002904886
  10  O       8.00    0.704734620    1.782036471   -0.004853806

 Bond lengths in Bohr (Angstrom)

 1-2  1.918472355  1-3  1.920822066  1-4  1.918472354  5-8  2.061712784  6-8  2.065164057
     ( 1.015211846)     ( 1.016455260)     ( 1.015211846)     ( 1.091011417)     ( 1.092837752)

  7- 8  2.065164057   8- 9  2.805648648   9-10  2.298057286
       ( 1.092837752)       ( 1.484685321)       ( 1.216079541)

 Bond angles

  2-1-3  106.90324173   2-1-4  105.74163998   3-1-4  106.90324194   5-8-6  112.15889786

  5-8-7  112.15889783   5-8-9  111.81278751   6-8-7  107.61735056   6-8-9  106.35838671

  7- 8- 9  106.35838669   8- 9-10  113.35946296

 NUCLEAR CHARGE:                   34
 NUMBER OF PRIMITIVE AOS:         214
 NUMBER OF SYMMETRY AOS:          206
 NUMBER OF CONTRACTIONS:          146   ( 146A   )
 NUMBER OF CORE ORBITALS:           4   (   4A   )
 NUMBER OF VALENCE ORBITALS:       22   (  22A   )


 NUCLEAR REPULSION ENERGY  117.38449211


 Eigenvalues of metric

         1 0.324E-03 0.519E-03 0.620E-03 0.674E-03 0.106E-02 0.118E-02 0.126E-02 0.185E-02


 Contracted 2-electron integrals neglected if value below      1.0D-16
 AO integral compression algorithm  1   Integral accuracy      1.0D-16

     491.520 MB (compressed) written to integral file ( 91.7%)

     Node minimum: 491.520 MB, node maximum: 491.520 MB


 NUMBER OF SORTED TWO-ELECTRON INTEGRALS:   57582546.     BUFFER LENGTH:  32768
 NUMBER OF SEGMENTS:   4  SEGMENT LENGTH:   15999503      RECORD LENGTH: 524288

 Memory used in sort:      16.56 MW

 SORT1 READ    67015859. AND WROTE    57253850. INTEGRALS IN    166 RECORDS. CPU TIME:     0.57 SEC, REAL TIME:     0.92 SEC
 SORT2 READ    57253850. AND WROTE    57582546. INTEGRALS IN   1875 RECORDS. CPU TIME:     0.42 SEC, REAL TIME:     0.65 SEC

 FILE SIZES:   FILE 1:   432.0 MBYTE,  FILE 4:   696.3 MBYTE,   TOTAL:   1128.3 MBYTE

 OPERATOR DM      FOR CENTER  0  COORDINATES:    0.000000    0.000000    0.000000


 **********************************************************************************************************************************
 DATASETS  * FILE   NREC   LENGTH (MB)   RECORD NAMES
              1      19      432.30       500      610      700      900      950      970     1000      129      960     1100   
                                          VAR    BASINP    GEOM    SYMINP    ZMAT    AOBASIS   BASIS     P2S    ABASIS      S 
                                         1400     1410     1200     1210     1080     1600     1650     1300     1700   
                                           T        V       H0       H01     AOSYM     SMH    MOLCAS    ERIS     OPER   

 PROGRAMS   *        TOTAL       INT
 CPU TIMES  *         2.97      2.93
 REAL TIME  *         3.94 SEC
 DISK USED  *         1.62 GB      
 GA USED    *         0.00 MB       (max)       0.00 MB       (current)
 **********************************************************************************************************************************

1PROGRAM * RHF-SCF (CLOSED SHELL)       Authors: W. Meyer, H.-J. Werner


 NUMBER OF ELECTRONS:      17+   17-    SPACE SYMMETRY=1    SPIN SYMMETRY: Singlet 
 CONVERGENCE THRESHOLDS:    1.00E-10 (Density)    1.00E-13 (Energy)
 MAX. NUMBER OF ITERATIONS:      200
 INTERPOLATION TYPE:            DIIS
 INTERPOLATION STEPS:              2 (START)      1 (STEP)
 LEVEL SHIFTS:                  0.00 (CLOSED)  0.00 (OPEN) 



 Orbital guess generated from atomic densities. Full valence occupancy:   26

 Molecular orbital dump at record        2100.2

 ITERATION    DDIFF          GRAD             ENERGY        2-EL.EN.            DIPOLE MOMENTS         DIIS
    1      0.000D+00      0.000D+00      -224.96617713    393.079278    0.06870   -0.58057    0.00951    0
    2      0.000D+00      0.594D-02      -225.02698891    392.697851   -0.57855   -0.38594    0.00550    1
    3      0.111D-01      0.415D-02      -225.06088818    393.249385   -0.23479   -0.56377    0.00650    2
    4      0.480D-02      0.830D-03      -225.06314886    393.084358   -0.31287   -0.46633    0.00660    3
    5      0.121D-02      0.329D-03      -225.06357326    393.095957   -0.31043   -0.49608    0.00658    4
    6      0.540D-03      0.799D-04      -225.06361613    393.123449   -0.31590   -0.49315    0.00659    5
    7      0.180D-03      0.305D-04      -225.06362223    393.107237   -0.31753   -0.49320    0.00660    6
    8      0.748D-04      0.124D-04      -225.06362323    393.113692   -0.31854   -0.49310    0.00660    7
    9      0.285D-04      0.531D-05      -225.06362345    393.112561   -0.31882   -0.49280    0.00660    8
   10      0.160D-04      0.163D-05      -225.06362347    393.112268   -0.31891   -0.49262    0.00660    8
   11      0.483D-05      0.547D-06      -225.06362347    393.112375   -0.31893   -0.49253    0.00660    8
   12      0.162D-05      0.167D-06      -225.06362347    393.112338   -0.31893   -0.49251    0.00660    8
   13      0.580D-06      0.525D-07      -225.06362347    393.112332   -0.31893   -0.49250    0.00660    8
   14      0.145D-06      0.267D-07      -225.06362347    393.112334   -0.31893   -0.49250    0.00660    9
   15      0.657D-07      0.369D-08      -225.06362347    393.112334   -0.31893   -0.49250    0.00660    8
   16      0.919D-08      0.227D-08      -225.06362347    393.112334   -0.31893   -0.49250    0.00660    7
   17      0.853D-08      0.154D-08      -225.06362347    393.112335   -0.31893   -0.49250    0.00660    7
   18      0.108D-07      0.752D-09      -225.06362347    393.112334   -0.31893   -0.49250    0.00660    8
   19      0.712D-08      0.218D-09      -225.06362347    393.112334   -0.31893   -0.49250    0.00660    9
   20      0.137D-08      0.545D-10      -225.06362347    393.112334   -0.31893   -0.49250    0.00660    9
   21      0.242D-09      0.196D-10      -225.06362347    393.112334   -0.31893   -0.49250    0.00660    9
   22      0.470D-10      0.596D-11      -225.06362347    393.112334   -0.31893   -0.49250    0.00660    9
   23      0.180D-10      0.175D-11      -225.06362347    393.112334   -0.31893   -0.49250    0.00660    9
   24      0.615D-11      0.720D-12      -225.06362347    393.112334   -0.31893   -0.49250    0.00660    0

 Final occupancy:  17

 !RHF STATE 1.1 Energy               -225.063623474449
 Nuclear energy                       117.38449211
 One-electron energy                 -539.00428282
 Two-electron energy                  196.55616724
 Virial quotient                       -1.00217658
 !RHF STATE 1.1 Dipole moment          -0.31892886    -0.49250324     0.00659800
 Dipole moment /Debye                  -0.81058321    -1.25173637     0.01676935

 Orbital energies:

         1.1          2.1          3.1          4.1          5.1          6.1          7.1          8.1          9.1         10.1
    -20.640546   -15.714933   -15.548593   -11.270893    -1.515120    -1.140407    -1.076185    -0.862480    -0.691485    -0.676072

        11.1         12.1         13.1         14.1         15.1         16.1         17.1         18.1         19.1
     -0.636330    -0.624668    -0.623247    -0.555749    -0.534546    -0.428471    -0.406248     0.034986     0.046212


 **********************************************************************************************************************************
 DATASETS  * FILE   NREC   LENGTH (MB)   RECORD NAMES
              1      19      432.30       500      610      700      900      950      970     1000      129      960     1100   
                                          VAR    BASINP    GEOM    SYMINP    ZMAT    AOBASIS   BASIS     P2S    ABASIS      S 
                                         1400     1410     1200     1210     1080     1600     1650     1300     1700   
                                           T        V       H0       H01     AOSYM     SMH    MOLCAS    ERIS     OPER   

              2       3        0.86       700     1000     2100   
                                         GEOM     BASIS     RHF  

 PROGRAMS   *        TOTAL       RHF       INT
 CPU TIMES  *        11.54      8.57      2.93
 REAL TIME  *        13.53 SEC
 DISK USED  *         1.62 GB      
 GA USED    *         0.00 MB       (max)       0.00 MB       (current)
 **********************************************************************************************************************************


1PROGRAM * CCSD (Closed-shell coupled cluster)     Authors: C. Hampel, H.-J. Werner, 1991, M. Deegan, P.J. Knowles, 1992


 Convergence thresholds:  THRVAR = 1.00D-08  THRDEN = 1.00D-12

 CCSD(T)     terms to be evaluated (factor= 1.000)


 Number of core orbitals:           4 (   4 )
 Number of closed-shell orbitals:  13 (  13 )
 Number of external orbitals:     129 ( 129 )

 Molecular orbitals read from record     2100.2  Type=RHF/CANONICAL (state 1.1)

 Number of N-1 electron functions:              13
 Number of N-2 electron functions:              91
 Number of singly external CSFs:              1677
 Number of doubly external CSFs:           1407003
 Total number of CSFs:                     1408681

 Length of J-op  integral file:               0.00 MB
 Length of K-op  integral file:               1.50 MB
 Length of 3-ext integral record:             0.00 MB

 Memory could be reduced to 37.23 Mwords without degradation in triples

 Integral transformation finished. Total CPU:   1.95 sec, npass=  1  Memory used:  25.63 MW

 Reference energy:                   -225.06362347

 MP2 singlet pair energy:              -0.45131266
 MP2 triplet pair energy:              -0.26573696
 MP2 correlation energy:               -0.71704962
 MP2 total energy:                   -225.78067309

 SCS-MP2 correlation energy:           -0.70692263   (PS=  1.200000  PT=  0.333333)
 SCS-MP2 total energy:               -225.77054611

 ITER.      SQ.NORM     CORR.ENERGY   TOTAL ENERGY   ENERGY CHANGE        DEN1      VAR(S)    VAR(P)  DIIS     TIME
   1      1.24222880    -0.75079570  -225.81441917    -0.03374608    -0.00983980  0.53D-02  0.49D-02  1  1     6.01
   2      1.26409347    -0.75385342  -225.81747690    -0.00305773    -0.02116249  0.17D-03  0.87D-03  2  2    10.11
   3      1.27420045    -0.75456197  -225.81818544    -0.00070854    -0.00465287  0.12D-03  0.62D-04  3  3    14.22
   4      1.27838887    -0.75452636  -225.81814983     0.00003561    -0.00138530  0.11D-04  0.11D-04  4  4    18.32
   5      1.28006781    -0.75454437  -225.81816785    -0.00001801    -0.00036598  0.20D-05  0.17D-05  5  5    22.45
   6      1.28053482    -0.75451404  -225.81813752     0.00003033    -0.00005580  0.17D-06  0.34D-06  6  6    26.56
   7      1.28064017    -0.75451062  -225.81813409     0.00000342    -0.00000437  0.37D-07  0.92D-07  6  2    30.67
   8      1.28066728    -0.75451143  -225.81813491    -0.00000081    -0.00000065  0.52D-08  0.22D-07  6  1    34.78
   9      1.28067352    -0.75451078  -225.81813425     0.00000065     0.00000233  0.20D-08  0.33D-08  6  3    38.89
  10      1.28066816    -0.75451174  -225.81813522    -0.00000096     0.00000152  0.47D-09  0.64D-09  6  5    42.99
  11      1.28066756    -0.75451192  -225.81813540    -0.00000018     0.00000058  0.14D-09  0.68D-10  6  4    47.10
  12      1.28066659    -0.75451197  -225.81813544    -0.00000004     0.00000018  0.40D-10  0.13D-10  6  6    51.22
  13      1.28066593    -0.75451202  -225.81813549    -0.00000005     0.00000007  0.92D-11  0.35D-11  6  2    55.33
  14      1.28066542    -0.75451202  -225.81813550    -0.00000001     0.00000007  0.25D-11  0.79D-12  6  1    59.44
  15      1.28066513    -0.75451204  -225.81813551    -0.00000001     0.00000005  0.43D-12  0.21D-12  6  5    63.55
  16      1.28066496    -0.75451204  -225.81813552    -0.00000001     0.00000003  0.13D-12  0.39D-13  6  3    67.67
  17      1.28066492    -0.75451205  -225.81813552    -0.00000000     0.00000001  0.84D-13  0.14D-13  6  4    71.78
  18      1.28066490    -0.75451205  -225.81813552    -0.00000000     0.00000000  0.55D-13  0.72D-14  6  6    75.89
  19      1.28066489    -0.75451205  -225.81813552     0.00000000    -0.00000000  0.29D-13  0.38D-14  6  2    80.00
  20      1.28066490    -0.75451205  -225.81813552     0.00000000     0.00000000  0.94D-14  0.21D-14  6  1    84.11
  21      1.28066490    -0.75451205  -225.81813552     0.00000000    -0.00000000  0.24D-14  0.11D-14  6  3    88.22
  22      1.28066490    -0.75451205  -225.81813552    -0.00000000     0.00000000  0.34D-15  0.34D-15  6  5    92.34
  23      1.28066491    -0.75451205  -225.81813552     0.00000000    -0.00000000  0.56D-16  0.97D-16  6  6    96.46
  24      1.28066491    -0.75451205  -225.81813552    -0.00000000    -0.00000000  0.43D-17  0.20D-16  6  4   100.58
  25      1.28066491    -0.75451205  -225.81813552     0.00000000    -0.00000000  0.12D-17  0.26D-17  6  2   104.68
  26      1.28066491    -0.75451205  -225.81813552     0.00000000    -0.00000000  0.50D-18  0.86D-18  6  1   108.80
  27      1.28066491    -0.75451205  -225.81813552     0.00000000    -0.00000000  0.25D-18  0.24D-18  6  3   112.93
  28      1.28066491    -0.75451205  -225.81813552     0.00000000    -0.00000000  0.17D-18  0.62D-19  6  5   117.04
  29      1.28066491    -0.75451205  -225.81813552     0.00000000    -0.00000000  0.12D-18  0.23D-19  6  6   121.16
  30      1.28066491    -0.75451205  -225.81813552     0.00000000    -0.00000000  0.80D-19  0.99D-20  6  4   125.26

 Norm of t1 vector:      0.11184111      S-energy:     0.00000000      T1 diagnostic:  0.01550957
                                                                       D1 diagnostic:  0.04953084

 Doubles amplitudes (print threshold =  0.500E-01):

         I         J         SYM. A    SYM. B    A         B      T(IJ, AB)

         7         7         1         1         7         7     -0.05242716
        11         7         1         1         7         7     -0.05300260
        11        11         1         1         7         7     -0.07521901


 Total CPU time for triples:     65.10 sec


 RESULTS
 =======

  Reference energy                   -225.063623474450
  CCSD singlet pair energy             -0.519384054208
  CCSD triplet pair energy             -0.235127991171
  CCSD correlation energy              -0.754512045376

  Triples (T) contribution             -0.026868386214
  Total correlation energy             -0.781380431590

  CCSD total energy                  -225.818135519826
  CCSD[T] energy                     -225.846633477381
  CCSD-T energy                      -225.844493196581
 !CCSD(T) total energy               -225.845003906040

 Timing summary (sec):

 STEP                 CPU(USER)    SYS     CPU(TOT)    WALL
 Transformation          2.01      0.20      2.21      2.21
 CCSD iterations       123.26      3.51    126.77    126.84
 Triples                65.10      1.25     66.35     66.37

 Program statistics:

 Available memory in ccsd:               999999224
 Min. memory needed in ccsd:               3720021
 Max. memory used in ccsd:                 4957023
 Max. memory used in cckext:               4136268 (30 integral passes)



 **********************************************************************************************************************************
 DATASETS  * FILE   NREC   LENGTH (MB)   RECORD NAMES
              1      20      568.58       500      610      700      900      950      970     1000      129      960     1100   
                                          VAR    BASINP    GEOM    SYMINP    ZMAT    AOBASIS   BASIS     P2S    ABASIS      S 
                                         1400     1410     1200     1210     1080     1600     1650     1300     1700     1380   
                                           T        V       H0       H01     AOSYM     SMH    MOLCAS    ERIS     OPER     JKOP   

              2       3        0.86       700     1000     2100   
                                         GEOM     BASIS     RHF  

 PROGRAMS   *        TOTAL   CCSD(T)       RHF       INT
 CPU TIMES  *       201.92    190.38      8.57      2.93
 REAL TIME  *       209.00 SEC
 DISK USED  *         1.62 GB      
 GA USED    *         0.00 MB       (max)       0.00 MB       (current)
 **********************************************************************************************************************************

        CCSD(T)         RHF-SCF 
   -225.84500391   -225.06362347
 **********************************************************************************************************************************
 Variable memory released
