
 Primary working directories    : /tmp/943168.463.gen6.q
 Secondary working directories  : /tmp/943168.463.gen6.q
 Wavefunction directory         : /home/vulcan/mel64643/wfu/
 Main file repository           : /tmp/943168.463.gen6.q/

 ARCHNAME  : Linux/x86_64
 FC        : /opt/intel/compilers_and_libraries_2016.1.150/linux/bin/intel64/ifort
 FCVERSION : 16.0.1
 BLASLIB   : -mkl
 id        : ccgc

 Nodes     nprocs
 n084         1
 ga_uses_ma=false, calling ma_init with nominal heap.
 GA-space will be limited to   8.0 MW (determined by -G option)

 Using customized tuning parameters: mindgm=10; mindgv=16; mindgc=4; mindgr=1; noblas=0; mincuda=1000; minvec=7
 default implementation of scratch files=df  

 ***,Optimization of h2o_2
 memory,1000,m
 gthresh,energy=1.0d-12,orbital=1.0d-10,oneint=1.0d-16,twoint=1.0d-16,optgrad=1.0d-6,compress=1.0d-13
 geomtyp=xyz
 
 bohr
 geometry = {
  C    0.0025085394   -3.4230964086   -0.0035301564
  H   -0.9626345122   -2.7062190789   -1.6761452493
  H   -0.9553334497   -2.7356521904    1.6855568226
  H    1.9474806591   -2.7448391316    0.0066137696
  H   -0.0095698858   -5.4828504302   -0.0131389986
  C   -0.0044834734    3.4203971316    0.0001136028
  H    0.0030585965    5.4801271813   -0.0166226694
  H    0.9647159704    2.7135020125   -1.6744034585
  H    0.9622178748    2.7408268912    1.6873386805
  H   -1.9479603190    2.7378040230    0.0042176566
 }
 
 basis=AVDZ
 {rhf;maxit,200}
 {ccsd(t);maxit,200}

 Variables initialized (661), CPU time= 0.00 sec
 Commands  initialized (458), CPU time= 0.01 sec, 486 directives.
 Default parameters read. Elapsed time= 0.04 sec

 Checking input...
 Passed
1


                                         ***  PROGRAM SYSTEM MOLPRO  ***
                         Copyright, University College Cardiff Consultants Limited, 2008

                                    Version 2010.1 linked May 16 2016 07:17:05


 **********************************************************************************************************************************
 LABEL *   Optimization of h2o_2                                                         
 Linux-4.4.3/n084(x86_64) 64 bit mpp version                                             DATE: 23-Oct-23          TIME: 11:10:03  
 **********************************************************************************************************************************

 SHA1:             9e8077add272b0f3cad6f7df79ec5211205f459d
 **********************************************************************************************************************************

 THRESHOLDS:

 ZERO    =  1.00D-12  ONEINT  =  1.00D-16  TWOINT  =  1.00D-16  PREFAC  =  1.00D-14  LOCALI  =  1.00D-09  EORDER  =  1.00D-04
 ENERGY  =  1.00D-12  ETEST   =  0.00D+00  EDENS   =  0.00D+00  THRDEDEF=  1.00D-06  GRADIENT=  1.00D-02  STEP    =  1.00D-03
 ORBITAL =  1.00D-10  CIVEC   =  1.00D-05  COEFF   =  1.00D-04  PRINTCI =  5.00D-02  PUNCHCI =  9.90D+01  OPTGRAD =  1.00D-06
 OPTENERG=  1.00D-06  OPTSTEP =  3.00D-04  THRGRAD =  1.00D-10  COMPRESS=  1.00D-13  VARMIN  =  1.00D-07  VARMAX  =  1.00D-03
 THRDOUB =  0.00D+00  THRDIV  =  1.00D-05  THRRED  =  1.00D-07  THRPSP  =  1.00D+00  THRDC   =  1.00D-10  THRCS   =  1.00D-10
 THRNRM  =  1.00D-08  THREQ   =  0.00D+00  THRDE   =  1.00D+00  THRREF  =  1.00D-05  SPARFAC =  1.00D+00  THRDLP  =  1.00D-07
 THRDIA  =  1.00D-10  THRDLS  =  1.00D-07  THRGPS  =  0.00D+00  THRKEX  =  0.00D+00  THRDIS  =  2.00D-01  THRVAR  =  1.00D-10
 THRLOC  =  1.00D-06  THRGAP  =  1.00D-06  THRLOCT = -1.00D+00  THRGAPT = -1.00D+00  THRORB  =  1.00D-06  THRMLTP =  0.00D+00
 THRCPQCI=  1.00D-10  KEXTA   =  0.00D+00  THRCOARS=  0.00D+00  SYMTOL  =  1.00D-06  GRADTOL =  1.00D-06  THROVL  =  1.00D-08
 THRORTH =  1.00D-08  GRID    =  1.00D-06  GRIDMAX =  1.00D-03  DTMAX   =  0.00D+00

 SETTING GEOMTYP        =    XYZ
 ZUNIT=BOHR
 

 Variable memory set to 1000000000 words,  buffer space   230000 words

 SETTING BASIS          =    AVDZ


 Recomputing integrals since basis changed


 Using spherical harmonics

 Library entry C      S aug-cc-pVDZ          selected for orbital group  1
 Library entry C      P aug-cc-pVDZ          selected for orbital group  1
 Library entry C      D aug-cc-pVDZ          selected for orbital group  1
 Library entry H      S aug-cc-pVDZ          selected for orbital group  2
 Library entry H      P aug-cc-pVDZ          selected for orbital group  2

1PROGRAM * SEWARD (Integral evaluation for generally contracted gaussian basis sets)     Author: Roland Lindh, 1990

 Geometry written to block  1 of record 700


 Point group  C1  



 ATOMIC COORDINATES

 NR  ATOM    CHARGE       X              Y              Z

   1  C       6.00    0.002508539   -3.423096409   -0.003530156
   2  H       1.00   -0.962634512   -2.706219079   -1.676145249
   3  H       1.00   -0.955333450   -2.735652190    1.685556823
   4  H       1.00    1.947480659   -2.744839132    0.006613770
   5  H       1.00   -0.009569886   -5.482850430   -0.013138999
   6  C       6.00   -0.004483473    3.420397132    0.000113603
   7  H       1.00    0.003058596    5.480127181   -0.016622669
   8  H       1.00    0.964715970    2.713502012   -1.674403459
   9  H       1.00    0.962217875    2.740826891    1.687338680
  10  H       1.00   -1.947960319    2.737804023    0.004217657

 Bond lengths in Bohr (Angstrom)

 1-2  2.059867827  1-3  2.059867872  1-4  2.059867078  1-5  2.059811848  6-7  2.059811851
     ( 1.090035108)     ( 1.090035132)     ( 1.090034711)     ( 1.090005485)     ( 1.090005487)

  6- 8  2.059867874   6- 9  2.059867877   6-10  2.059867094
       ( 1.090035133)       ( 1.090035134)       ( 1.090034720)

 Bond angles

  2-1-3  109.37919295   2-1-4  109.37907599   2-1-5  109.96681728   3-1-4  108.97393375

  3-1-5  109.56167411   4-1-5  109.56176630   7-6-8  109.56240830   7-6-9  109.56240825

  7- 6-10  109.56250038   8- 6- 9  109.37992570   8- 6-10  109.37980977   9- 6-10  109.37980992

 NUCLEAR CHARGE:                   20
 NUMBER OF PRIMITIVE AOS:         162
 NUMBER OF SYMMETRY AOS:          158
 NUMBER OF CONTRACTIONS:          118   ( 118A   )
 NUMBER OF CORE ORBITALS:           2   (   2A   )
 NUMBER OF VALENCE ORBITALS:       16   (  16A   )


 NUCLEAR REPULSION ENERGY   41.34541236


 Eigenvalues of metric

         1 0.370E-03 0.570E-03 0.573E-03 0.611E-03 0.726E-03 0.729E-03 0.778E-03 0.101E-02


 Contracted 2-electron integrals neglected if value below      1.0D-16
 AO integral compression algorithm  1   Integral accuracy      1.0D-16

     214.434 MB (compressed) written to integral file ( 93.7%)

     Node minimum: 214.434 MB, node maximum: 214.434 MB


 NUMBER OF SORTED TWO-ELECTRON INTEGRALS:   24650731.     BUFFER LENGTH:  32768
 NUMBER OF SEGMENTS:   2  SEGMENT LENGTH:   15997996      RECORD LENGTH: 524288

 Memory used in sort:      16.56 MW

 SORT1 READ    28594353. AND WROTE    24462426. INTEGRALS IN     71 RECORDS. CPU TIME:     0.23 SEC, REAL TIME:     0.38 SEC
 SORT2 READ    24462426. AND WROTE    24650731. INTEGRALS IN    818 RECORDS. CPU TIME:     0.20 SEC, REAL TIME:     0.30 SEC

 FILE SIZES:   FILE 1:   190.9 MBYTE,  FILE 4:   297.8 MBYTE,   TOTAL:    488.7 MBYTE

 OPERATOR DM      FOR CENTER  0  COORDINATES:    0.000000    0.000000    0.000000


 **********************************************************************************************************************************
 DATASETS  * FILE   NREC   LENGTH (MB)   RECORD NAMES
              1      19      191.05       500      610      700      900      950      970     1000      129      960     1100   
                                          VAR    BASINP    GEOM    SYMINP    ZMAT    AOBASIS   BASIS     P2S    ABASIS      S 
                                         1400     1410     1200     1210     1080     1600     1650     1300     1700   
                                           T        V       H0       H01     AOSYM     SMH    MOLCAS    ERIS     OPER   

 PROGRAMS   *        TOTAL       INT
 CPU TIMES  *         1.35      1.31
 REAL TIME  *         1.86 SEC
 DISK USED  *       703.93 MB      
 GA USED    *         0.00 MB       (max)       0.00 MB       (current)
 **********************************************************************************************************************************

1PROGRAM * RHF-SCF (CLOSED SHELL)       Authors: W. Meyer, H.-J. Werner


 NUMBER OF ELECTRONS:      10+   10-    SPACE SYMMETRY=1    SPIN SYMMETRY: Singlet 
 CONVERGENCE THRESHOLDS:    1.00E-10 (Density)    1.00E-13 (Energy)
 MAX. NUMBER OF ITERATIONS:      200
 INTERPOLATION TYPE:            DIIS
 INTERPOLATION STEPS:              2 (START)      1 (STEP)
 LEVEL SHIFTS:                  0.00 (CLOSED)  0.00 (OPEN) 



 Orbital guess generated from atomic densities. Full valence occupancy:   18

 Molecular orbital dump at record        2100.2

 ITERATION    DDIFF          GRAD             ENERGY        2-EL.EN.            DIPOLE MOMENTS         DIIS
    1      0.000D+00      0.000D+00       -80.36233103    134.799508    0.00151    0.00212    0.00264    0
    2      0.000D+00      0.368D-02       -80.39422068    132.495797    0.00048    0.00088    0.00096    1
    3      0.809D-02      0.137D-02       -80.39819438    133.322869    0.00068    0.00107    0.00123    2
    4      0.256D-02      0.371D-03       -80.39878123    133.192139    0.00060    0.00095    0.00107    3
    5      0.868D-03      0.458D-04       -80.39878996    133.199040    0.00058    0.00093    0.00104    4
    6      0.876D-04      0.295D-05       -80.39879001    133.198876    0.00059    0.00093    0.00104    5
    7      0.107D-04      0.222D-06       -80.39879001    133.198859    0.00058    0.00093    0.00104    5
    8      0.155D-05      0.348D-07       -80.39879001    133.198858    0.00058    0.00093    0.00104    4
    9      0.290D-06      0.562D-08       -80.39879001    133.198859    0.00058    0.00093    0.00104    4
   10      0.195D-07      0.861D-09       -80.39879001    133.198859    0.00058    0.00093    0.00104    5
   11      0.193D-08      0.196D-09       -80.39879001    133.198859    0.00058    0.00093    0.00104    5
   12      0.108D-08      0.580D-10       -80.39879001    133.198859    0.00058    0.00093    0.00104    6
   13      0.195D-09      0.118D-10       -80.39879001    133.198859    0.00058    0.00093    0.00104    6
   14      0.402D-10      0.256D-11       -80.39879001    133.198859    0.00058    0.00093    0.00104    6
   15      0.985D-11      0.354D-12       -80.39879001    133.198859    0.00058    0.00093    0.00104    6
   16      0.238D-11      0.101D-12       -80.39879001    133.198859    0.00058    0.00093    0.00104    6
   17      0.113D-11      0.622D-13       -80.39879001    133.198859    0.00058    0.00093    0.00104    7
   18      0.795D-12      0.469D-13       -80.39879001    133.198859    0.00058    0.00093    0.00104    7
   19      0.505D-12      0.406D-13       -80.39879001    133.198859    0.00058    0.00093    0.00104    8
   20      0.394D-12      0.403D-13       -80.39879001    133.198859    0.00058    0.00093    0.00104    9
   21      0.239D-12      0.340D-13       -80.39879001    133.198859    0.00058    0.00093    0.00104    9
   22      0.259D-12      0.364D-13       -80.39879001    133.198859    0.00058    0.00093    0.00104    0

 Final occupancy:  10

 !RHF STATE 1.1 Energy                -80.398790009050
 Nuclear energy                        41.34541236
 One-electron energy                 -188.34363203
 Two-electron energy                   66.59942967
 Virial quotient                       -1.00196205
 !RHF STATE 1.1 Dipole moment           0.00058443     0.00092941     0.00104284
 Dipole moment /Debye                   0.00148538     0.00236218     0.00265046

 Orbital energies:

         1.1          2.1          3.1          4.1          5.1          6.1          7.1          8.1          9.1         10.1
    -11.214679   -11.214639    -0.945604    -0.939620    -0.551215    -0.546694    -0.546163    -0.539172    -0.538651    -0.535949

        11.1         12.1
      0.035479     0.045875


 **********************************************************************************************************************************
 DATASETS  * FILE   NREC   LENGTH (MB)   RECORD NAMES
              1      19      191.05       500      610      700      900      950      970     1000      129      960     1100   
                                          VAR    BASINP    GEOM    SYMINP    ZMAT    AOBASIS   BASIS     P2S    ABASIS      S 
                                         1400     1410     1200     1210     1080     1600     1650     1300     1700   
                                           T        V       H0       H01     AOSYM     SMH    MOLCAS    ERIS     OPER   

              2       3        0.70       700     1000     2100   
                                         GEOM     BASIS     RHF  

 PROGRAMS   *        TOTAL       RHF       INT
 CPU TIMES  *         4.58      3.23      1.31
 REAL TIME  *         5.54 SEC
 DISK USED  *       703.93 MB      
 GA USED    *         0.00 MB       (max)       0.00 MB       (current)
 **********************************************************************************************************************************


1PROGRAM * CCSD (Closed-shell coupled cluster)     Authors: C. Hampel, H.-J. Werner, 1991, M. Deegan, P.J. Knowles, 1992


 Convergence thresholds:  THRVAR = 1.00D-08  THRDEN = 1.00D-12

 CCSD(T)     terms to be evaluated (factor= 1.000)


 Number of core orbitals:           2 (   2 )
 Number of closed-shell orbitals:   8 (   8 )
 Number of external orbitals:     108 ( 108 )

 Molecular orbitals read from record     2100.2  Type=RHF/CANONICAL (state 1.1)

 Number of N-1 electron functions:               8
 Number of N-2 electron functions:              36
 Number of singly external CSFs:               864
 Number of doubly external CSFs:            373680
 Total number of CSFs:                      374545

 Length of J-op  integral file:               0.00 MB
 Length of K-op  integral file:               1.00 MB
 Length of 3-ext integral record:             0.00 MB

 Memory could be reduced to 14.62 Mwords without degradation in triples

 Integral transformation finished. Total CPU:   0.56 sec, npass=  1  Memory used:   8.61 MW

 Reference energy:                    -80.39879001

 MP2 singlet pair energy:              -0.24106784
 MP2 triplet pair energy:              -0.09676281
 MP2 correlation energy:               -0.33783064
 MP2 total energy:                    -80.73662065

 SCS-MP2 correlation energy:           -0.34948937   (PS=  1.200000  PT=  0.333333)
 SCS-MP2 total energy:                -80.74827938

 ITER.      SQ.NORM     CORR.ENERGY   TOTAL ENERGY   ENERGY CHANGE        DEN1      VAR(S)    VAR(P)  DIIS     TIME
   1      1.14044180    -0.38148201   -80.78027202    -0.04365137    -0.03251870  0.70D-03  0.24D-02  1  1     1.26
   2      1.15349155    -0.38423758   -80.78302759    -0.00275557    -0.01269447  0.16D-04  0.11D-03  2  2     2.01
   3      1.15560398    -0.38437032   -80.78316033    -0.00013274    -0.00113039  0.25D-05  0.71D-05  3  3     2.76
   4      1.15605108    -0.38438848   -80.78317849    -0.00001816    -0.00017668  0.10D-06  0.45D-06  4  4     3.51
   5      1.15612209    -0.38438518   -80.78317519     0.00000331    -0.00003211  0.39D-08  0.31D-07  5  5     4.27
   6      1.15612598    -0.38438417   -80.78317418     0.00000101    -0.00000142  0.28D-09  0.20D-08  6  6     5.02
   7      1.15612637    -0.38438439   -80.78317440    -0.00000022    -0.00000002  0.24D-10  0.13D-09  6  1     5.77
   8      1.15612643    -0.38438441   -80.78317442    -0.00000002    -0.00000007  0.24D-11  0.96D-11  6  2     6.52
   9      1.15612638    -0.38438441   -80.78317442    -0.00000000     0.00000003  0.45D-12  0.75D-12  6  3     7.29
  10      1.15612634    -0.38438441   -80.78317442    -0.00000000     0.00000002  0.35D-13  0.66D-13  6  4     8.05
  11      1.15612631    -0.38438441   -80.78317442    -0.00000000     0.00000002  0.33D-14  0.71D-14  6  5     8.80
  12      1.15612630    -0.38438441   -80.78317442    -0.00000000     0.00000001  0.28D-15  0.85D-15  6  6     9.55
  13      1.15612629    -0.38438441   -80.78317442    -0.00000000     0.00000000  0.22D-16  0.10D-15  6  1    10.31
  14      1.15612629    -0.38438441   -80.78317442    -0.00000000     0.00000000  0.26D-17  0.11D-16  6  3    11.07
  15      1.15612629    -0.38438441   -80.78317442    -0.00000000     0.00000000  0.20D-18  0.60D-18  6  2    11.83
  16      1.15612629    -0.38438441   -80.78317442    -0.00000000     0.00000000  0.26D-19  0.47D-19  6  4    12.58
  17      1.15612629    -0.38438441   -80.78317442    -0.00000000     0.00000000  0.32D-20  0.59D-20  6  5    13.34
  18      1.15612629    -0.38438441   -80.78317442    -0.00000000     0.00000000  0.36D-21  0.49D-21  6  6    14.09

 Norm of t1 vector:      0.03916478      S-energy:     0.00000000      T1 diagnostic:  0.00692342
                                                                       D1 diagnostic:  0.01253109


 Total CPU time for triples:      8.71 sec


 RESULTS
 =======

  Reference energy                    -80.398790009050
  CCSD singlet pair energy             -0.290158635058
  CCSD triplet pair energy             -0.094225779600
  CCSD correlation energy              -0.384384414658

  Triples (T) contribution             -0.009220256558
  Total correlation energy             -0.393604671216

  CCSD total energy                   -80.783174423708
  CCSD[T] energy                      -80.792615603253
  CCSD-T energy                       -80.792277446340
 !CCSD(T) total energy                -80.792394680266

 Timing summary (sec):

 STEP                 CPU(USER)    SYS     CPU(TOT)    WALL
 Transformation          0.57      0.07      0.64      0.65
 CCSD iterations        13.52      0.71     14.23     14.26
 Triples                 8.71      0.18      8.89      8.90

 Program statistics:

 Available memory in ccsd:               999999644
 Min. memory needed in ccsd:               1156281
 Max. memory used in ccsd:                 1468601
 Max. memory used in cckext:               1135046 (18 integral passes)



 **********************************************************************************************************************************
 DATASETS  * FILE   NREC   LENGTH (MB)   RECORD NAMES
              1      20      238.03       500      610      700      900      950      970     1000      129      960     1100   
                                          VAR    BASINP    GEOM    SYMINP    ZMAT    AOBASIS   BASIS     P2S    ABASIS      S 
                                         1400     1410     1200     1210     1080     1600     1650     1300     1700     1380   
                                           T        V       H0       H01     AOSYM     SMH    MOLCAS    ERIS     OPER     JKOP   

              2       3        0.70       700     1000     2100   
                                         GEOM     BASIS     RHF  

 PROGRAMS   *        TOTAL   CCSD(T)       RHF       INT
 CPU TIMES  *        27.39     22.81      3.23      1.31
 REAL TIME  *        29.38 SEC
 DISK USED  *       703.93 MB      
 GA USED    *         0.00 MB       (max)       0.00 MB       (current)
 **********************************************************************************************************************************

        CCSD(T)         RHF-SCF 
    -80.79239468    -80.39879001
 **********************************************************************************************************************************
 Variable memory released
