
    -----------------------------------------------------------------------
          Psi4: An Open-Source Ab Initio Electronic Structure Package
                               Psi4 1.4a2.dev629 

                         Git: Rev {master} 2938fc2 dirty


    D. G. A. Smith, L. A. Burns, A. C. Simmonett, R. M. Parrish,
    M. C. Schieber, R. Galvelis, P. Kraus, H. Kruse, R. Di Remigio,
    A. Alenaizan, A. M. James, S. Lehtola, J. P. Misiewicz, M. Scheurer,
    R. A. Shaw, J. B. Schriber, Y. Xie, Z. L. Glick, D. A. Sirianni,
    J. S. O'Brien, J. M. Waldrop, A. Kumar, E. G. Hohenstein,
    B. P. Pritchard, B. R. Brooks, H. F. Schaefer III, A. Yu. Sokolov,
    K. Patkowski, A. E. DePrince III, U. Bozkaya, R. A. King,
    F. A. Evangelista, J. M. Turney, T. D. Crawford, C. D. Sherrill,
    J. Chem. Phys. 152(18) 184108 (2020). https://doi.org/10.1063/5.0006002

                            Additional Code Authors
    E. T. Seidl, C. L. Janssen, E. F. Valeev, M. L. Leininger,
    J. F. Gonthier, R. M. Richard, H. R. McAlexander, M. Saitow, X. Wang,
    P. Verma, and M. H. Lechner

             Previous Authors, Complete List of Code Contributors,
                       and Citations for Specific Modules
    https://github.com/psi4/psi4/blob/master/codemeta.json
    https://github.com/psi4/psi4/graphs/contributors
    http://psicode.org/psi4manual/master/introduction.html#citing-psifour

    -----------------------------------------------------------------------


    Psi4 started on: Sunday, 14 November 2021 04:57PM

    Process ID: 32476
    Host:       n059
    PSIDATADIR: /opt/psi/4/master/share/psi4
    Memory:     500.0 MiB
    Threads:    4
    
  ==> Input File <==

--------------------------------------------------------------------------
import os
memory 14 GB 
 
molecule {
 C    0.0000000002   -0.0000033841    2.7157715396
 C    0.0000000016   -0.0003069373    0.1874003470
 C    0.0000000126    2.4117196077   -1.3293715775
 C   -0.0000000078   -2.4129146716   -1.3272714509
 H    0.0000000004    1.7513549905    3.7763859289
 H   -0.0000000022   -1.7514243199    3.7762903405
 H    0.0000000136    4.0803616021   -0.1082402665
 H    1.6585483363    2.4972505326   -2.5568040842
 H   -1.6585486002    2.4972502776   -2.5568039783
 H   -0.0000000006   -4.0756976729   -0.1140461091
 H   -1.6648185623   -2.4987951367   -2.5547870573
 H    1.6648188084   -2.4987948879   -2.5547869321
units bohr
}

basis {

assign 6-31g_2dfp_

[ 6-31g_2dfp_ ]

spherical

!----------------------------------------------------------------------
! Basis Set Exchange
! Version v0.8.13
! https://www.basissetexchange.org
!----------------------------------------------------------------------
!   Basis set: 6-31G(2df,p)
! Description: 6-31G(2df,p)
!        Role: orbital
!     Version: 0  (Data from the original Basis Set Exchange)
!----------------------------------------------------------------------


****
H     0
S    3   1.00
     18.7311370              0.03349460
      2.8253937              0.23472695
      0.6401217              0.81375733
S    1   1.00
      0.1612778              1.00000000
P    1   1.00
      1.5000000              1.0000000
P    1   1.00
      0.3750000              1.0000000
****
B     0
S    6   1.00
   2068.8823000              0.0018663
    310.6495700              0.0142515
     70.6830330              0.0695516
     19.8610800              0.2325729
      6.2993048              0.4670787
      2.1270270              0.3634314
SP   3   1.00
      4.7279710             -0.1303938              0.0745976
      1.1903377             -0.1307889              0.3078467
      0.3594117              1.1309444              0.7434568
SP   1   1.00
      0.1267512              1.0000000              1.0000000
D    1   1.00
      0.8020000              1.0000000
D    1   1.00
      0.2005000              1.0000000
F    1   1.00
      0.5000000              1.0000000
****
C     0
S    6   1.00
   3047.5249000              0.0018347
    457.3695100              0.0140373
    103.9486900              0.0688426
     29.2101550              0.2321844
      9.2866630              0.4679413
      3.1639270              0.3623120
SP   3   1.00
      7.8682724             -0.1193324              0.0689991
      1.8812885             -0.1608542              0.3164240
      0.5442493              1.1434564              0.7443083
SP   1   1.00
      0.1687144              1.0000000              1.0000000
D    1   1.00
      1.2520000              1.0000000
D    1   1.00
      0.3130000              1.0000000
F    1   1.00
      0.8000000              1.0000000
****
N     0
S    6   1.00
   4173.5110000              0.0018348
    627.4579000              0.0139950
    142.9021000              0.0685870
     40.2343300              0.2322410
     12.8202100              0.4690700
      4.3904370              0.3604550
SP   3   1.00
     11.6263580             -0.1149610              0.0675800
      2.7162800             -0.1691180              0.3239070
      0.7722180              1.1458520              0.7408950
SP   1   1.00
      0.2120313              1.0000000              1.0000000
D    1   1.00
      1.8260000              1.0000000
D    1   1.00
      0.4565000              1.0000000
F    1   1.00
      1.0000000              1.0000000
****
O     0
S    6   1.00
   5484.6717000              0.0018311
    825.2349500              0.0139501
    188.0469600              0.0684451
     52.9645000              0.2327143
     16.8975700              0.4701930
      5.7996353              0.3585209
SP   3   1.00
     15.5396160             -0.1107775              0.0708743
      3.5999336             -0.1480263              0.3397528
      1.0137618              1.1307670              0.7271586
SP   1   1.00
      0.2700058              1.0000000              1.0000000
D    1   1.00
      2.5840000              1.0000000
D    1   1.00
      0.6460000              1.0000000
F    1   1.00
      1.4000000              1.0000000
****
F     0
S    6   1.00
   7001.7130900              0.0018196169
   1051.3660900              0.0139160796
    239.2856900              0.0684053245
     67.3974453              0.233185760
     21.5199573              0.471267439
      7.40310130             0.356618546
SP   3   1.00
     20.8479528             -0.108506975            0.0716287243
      4.80830834            -0.146451658            0.3459121030
      1.34406986             1.128688580            0.7224699570
SP   1   1.00
      0.358151393            1.0000000              1.0000000
D    1   1.00
      3.5000000              1.0000000
D    1   1.00
      0.8750000              1.0000000
F    1   1.00
      1.8500000              1.0000000
****
Al     0
S    6   1.00
  13983.1000000              0.00194267
   2098.7500000              0.0148599
    477.7050000              0.0728494
    134.3600000              0.2468300
     42.8709000              0.4872580
     14.5189000              0.3234960
SP   6   1.00
    239.6680000             -0.00292619             0.00460285
     57.4419000             -0.0374080              0.0331990
     18.2859000             -0.1144870              0.1362820
      6.5991400              0.1156350              0.3304760
      2.4904900              0.6125950              0.4491460
      0.9445400              0.3937990              0.2657040
SP   3   1.00
      1.2779000             -0.2276060             -0.0175130
      0.3975900              0.00144583             0.2445330
      0.1600950              1.0927900              0.8049340
SP   1   1.00
      0.0556577              1.0000000              1.0000000
D    1   1.00
      0.6500000              1.0000000
D    1   1.00
      0.1625000              1.0000000
F    1   1.00
      0.2500000              1.0000000
****
Si     0
S    6   1.00
  16115.9000000              0.00195948
   2425.5800000              0.01492880
    553.8670000              0.07284780
    156.3400000              0.24613000
     50.0683000              0.48591400
     17.0178000              0.32500200
SP   6   1.00
    292.7180000             -0.00278094             0.00443826
     69.8731000             -0.03571460             0.03266790
     22.3363000             -0.11498500             0.13472100
      8.1503900              0.09356340             0.32867800
      3.1345800              0.60301700             0.44964000
      1.2254300              0.41895900             0.26137200
SP   3   1.00
      1.7273800             -0.24463000            -0.01779510
      0.5729220              0.00431572             0.25353900
      0.2221920              1.09818000             0.80066900
SP   1   1.00
      0.0778369              1.00000000             1.00000000
D    1   1.00
      0.9000000              1.0000000
D    1   1.00
      0.2250000              1.0000000
F    1   1.00
      0.3200000              1.0000000
****
P     0
S    6   1.00
  19413.3000000              0.0018516
   2909.4200000              0.0142062
    661.3640000              0.0699995
    185.7590000              0.2400790
     59.1943000              0.4847620
     20.0310000              0.3352000
SP   6   1.00
    339.4780000             -0.00278217             0.00456462
     81.0101000             -0.0360499              0.03369360
     25.8780000             -0.1166310              0.13975500
      9.4522100              0.0968328              0.33936200
      3.6656600              0.6144180              0.45092100
      1.4674600              0.4037980              0.23858600
SP   3   1.00
      2.1562300             -0.2529230             -0.01776530
      0.7489970              0.0328517              0.27405800
      0.2831450              1.0812500              0.78542100
SP   1   1.00
      0.0998317              1.0000000              1.00000000
D    1   1.00
      1.1000000              1.0000000
D    1   1.00
      0.2750000              1.0000000
F    1   1.00
      0.4500000              1.0000000
****
S     0
S    6   1.00
  21917.1000000              0.0018690
   3301.4900000              0.0142300
    754.1460000              0.0696960
    212.7110000              0.2384870
     67.9896000              0.4833070
     23.0515000              0.3380740
SP   6   1.00
    423.7350000             -0.0023767              0.0040610
    100.7100000             -0.0316930              0.0306810
     32.1599000             -0.1133170              0.1304520
     11.8079000              0.0560900              0.3272050
      4.6311000              0.5922550              0.4528510
      1.8702500              0.4550060              0.2560420
SP   3   1.00
      2.6158400             -0.2503740             -0.0145110
      0.9221670              0.0669570              0.3102630
      0.3412870              1.0545100              0.7544830
SP   1   1.00
      0.1171670              1.0000000              1.0000000
D    1   1.00
      1.3000000              1.0000000
D    1   1.00
      0.3250000              1.0000000
F    1   1.00
      0.5500000              1.0000000
****
Cl     0
S    6   1.00
  25180.1000000              0.0018330
   3780.3500000              0.0140340
    860.4740000              0.0690970
    242.1450000              0.2374520
     77.3349000              0.4830340
     26.2470000              0.3398560
SP   6   1.00
    491.7650000             -0.0022974              0.0039894
    116.9840000             -0.0307140              0.0303180
     37.4153000             -0.1125280              0.1298800
     13.7834000              0.0450160              0.3279510
      5.4521500              0.5893530              0.4535270
      2.2258800              0.4652060              0.2521540
SP   3   1.00
      3.1864900             -0.2518300             -0.0142990
      1.1442700              0.0615890              0.3235720
      0.4203770              1.0601800              0.7435070
SP   1   1.00
      0.1426570              1.0000000              1.0000000
D    1   1.00
      1.5000000              1.0000000
D    1   1.00
      0.3750000              1.0000000
F    1   1.00
      0.7000000              1.0000000
****
}


set {
reference rhf                          
freeze_core true
e_convergence 10                       
d_convergence 10                      
dft_spherical_points 1202
dft_radial_points 99
}

e = energy('b3lyp')

print_out('Grab this energy {0}'.format(e))
--------------------------------------------------------------------------

  Memory set to  13.039 GiB by Python driver.

Scratch directory: /tmp/

*** tstart() called on n059
*** at Sun Nov 14 16:57:33 2021

   => Loading Basis Set <=

    Name: ANONYMOUSCC9EE4F3
    Role: ORBITAL
    Keyword: BASIS
    atoms 1-4  entry C          line    48 inputblock 6-31g_2dfp_ 
    atoms 5-12 entry H          line    15 inputblock 6-31g_2dfp_ 


         ---------------------------------------------------------
                                   SCF
               by Justin Turney, Rob Parrish, Andy Simmonett
                          and Daniel G. A. Smith
                              RKS Reference
                        4 Threads,  13351 MiB Core
         ---------------------------------------------------------

  ==> Geometry <==

    Molecular point group: c1
    Full point group: C1

    Geometry (in Bohr), charge = 0, multiplicity = 1:

       Center              X                  Y                   Z               Mass       
    ------------   -----------------  -----------------  -----------------  -----------------
         C           -0.000000001094     0.000291776282     2.715006003427    12.000000000000
         C            0.000000000306    -0.000011776918     0.186634810827    12.000000000000
         C            0.000000011306     2.412014768082    -1.330137113673    12.000000000000
         C           -0.000000009094    -2.412619511218    -1.328036987073    12.000000000000
         H           -0.000000000894     1.751650150882     3.775620392727     1.007825032230
         H           -0.000000003494    -1.751129159518     3.775524804327     1.007825032230
         H            0.000000012306     4.080656762482    -0.109005802673     1.007825032230
         H            1.658548335006     2.497545692982    -2.557569620373     1.007825032230
         H           -1.658548601494     2.497545437982    -2.557569514473     1.007825032230
         H           -0.000000001894    -4.075402512518    -0.114811645273     1.007825032230
         H           -1.664818563594    -2.498499976318    -2.555552593473     1.007825032230
         H            1.664818807106    -2.498499727518    -2.555552468273     1.007825032230

  Running in c1 symmetry.

  Rotational constants: A =      0.30480  B =      0.27915  C =      0.15400 [cm^-1]
  Rotational constants: A =   9137.62932  B =   8368.71618  C =   4616.91878 [MHz]
  Nuclear repulsion =  119.579355553121715

  Charge       = 0
  Multiplicity = 1
  Electrons    = 32
  Nalpha       = 16
  Nbeta        = 16

  ==> Algorithm <==

  SCF Algorithm Type is DF.
  DIIS enabled.
  MOM disabled.
  Fractional occupation disabled.
  Guess Type is SAD.
  Energy threshold   = 1.00e-10
  Density threshold  = 1.00e-10
  Integral threshold = 0.00e+00

  ==> Primary Basis <==

  Basis Set: ANONYMOUSCC9EE4F3
    Blend: 6-31G_2DFP_
    Number of shells: 64
    Number of basis function: 168
    Number of Cartesian functions: 188
    Spherical Harmonics?: true
    Max angular momentum: 3

  ==> DFT Potential <==

   => Composite Functional: B3LYP <= 

    B3LYP Hyb-GGA Exchange-Correlation Functional

    P. J. Stephens, F. J. Devlin, C. F. Chabalowski, and M. J. Frisch, J. Phys. Chem. 98, 11623 (1994)

    Deriv               =              1
    GGA                 =           TRUE
    Meta                =          FALSE

    Exchange Hybrid     =           TRUE
    MP2 Hybrid          =          FALSE

   => Exchange Functionals <=

    0.0800   Slater exchange
    0.7200         Becke 88

   => Exact (HF) Exchange <=

    0.2000               HF 

   => Correlation Functionals <=

    0.1900   Vosko, Wilk & Nusair (VWN5_RPA)
    0.8100   Lee, Yang & Parr

   => Molecular Quadrature <=

    Radial Scheme          =       TREUTLER
    Pruning Scheme         =           NONE
    Nuclear Scheme         =       TREUTLER

    BS radius alpha        =              1
    Pruning alpha          =              1
    Radial Points          =             99
    Spherical Points       =           1202
    Total Points           =        1333383
    Total Blocks           =           8948
    Max Points             =            256
    Max Functions          =            168
    Weights Tolerance      =       1.00E-15

   => Loading Basis Set <=

    Name: (ANONYMOUSCC9EE4F3 AUX)
    Role: JKFIT
    Keyword: DF_BASIS_SCF
    atoms 1-4  entry C          line   198 file /opt/psi/4/master/share/psi4/basis/def2-universal-jkfit.gbs 
    atoms 5-12 entry H          line    18 file /opt/psi/4/master/share/psi4/basis/def2-universal-jkfit.gbs 

  ==> Integral Setup <==

  DFHelper Memory: AOs need 0.100 GiB; user supplied 4.528 GiB. Using in-core AOs.

  ==> MemDFJK: Density-Fitted J/K Matrices <==

    J tasked:                   Yes
    K tasked:                   Yes
    wK tasked:                   No
    OpenMP threads:               4
    Memory [MiB]:              4636
    Algorithm:                 Core
    Schwarz Cutoff:           1E-12
    Mask sparsity (%):       1.2897
    Fitting Condition:        1E-10

   => Auxiliary Basis Set <=

  Basis Set: (ANONYMOUSCC9EE4F3 AUX)
    Blend: DEF2-UNIVERSAL-JKFIT
    Number of shells: 148
    Number of basis function: 444
    Number of Cartesian functions: 516
    Spherical Harmonics?: true
    Max angular momentum: 4

  Cached 100.0% of DFT collocation blocks in 5.251 [GiB].

  Minimum eigenvalue in the overlap matrix is 7.9593976289E-04.
  Reciprocal condition number of the overlap matrix is 1.3587800274E-04.
    Using symmetric orthogonalization.

  ==> Pre-Iterations <==

  SCF Guess: Superposition of Atomic Densities via on-the-fly atomic UHF (no occupation information).

   -------------------------
    Irrep   Nso     Nmo    
   -------------------------
     A        168     168 
   -------------------------
    Total     168     168
   -------------------------

  ==> Iterations <==

                           Total Energy        Delta E     RMS |[F,P]|

   @DF-RKS iter SAD:  -156.51863734651826   -1.56519e+02   0.00000e+00 
   @DF-RKS iter   1:  -156.87744145942094   -3.58804e-01   4.82722e-03 DIIS
   @DF-RKS iter   2:  -156.78181528149031    9.56262e-02   5.30304e-03 DIIS
   @DF-RKS iter   3:  -157.23754615620425   -4.55731e-01   5.37880e-04 DIIS
   @DF-RKS iter   4:  -157.23950209146940   -1.95594e-03   3.96918e-04 DIIS
   @DF-RKS iter   5:  -157.24175888022921   -2.25679e-03   5.42687e-05 DIIS
   @DF-RKS iter   6:  -157.24180169311251   -4.28129e-05   1.59167e-05 DIIS
   @DF-RKS iter   7:  -157.24180515992296   -3.46681e-06   1.66435e-06 DIIS
   @DF-RKS iter   8:  -157.24180519875122   -3.88283e-08   2.30791e-07 DIIS
   @DF-RKS iter   9:  -157.24180519961138   -8.60155e-10   4.13426e-08 DIIS
   @DF-RKS iter  10:  -157.24180519963596   -2.45848e-11   6.43104e-09 DIIS
   @DF-RKS iter  11:  -157.24180519963704   -1.08002e-12   2.59972e-09 DIIS
   @DF-RKS iter  12:  -157.24180519963687    1.70530e-13   1.04848e-09 DIIS
   @DF-RKS iter  13:  -157.24180519963707   -1.98952e-13   1.22476e-10 DIIS
   @DF-RKS iter  14:  -157.24180519963687    1.98952e-13   1.09374e-11 DIIS
  Energy and wave function converged.


  ==> Post-Iterations <==

    Orbital Energies [Eh]
    ---------------------

    Doubly Occupied:                                                      

       1A    -10.185785     2A    -10.172047     3A    -10.171988  
       4A    -10.158291     5A     -0.800518     6A     -0.689660  
       7A     -0.674578     8A     -0.518676     9A     -0.447823  
      10A     -0.438881    11A     -0.428989    12A     -0.384016  
      13A     -0.367694    14A     -0.359751    15A     -0.334204  
      16A     -0.240406  

    Virtual:                                                              

      17A      0.028834    18A      0.082621    19A      0.127581  
      20A      0.139265    21A      0.144113    22A      0.157223  
      23A      0.164535    24A      0.180004    25A      0.209351  
      26A      0.211101    27A      0.290444    28A      0.337048  
      29A      0.396421    30A      0.419543    31A      0.425330  
      32A      0.448021    33A      0.451867    34A      0.477969  
      35A      0.487973    36A      0.504242    37A      0.512400  
      38A      0.555696    39A      0.572898    40A      0.581966  
      41A      0.605880    42A      0.615559    43A      0.618684  
      44A      0.619126    45A      0.634619    46A      0.659862  
      47A      0.681005    48A      0.683333    49A      0.686948  
      50A      0.706170    51A      0.732263    52A      0.816271  
      53A      0.874105    54A      0.883791    55A      0.900225  
      56A      0.909090    57A      0.937271    58A      0.984327  
      59A      0.998641    60A      1.014138    61A      1.028019  
      62A      1.033971    63A      1.064117    64A      1.127709  
      65A      1.180215    66A      1.184118    67A      1.194802  
      68A      1.215341    69A      1.276426    70A      1.282715  
      71A      1.302528    72A      1.335637    73A      1.339886  
      74A      1.358979    75A      1.382620    76A      1.421233  
      77A      1.437788    78A      1.440207    79A      1.451852  
      80A      1.503108    81A      1.540611    82A      1.550847  
      83A      1.561970    84A      1.603561    85A      1.615585  
      86A      1.701070    87A      1.739158    88A      1.781258  
      89A      1.836319    90A      1.844341    91A      1.926871  
      92A      1.978827    93A      2.045989    94A      2.137967  
      95A      2.298554    96A      2.355499    97A      2.718077  
      98A      2.732250    99A      2.817862   100A      2.843123  
     101A      2.864266   102A      2.925463   103A      2.928171  
     104A      2.948477   105A      2.949544   106A      2.985012  
     107A      2.999954   108A      3.002224   109A      3.013700  
     110A      3.069482   111A      3.103935   112A      3.119131  
     113A      3.141365   114A      3.158504   115A      3.208045  
     116A      3.212606   117A      3.248016   118A      3.305998  
     119A      3.361239   120A      3.393139   121A      3.442254  
     122A      3.447919   123A      3.467150   124A      3.486906  
     125A      3.504798   126A      3.559911   127A      3.610346  
     128A      3.628840   129A      3.665559   130A      3.712892  
     131A      3.716495   132A      3.731934   133A      3.837054  
     134A      3.840637   135A      3.944378   136A      3.953911  
     137A      4.008105   138A      4.065301   139A      4.142266  
     140A      4.146712   141A      4.155174   142A      4.173530  
     143A      4.179984   144A      4.223116   145A      4.241788  
     146A      4.243863   147A      4.286935   148A      4.389277  
     149A      4.408144   150A      4.415983   151A      4.447946  
     152A      4.467594   153A      4.516791   154A      4.540872  
     155A      4.648655   156A      4.691825   157A      4.705771  
     158A      4.772079   159A      4.844104   160A      4.972581  
     161A      4.975562   162A      5.132944   163A      5.223808  
     164A      5.253775   165A      5.261949   166A      5.358073  
     167A      5.388381   168A      5.594411  

    Final Occupation by Irrep:
              A 
    DOCC [    16 ]

  @DF-RKS Final Energy:  -157.24180519963687

   => Energetics <=

    Nuclear Repulsion Energy =            119.5793555531217152
    One-Electron Energy =                -446.5156285237499105
    Two-Electron Energy =                 189.6893396357958466
    DFT Exchange-Correlation Energy =     -19.9948718648045478
    Empirical Dispersion Energy =           0.0000000000000000
    VV10 Nonlocal Energy =                  0.0000000000000000
    Total Energy =                       -157.2418051996368717

Computation Completed


Properties will be evaluated at   0.000000,   0.000000,   0.000000 [a0]

Properties computed using the SCF density matrix

  Nuclear Dipole Moment: [e a0]
     X:    -0.0000      Y:     0.0019      Z:    -1.4381

  Electronic Dipole Moment: [e a0]
     X:     0.0000      Y:    -0.0031      Z:     1.2390

  Dipole Moment: [e a0]
     X:     0.0000      Y:    -0.0012      Z:    -0.1991     Total:     0.1991

  Dipole Moment: [D]
     X:     0.0000      Y:    -0.0030      Z:    -0.5062     Total:     0.5062


*** tstop() called on n059 at Sun Nov 14 16:58:01 2021
Module time:
	user time   =     108.72 seconds =       1.81 minutes
	system time =       1.58 seconds =       0.03 minutes
	total time  =         28 seconds =       0.47 minutes
Total time:
	user time   =     108.72 seconds =       1.81 minutes
	system time =       1.58 seconds =       0.03 minutes
	total time  =         28 seconds =       0.47 minutes
Grab this energy -157.24180519963687
    Psi4 stopped on: Sunday, 14 November 2021 04:58PM
    Psi4 wall time for execution: 0:00:28.31

*** Psi4 exiting successfully. Buy a developer a beer!
