
    -----------------------------------------------------------------------
          Psi4: An Open-Source Ab Initio Electronic Structure Package
                               Psi4 1.4a2.dev629 

                         Git: Rev {master} 2938fc2 dirty


    D. G. A. Smith, L. A. Burns, A. C. Simmonett, R. M. Parrish,
    M. C. Schieber, R. Galvelis, P. Kraus, H. Kruse, R. Di Remigio,
    A. Alenaizan, A. M. James, S. Lehtola, J. P. Misiewicz, M. Scheurer,
    R. A. Shaw, J. B. Schriber, Y. Xie, Z. L. Glick, D. A. Sirianni,
    J. S. O'Brien, J. M. Waldrop, A. Kumar, E. G. Hohenstein,
    B. P. Pritchard, B. R. Brooks, H. F. Schaefer III, A. Yu. Sokolov,
    K. Patkowski, A. E. DePrince III, U. Bozkaya, R. A. King,
    F. A. Evangelista, J. M. Turney, T. D. Crawford, C. D. Sherrill,
    J. Chem. Phys. 152(18) 184108 (2020). https://doi.org/10.1063/5.0006002

                            Additional Code Authors
    E. T. Seidl, C. L. Janssen, E. F. Valeev, M. L. Leininger,
    J. F. Gonthier, R. M. Richard, H. R. McAlexander, M. Saitow, X. Wang,
    P. Verma, and M. H. Lechner

             Previous Authors, Complete List of Code Contributors,
                       and Citations for Specific Modules
    https://github.com/psi4/psi4/blob/master/codemeta.json
    https://github.com/psi4/psi4/graphs/contributors
    http://psicode.org/psi4manual/master/introduction.html#citing-psifour

    -----------------------------------------------------------------------


    Psi4 started on: Sunday, 14 November 2021 04:53PM

    Process ID: 25767
    Host:       n061
    PSIDATADIR: /opt/psi/4/master/share/psi4
    Memory:     500.0 MiB
    Threads:    4
    
  ==> Input File <==

--------------------------------------------------------------------------
import os
memory 14 GB 
 
molecule {
 C   -0.0000000000    0.0000000000    2.7171584766
 C   -0.0000000000   -0.0000000000    0.1811744876
 C   -0.0012101127    2.4093703571   -1.3298028368
 C    0.0012101127   -2.4093703571   -1.3298028368
 H    0.0008396226    1.7497437587    3.7822928036
 H   -0.0008396226   -1.7497437587    3.7822928036
 H   -0.0029694372    4.0640298306   -0.1049550652
 H    1.6623307498    2.4985634661   -2.5627246310
 H   -1.6591061559    2.5018602488   -2.5571084027
 H    0.0029694372   -4.0640298306   -0.1049550652
 H   -1.6623307498   -2.4985634661   -2.5627246310
 H    1.6591061559   -2.5018602488   -2.5571084027
units bohr
}

basis {

assign 6-31g_2dfp_

[ 6-31g_2dfp_ ]

spherical

!----------------------------------------------------------------------
! Basis Set Exchange
! Version v0.8.13
! https://www.basissetexchange.org
!----------------------------------------------------------------------
!   Basis set: 6-31G(2df,p)
! Description: 6-31G(2df,p)
!        Role: orbital
!     Version: 0  (Data from the original Basis Set Exchange)
!----------------------------------------------------------------------


****
H     0
S    3   1.00
     18.7311370              0.03349460
      2.8253937              0.23472695
      0.6401217              0.81375733
S    1   1.00
      0.1612778              1.00000000
P    1   1.00
      1.5000000              1.0000000
P    1   1.00
      0.3750000              1.0000000
****
B     0
S    6   1.00
   2068.8823000              0.0018663
    310.6495700              0.0142515
     70.6830330              0.0695516
     19.8610800              0.2325729
      6.2993048              0.4670787
      2.1270270              0.3634314
SP   3   1.00
      4.7279710             -0.1303938              0.0745976
      1.1903377             -0.1307889              0.3078467
      0.3594117              1.1309444              0.7434568
SP   1   1.00
      0.1267512              1.0000000              1.0000000
D    1   1.00
      0.8020000              1.0000000
D    1   1.00
      0.2005000              1.0000000
F    1   1.00
      0.5000000              1.0000000
****
C     0
S    6   1.00
   3047.5249000              0.0018347
    457.3695100              0.0140373
    103.9486900              0.0688426
     29.2101550              0.2321844
      9.2866630              0.4679413
      3.1639270              0.3623120
SP   3   1.00
      7.8682724             -0.1193324              0.0689991
      1.8812885             -0.1608542              0.3164240
      0.5442493              1.1434564              0.7443083
SP   1   1.00
      0.1687144              1.0000000              1.0000000
D    1   1.00
      1.2520000              1.0000000
D    1   1.00
      0.3130000              1.0000000
F    1   1.00
      0.8000000              1.0000000
****
N     0
S    6   1.00
   4173.5110000              0.0018348
    627.4579000              0.0139950
    142.9021000              0.0685870
     40.2343300              0.2322410
     12.8202100              0.4690700
      4.3904370              0.3604550
SP   3   1.00
     11.6263580             -0.1149610              0.0675800
      2.7162800             -0.1691180              0.3239070
      0.7722180              1.1458520              0.7408950
SP   1   1.00
      0.2120313              1.0000000              1.0000000
D    1   1.00
      1.8260000              1.0000000
D    1   1.00
      0.4565000              1.0000000
F    1   1.00
      1.0000000              1.0000000
****
O     0
S    6   1.00
   5484.6717000              0.0018311
    825.2349500              0.0139501
    188.0469600              0.0684451
     52.9645000              0.2327143
     16.8975700              0.4701930
      5.7996353              0.3585209
SP   3   1.00
     15.5396160             -0.1107775              0.0708743
      3.5999336             -0.1480263              0.3397528
      1.0137618              1.1307670              0.7271586
SP   1   1.00
      0.2700058              1.0000000              1.0000000
D    1   1.00
      2.5840000              1.0000000
D    1   1.00
      0.6460000              1.0000000
F    1   1.00
      1.4000000              1.0000000
****
F     0
S    6   1.00
   7001.7130900              0.0018196169
   1051.3660900              0.0139160796
    239.2856900              0.0684053245
     67.3974453              0.233185760
     21.5199573              0.471267439
      7.40310130             0.356618546
SP   3   1.00
     20.8479528             -0.108506975            0.0716287243
      4.80830834            -0.146451658            0.3459121030
      1.34406986             1.128688580            0.7224699570
SP   1   1.00
      0.358151393            1.0000000              1.0000000
D    1   1.00
      3.5000000              1.0000000
D    1   1.00
      0.8750000              1.0000000
F    1   1.00
      1.8500000              1.0000000
****
Al     0
S    6   1.00
  13983.1000000              0.00194267
   2098.7500000              0.0148599
    477.7050000              0.0728494
    134.3600000              0.2468300
     42.8709000              0.4872580
     14.5189000              0.3234960
SP   6   1.00
    239.6680000             -0.00292619             0.00460285
     57.4419000             -0.0374080              0.0331990
     18.2859000             -0.1144870              0.1362820
      6.5991400              0.1156350              0.3304760
      2.4904900              0.6125950              0.4491460
      0.9445400              0.3937990              0.2657040
SP   3   1.00
      1.2779000             -0.2276060             -0.0175130
      0.3975900              0.00144583             0.2445330
      0.1600950              1.0927900              0.8049340
SP   1   1.00
      0.0556577              1.0000000              1.0000000
D    1   1.00
      0.6500000              1.0000000
D    1   1.00
      0.1625000              1.0000000
F    1   1.00
      0.2500000              1.0000000
****
Si     0
S    6   1.00
  16115.9000000              0.00195948
   2425.5800000              0.01492880
    553.8670000              0.07284780
    156.3400000              0.24613000
     50.0683000              0.48591400
     17.0178000              0.32500200
SP   6   1.00
    292.7180000             -0.00278094             0.00443826
     69.8731000             -0.03571460             0.03266790
     22.3363000             -0.11498500             0.13472100
      8.1503900              0.09356340             0.32867800
      3.1345800              0.60301700             0.44964000
      1.2254300              0.41895900             0.26137200
SP   3   1.00
      1.7273800             -0.24463000            -0.01779510
      0.5729220              0.00431572             0.25353900
      0.2221920              1.09818000             0.80066900
SP   1   1.00
      0.0778369              1.00000000             1.00000000
D    1   1.00
      0.9000000              1.0000000
D    1   1.00
      0.2250000              1.0000000
F    1   1.00
      0.3200000              1.0000000
****
P     0
S    6   1.00
  19413.3000000              0.0018516
   2909.4200000              0.0142062
    661.3640000              0.0699995
    185.7590000              0.2400790
     59.1943000              0.4847620
     20.0310000              0.3352000
SP   6   1.00
    339.4780000             -0.00278217             0.00456462
     81.0101000             -0.0360499              0.03369360
     25.8780000             -0.1166310              0.13975500
      9.4522100              0.0968328              0.33936200
      3.6656600              0.6144180              0.45092100
      1.4674600              0.4037980              0.23858600
SP   3   1.00
      2.1562300             -0.2529230             -0.01776530
      0.7489970              0.0328517              0.27405800
      0.2831450              1.0812500              0.78542100
SP   1   1.00
      0.0998317              1.0000000              1.00000000
D    1   1.00
      1.1000000              1.0000000
D    1   1.00
      0.2750000              1.0000000
F    1   1.00
      0.4500000              1.0000000
****
S     0
S    6   1.00
  21917.1000000              0.0018690
   3301.4900000              0.0142300
    754.1460000              0.0696960
    212.7110000              0.2384870
     67.9896000              0.4833070
     23.0515000              0.3380740
SP   6   1.00
    423.7350000             -0.0023767              0.0040610
    100.7100000             -0.0316930              0.0306810
     32.1599000             -0.1133170              0.1304520
     11.8079000              0.0560900              0.3272050
      4.6311000              0.5922550              0.4528510
      1.8702500              0.4550060              0.2560420
SP   3   1.00
      2.6158400             -0.2503740             -0.0145110
      0.9221670              0.0669570              0.3102630
      0.3412870              1.0545100              0.7544830
SP   1   1.00
      0.1171670              1.0000000              1.0000000
D    1   1.00
      1.3000000              1.0000000
D    1   1.00
      0.3250000              1.0000000
F    1   1.00
      0.5500000              1.0000000
****
Cl     0
S    6   1.00
  25180.1000000              0.0018330
   3780.3500000              0.0140340
    860.4740000              0.0690970
    242.1450000              0.2374520
     77.3349000              0.4830340
     26.2470000              0.3398560
SP   6   1.00
    491.7650000             -0.0022974              0.0039894
    116.9840000             -0.0307140              0.0303180
     37.4153000             -0.1125280              0.1298800
     13.7834000              0.0450160              0.3279510
      5.4521500              0.5893530              0.4535270
      2.2258800              0.4652060              0.2521540
SP   3   1.00
      3.1864900             -0.2518300             -0.0142990
      1.1442700              0.0615890              0.3235720
      0.4203770              1.0601800              0.7435070
SP   1   1.00
      0.1426570              1.0000000              1.0000000
D    1   1.00
      1.5000000              1.0000000
D    1   1.00
      0.3750000              1.0000000
F    1   1.00
      0.7000000              1.0000000
****
}


set {
reference rhf                          
freeze_core true
e_convergence 10                       
d_convergence 10                      
dft_spherical_points 1202
dft_radial_points 99
}

e = energy('b3lyp')

print_out('Grab this energy {0}'.format(e))
--------------------------------------------------------------------------

  Memory set to  13.039 GiB by Python driver.

Scratch directory: /tmp/

*** tstart() called on n061
*** at Sun Nov 14 16:53:03 2021

   => Loading Basis Set <=

    Name: ANONYMOUS6B9293F6
    Role: ORBITAL
    Keyword: BASIS
    atoms 1-4  entry C          line    48 inputblock 6-31g_2dfp_ 
    atoms 5-12 entry H          line    15 inputblock 6-31g_2dfp_ 


         ---------------------------------------------------------
                                   SCF
               by Justin Turney, Rob Parrish, Andy Simmonett
                          and Daniel G. A. Smith
                              RKS Reference
                        4 Threads,  13351 MiB Core
         ---------------------------------------------------------

  ==> Geometry <==

    Molecular point group: c2
    Full point group: C2

    Geometry (in Bohr), charge = 0, multiplicity = 1:

       Center              X                  Y                   Z               Mass       
    ------------   -----------------  -----------------  -----------------  -----------------
         C            0.000000000000     0.000000000000     2.717922591135    12.000000000000
         C            0.000000000000     0.000000000000     0.181938602135    12.000000000000
         C           -0.001210112700     2.409370357100    -1.329038722265    12.000000000000
         C            0.001210112700    -2.409370357100    -1.329038722265    12.000000000000
         H            0.000839622600     1.749743758700     3.783056918135     1.007825032230
         H           -0.000839622600    -1.749743758700     3.783056918135     1.007825032230
         H           -0.002969437200     4.064029830600    -0.104190950665     1.007825032230
         H            1.662330749800     2.498563466100    -2.561960516465     1.007825032230
         H           -1.659106155900     2.501860248800    -2.556344288165     1.007825032230
         H            0.002969437200    -4.064029830600    -0.104190950665     1.007825032230
         H           -1.662330749800    -2.498563466100    -2.561960516465     1.007825032230
         H            1.659106155900    -2.501860248800    -2.556344288165     1.007825032230

  Running in c2 symmetry.

  Rotational constants: A =      0.30431  B =      0.27987  C =      0.15409 [cm^-1]
  Rotational constants: A =   9122.96512  B =   8390.16108  C =   4619.37502 [MHz]
  Nuclear repulsion =  119.599745038158133

  Charge       = 0
  Multiplicity = 1
  Electrons    = 32
  Nalpha       = 16
  Nbeta        = 16

  ==> Algorithm <==

  SCF Algorithm Type is DF.
  DIIS enabled.
  MOM disabled.
  Fractional occupation disabled.
  Guess Type is SAD.
  Energy threshold   = 1.00e-10
  Density threshold  = 1.00e-10
  Integral threshold = 0.00e+00

  ==> Primary Basis <==

  Basis Set: ANONYMOUS6B9293F6
    Blend: 6-31G_2DFP_
    Number of shells: 64
    Number of basis function: 168
    Number of Cartesian functions: 188
    Spherical Harmonics?: true
    Max angular momentum: 3

  ==> DFT Potential <==

   => Composite Functional: B3LYP <= 

    B3LYP Hyb-GGA Exchange-Correlation Functional

    P. J. Stephens, F. J. Devlin, C. F. Chabalowski, and M. J. Frisch, J. Phys. Chem. 98, 11623 (1994)

    Deriv               =              1
    GGA                 =           TRUE
    Meta                =          FALSE

    Exchange Hybrid     =           TRUE
    MP2 Hybrid          =          FALSE

   => Exchange Functionals <=

    0.0800   Slater exchange
    0.7200         Becke 88

   => Exact (HF) Exchange <=

    0.2000               HF 

   => Correlation Functionals <=

    0.1900   Vosko, Wilk & Nusair (VWN5_RPA)
    0.8100   Lee, Yang & Parr

   => Molecular Quadrature <=

    Radial Scheme          =       TREUTLER
    Pruning Scheme         =           NONE
    Nuclear Scheme         =       TREUTLER

    BS radius alpha        =              1
    Pruning alpha          =              1
    Radial Points          =             99
    Spherical Points       =           1202
    Total Points           =        1333389
    Total Blocks           =           8894
    Max Points             =            256
    Max Functions          =            168
    Weights Tolerance      =       1.00E-15

   => Loading Basis Set <=

    Name: (ANONYMOUS6B9293F6 AUX)
    Role: JKFIT
    Keyword: DF_BASIS_SCF
    atoms 1-4  entry C          line   198 file /opt/psi/4/master/share/psi4/basis/def2-universal-jkfit.gbs 
    atoms 5-12 entry H          line    18 file /opt/psi/4/master/share/psi4/basis/def2-universal-jkfit.gbs 

  ==> Integral Setup <==

  DFHelper Memory: AOs need 0.100 GiB; user supplied 4.527 GiB. Using in-core AOs.

  ==> MemDFJK: Density-Fitted J/K Matrices <==

    J tasked:                   Yes
    K tasked:                   Yes
    wK tasked:                   No
    OpenMP threads:               4
    Memory [MiB]:              4635
    Algorithm:                 Core
    Schwarz Cutoff:           1E-12
    Mask sparsity (%):       1.2755
    Fitting Condition:        1E-10

   => Auxiliary Basis Set <=

  Basis Set: (ANONYMOUS6B9293F6 AUX)
    Blend: DEF2-UNIVERSAL-JKFIT
    Number of shells: 148
    Number of basis function: 444
    Number of Cartesian functions: 516
    Spherical Harmonics?: true
    Max angular momentum: 4

  Cached 100.0% of DFT collocation blocks in 5.252 [GiB].

  Minimum eigenvalue in the overlap matrix is 7.9867640110E-04.
  Reciprocal condition number of the overlap matrix is 1.4276973104E-04.
    Using symmetric orthogonalization.

  ==> Pre-Iterations <==

  SCF Guess: Superposition of Atomic Densities via on-the-fly atomic UHF (no occupation information).

   -------------------------
    Irrep   Nso     Nmo    
   -------------------------
     A         86      86 
     B         82      82 
   -------------------------
    Total     168     168
   -------------------------

  ==> Iterations <==

                           Total Energy        Delta E     RMS |[F,P]|

   @DF-RKS iter SAD:  -156.52014976901580   -1.56520e+02   0.00000e+00 
   @DF-RKS iter   1:  -156.87753089253067   -3.57381e-01   6.82302e-03 DIIS
   @DF-RKS iter   2:  -156.78152874782629    9.60021e-02   7.49968e-03 DIIS
   @DF-RKS iter   3:  -157.23742318203242   -4.55894e-01   7.67057e-04 DIIS
   @DF-RKS iter   4:  -157.23942437483186   -2.00119e-03   5.64443e-04 DIIS
   @DF-RKS iter   5:  -157.24170999120685   -2.28562e-03   7.82628e-05 DIIS
   @DF-RKS iter   6:  -157.24175468201918   -4.46908e-05   2.23930e-05 DIIS
   @DF-RKS iter   7:  -157.24175811110558   -3.42909e-06   2.34179e-06 DIIS
   @DF-RKS iter   8:  -157.24175814957471   -3.84691e-08   3.28472e-07 DIIS
   @DF-RKS iter   9:  -157.24175815044805   -8.73342e-10   5.85496e-08 DIIS
   @DF-RKS iter  10:  -157.24175815047306   -2.50111e-11   8.22305e-09 DIIS
   @DF-RKS iter  11:  -157.24175815047363   -5.68434e-13   2.21229e-09 DIIS
   @DF-RKS iter  12:  -157.24175815047369   -5.68434e-14   2.95279e-10 DIIS
   @DF-RKS iter  13:  -157.24175815047374   -5.68434e-14   2.79483e-11 DIIS
  Energy and wave function converged.


  ==> Post-Iterations <==

    Orbital Energies [Eh]
    ---------------------

    Doubly Occupied:                                                      

       1A    -10.186043     1B    -10.171754     2A    -10.171712  
       3A    -10.158927     4A     -0.800717     2B     -0.690068  
       5A     -0.674109     6A     -0.519018     3B     -0.447752  
       7A     -0.439419     4B     -0.428868     8A     -0.383680  
       5B     -0.367846     9A     -0.360015     6B     -0.334657  
       7B     -0.239703  

    Virtual:                                                              

       8B      0.027819    10A      0.082691    11A      0.127631  
       9B      0.139493    10B      0.144096    11B      0.157441  
      12A      0.165042    13A      0.179516    12B      0.209897  
      14A      0.211411    13B      0.290653    15A      0.337452  
      16A      0.395832    17A      0.420225    14B      0.425374  
      18A      0.448190    15B      0.452067    16B      0.478433  
      19A      0.488163    17B      0.503823    20A      0.510556  
      21A      0.556216    18B      0.572691    19B      0.583501  
      22A      0.605852    20B      0.616102    23A      0.618870  
      21B      0.618870    24A      0.634736    22B      0.659357  
      25A      0.681286    23B      0.683280    26A      0.687037  
      27A      0.705671    24B      0.731807    25B      0.816109  
      26B      0.873258    28A      0.883271    27B      0.900788  
      29A      0.908136    30A      0.937381    31A      0.982964  
      28B      0.998751    29B      1.015504    32A      1.029660  
      33A      1.035719    30B      1.065936    31B      1.129380  
      32B      1.179977    34A      1.182652    33B      1.193893  
      35A      1.214471    36A      1.276735    34B      1.282832  
      37A      1.303372    38A      1.336866    35B      1.342605  
      36B      1.358321    39A      1.381780    37B      1.423492  
      38B      1.437177    40A      1.438953    41A      1.451634  
      39B      1.503839    42A      1.541370    43A      1.549921  
      40B      1.561304    41B      1.602387    44A      1.614914  
      45A      1.699776    46A      1.738848    42B      1.781796  
      43B      1.838751    47A      1.846045    44B      1.925997  
      48A      1.979700    45B      2.047980    49A      2.135718  
      50A      2.294139    46B      2.356156    51A      2.716916  
      47B      2.733508    48B      2.816893    49B      2.845231  
      52A      2.865007    50B      2.926386    51B      2.928520  
      53A      2.948186    54A      2.949293    55A      2.984541  
      52B      2.999834    56A      3.001432    53B      3.017104  
      54B      3.068581    55B      3.101527    57A      3.117532  
      58A      3.140588    56B      3.162068    59A      3.208716  
      57B      3.214722    60A      3.249076    61A      3.306394  
      58B      3.359964    59B      3.396075    60B      3.440770  
      62A      3.447825    61B      3.467650    63A      3.487899  
      64A      3.503462    62B      3.562155    65A      3.613202  
      66A      3.628595    67A      3.665393    68A      3.711402  
      63B      3.716551    64B      3.733110    69A      3.840422  
      65B      3.841081    66B      3.944310    67B      3.955139  
      68B      4.005170    70A      4.065664    71A      4.141635  
      72A      4.147350    69B      4.159133    70B      4.172608  
      73A      4.180502    71B      4.224962    72B      4.239724  
      74A      4.242770    75A      4.281660    76A      4.388738  
      73B      4.408766    74B      4.423390    77A      4.446721  
      78A      4.465787    75B      4.516264    79A      4.545662  
      80A      4.657781    81A      4.683796    76B      4.705809  
      77B      4.773198    82A      4.846720    83A      4.973149  
      78B      4.976065    79B      5.134557    80B      5.222295  
      81B      5.254446    84A      5.263147    85A      5.359303  
      86A      5.385311    82B      5.594824  

    Final Occupation by Irrep:
              A     B 
    DOCC [     9,    7 ]

  @DF-RKS Final Energy:  -157.24175815047374

   => Energetics <=

    Nuclear Repulsion Energy =            119.5997450381581331
    One-Electron Energy =                -446.5543067394571040
    Two-Electron Energy =                 189.7077544719268758
    DFT Exchange-Correlation Energy =     -19.9949509211016263
    Empirical Dispersion Energy =           0.0000000000000000
    VV10 Nonlocal Energy =                  0.0000000000000000
    Total Energy =                       -157.2417581504737427

Computation Completed


Properties will be evaluated at   0.000000,   0.000000,   0.000000 [a0]

Properties computed using the SCF density matrix

  Nuclear Dipole Moment: [e a0]
     X:     0.0000      Y:     0.0000      Z:    -1.4282

  Electronic Dipole Moment: [e a0]
     X:     0.0000      Y:     0.0000      Z:     1.2288

  Dipole Moment: [e a0]
     X:     0.0000      Y:     0.0000      Z:    -0.1993     Total:     0.1993

  Dipole Moment: [D]
     X:     0.0000      Y:     0.0000      Z:    -0.5067     Total:     0.5067


*** tstop() called on n061 at Sun Nov 14 16:53:30 2021
Module time:
	user time   =     103.20 seconds =       1.72 minutes
	system time =       1.45 seconds =       0.02 minutes
	total time  =         27 seconds =       0.45 minutes
Total time:
	user time   =     103.20 seconds =       1.72 minutes
	system time =       1.45 seconds =       0.02 minutes
	total time  =         27 seconds =       0.45 minutes
Grab this energy -157.24175815047374
    Psi4 stopped on: Sunday, 14 November 2021 04:53PM
    Psi4 wall time for execution: 0:00:26.93

*** Psi4 exiting successfully. Buy a developer a beer!
