
    -----------------------------------------------------------------------
          Psi4: An Open-Source Ab Initio Electronic Structure Package
                               Psi4 1.4a2.dev629 

                         Git: Rev {master} 2938fc2 dirty


    D. G. A. Smith, L. A. Burns, A. C. Simmonett, R. M. Parrish,
    M. C. Schieber, R. Galvelis, P. Kraus, H. Kruse, R. Di Remigio,
    A. Alenaizan, A. M. James, S. Lehtola, J. P. Misiewicz, M. Scheurer,
    R. A. Shaw, J. B. Schriber, Y. Xie, Z. L. Glick, D. A. Sirianni,
    J. S. O'Brien, J. M. Waldrop, A. Kumar, E. G. Hohenstein,
    B. P. Pritchard, B. R. Brooks, H. F. Schaefer III, A. Yu. Sokolov,
    K. Patkowski, A. E. DePrince III, U. Bozkaya, R. A. King,
    F. A. Evangelista, J. M. Turney, T. D. Crawford, C. D. Sherrill,
    J. Chem. Phys. 152(18) 184108 (2020). https://doi.org/10.1063/5.0006002

                            Additional Code Authors
    E. T. Seidl, C. L. Janssen, E. F. Valeev, M. L. Leininger,
    J. F. Gonthier, R. M. Richard, H. R. McAlexander, M. Saitow, X. Wang,
    P. Verma, and M. H. Lechner

             Previous Authors, Complete List of Code Contributors,
                       and Citations for Specific Modules
    https://github.com/psi4/psi4/blob/master/codemeta.json
    https://github.com/psi4/psi4/graphs/contributors
    http://psicode.org/psi4manual/master/introduction.html#citing-psifour

    -----------------------------------------------------------------------


    Psi4 started on: Sunday, 14 November 2021 04:51PM

    Process ID: 8960
    Host:       n076
    PSIDATADIR: /opt/psi/4/master/share/psi4
    Memory:     500.0 MiB
    Threads:    4
    
  ==> Input File <==

--------------------------------------------------------------------------
import os
memory 14 GB 
 
molecule {
 C    0.0000000000   -0.0000000000    2.7165941387
 C    0.0000000000   -0.0000000000    0.1848433932
 C    0.0012139406    2.4115366016   -1.3280289469
 C   -0.0012139406   -2.4115366016   -1.3280289469
 H   -0.0008379883    1.7504512510    3.7790851365
 H    0.0008379883   -1.7504512510    3.7790851365
 H    0.0029729722    4.0685968081   -0.1110517745
 H    1.6625580938    2.5017550236   -2.5541265571
 H   -1.6657838594    2.4984428580   -2.5597282739
 H   -0.0029729722   -4.0685968081   -0.1110517745
 H   -1.6625580938   -2.5017550236   -2.5541265571
 H    1.6657838594   -2.4984428580   -2.5597282739
units bohr
}

basis {

assign 6-31g_2dfp_

[ 6-31g_2dfp_ ]

spherical

!----------------------------------------------------------------------
! Basis Set Exchange
! Version v0.8.13
! https://www.basissetexchange.org
!----------------------------------------------------------------------
!   Basis set: 6-31G(2df,p)
! Description: 6-31G(2df,p)
!        Role: orbital
!     Version: 0  (Data from the original Basis Set Exchange)
!----------------------------------------------------------------------


****
H     0
S    3   1.00
     18.7311370              0.03349460
      2.8253937              0.23472695
      0.6401217              0.81375733
S    1   1.00
      0.1612778              1.00000000
P    1   1.00
      1.5000000              1.0000000
P    1   1.00
      0.3750000              1.0000000
****
B     0
S    6   1.00
   2068.8823000              0.0018663
    310.6495700              0.0142515
     70.6830330              0.0695516
     19.8610800              0.2325729
      6.2993048              0.4670787
      2.1270270              0.3634314
SP   3   1.00
      4.7279710             -0.1303938              0.0745976
      1.1903377             -0.1307889              0.3078467
      0.3594117              1.1309444              0.7434568
SP   1   1.00
      0.1267512              1.0000000              1.0000000
D    1   1.00
      0.8020000              1.0000000
D    1   1.00
      0.2005000              1.0000000
F    1   1.00
      0.5000000              1.0000000
****
C     0
S    6   1.00
   3047.5249000              0.0018347
    457.3695100              0.0140373
    103.9486900              0.0688426
     29.2101550              0.2321844
      9.2866630              0.4679413
      3.1639270              0.3623120
SP   3   1.00
      7.8682724             -0.1193324              0.0689991
      1.8812885             -0.1608542              0.3164240
      0.5442493              1.1434564              0.7443083
SP   1   1.00
      0.1687144              1.0000000              1.0000000
D    1   1.00
      1.2520000              1.0000000
D    1   1.00
      0.3130000              1.0000000
F    1   1.00
      0.8000000              1.0000000
****
N     0
S    6   1.00
   4173.5110000              0.0018348
    627.4579000              0.0139950
    142.9021000              0.0685870
     40.2343300              0.2322410
     12.8202100              0.4690700
      4.3904370              0.3604550
SP   3   1.00
     11.6263580             -0.1149610              0.0675800
      2.7162800             -0.1691180              0.3239070
      0.7722180              1.1458520              0.7408950
SP   1   1.00
      0.2120313              1.0000000              1.0000000
D    1   1.00
      1.8260000              1.0000000
D    1   1.00
      0.4565000              1.0000000
F    1   1.00
      1.0000000              1.0000000
****
O     0
S    6   1.00
   5484.6717000              0.0018311
    825.2349500              0.0139501
    188.0469600              0.0684451
     52.9645000              0.2327143
     16.8975700              0.4701930
      5.7996353              0.3585209
SP   3   1.00
     15.5396160             -0.1107775              0.0708743
      3.5999336             -0.1480263              0.3397528
      1.0137618              1.1307670              0.7271586
SP   1   1.00
      0.2700058              1.0000000              1.0000000
D    1   1.00
      2.5840000              1.0000000
D    1   1.00
      0.6460000              1.0000000
F    1   1.00
      1.4000000              1.0000000
****
F     0
S    6   1.00
   7001.7130900              0.0018196169
   1051.3660900              0.0139160796
    239.2856900              0.0684053245
     67.3974453              0.233185760
     21.5199573              0.471267439
      7.40310130             0.356618546
SP   3   1.00
     20.8479528             -0.108506975            0.0716287243
      4.80830834            -0.146451658            0.3459121030
      1.34406986             1.128688580            0.7224699570
SP   1   1.00
      0.358151393            1.0000000              1.0000000
D    1   1.00
      3.5000000              1.0000000
D    1   1.00
      0.8750000              1.0000000
F    1   1.00
      1.8500000              1.0000000
****
Al     0
S    6   1.00
  13983.1000000              0.00194267
   2098.7500000              0.0148599
    477.7050000              0.0728494
    134.3600000              0.2468300
     42.8709000              0.4872580
     14.5189000              0.3234960
SP   6   1.00
    239.6680000             -0.00292619             0.00460285
     57.4419000             -0.0374080              0.0331990
     18.2859000             -0.1144870              0.1362820
      6.5991400              0.1156350              0.3304760
      2.4904900              0.6125950              0.4491460
      0.9445400              0.3937990              0.2657040
SP   3   1.00
      1.2779000             -0.2276060             -0.0175130
      0.3975900              0.00144583             0.2445330
      0.1600950              1.0927900              0.8049340
SP   1   1.00
      0.0556577              1.0000000              1.0000000
D    1   1.00
      0.6500000              1.0000000
D    1   1.00
      0.1625000              1.0000000
F    1   1.00
      0.2500000              1.0000000
****
Si     0
S    6   1.00
  16115.9000000              0.00195948
   2425.5800000              0.01492880
    553.8670000              0.07284780
    156.3400000              0.24613000
     50.0683000              0.48591400
     17.0178000              0.32500200
SP   6   1.00
    292.7180000             -0.00278094             0.00443826
     69.8731000             -0.03571460             0.03266790
     22.3363000             -0.11498500             0.13472100
      8.1503900              0.09356340             0.32867800
      3.1345800              0.60301700             0.44964000
      1.2254300              0.41895900             0.26137200
SP   3   1.00
      1.7273800             -0.24463000            -0.01779510
      0.5729220              0.00431572             0.25353900
      0.2221920              1.09818000             0.80066900
SP   1   1.00
      0.0778369              1.00000000             1.00000000
D    1   1.00
      0.9000000              1.0000000
D    1   1.00
      0.2250000              1.0000000
F    1   1.00
      0.3200000              1.0000000
****
P     0
S    6   1.00
  19413.3000000              0.0018516
   2909.4200000              0.0142062
    661.3640000              0.0699995
    185.7590000              0.2400790
     59.1943000              0.4847620
     20.0310000              0.3352000
SP   6   1.00
    339.4780000             -0.00278217             0.00456462
     81.0101000             -0.0360499              0.03369360
     25.8780000             -0.1166310              0.13975500
      9.4522100              0.0968328              0.33936200
      3.6656600              0.6144180              0.45092100
      1.4674600              0.4037980              0.23858600
SP   3   1.00
      2.1562300             -0.2529230             -0.01776530
      0.7489970              0.0328517              0.27405800
      0.2831450              1.0812500              0.78542100
SP   1   1.00
      0.0998317              1.0000000              1.00000000
D    1   1.00
      1.1000000              1.0000000
D    1   1.00
      0.2750000              1.0000000
F    1   1.00
      0.4500000              1.0000000
****
S     0
S    6   1.00
  21917.1000000              0.0018690
   3301.4900000              0.0142300
    754.1460000              0.0696960
    212.7110000              0.2384870
     67.9896000              0.4833070
     23.0515000              0.3380740
SP   6   1.00
    423.7350000             -0.0023767              0.0040610
    100.7100000             -0.0316930              0.0306810
     32.1599000             -0.1133170              0.1304520
     11.8079000              0.0560900              0.3272050
      4.6311000              0.5922550              0.4528510
      1.8702500              0.4550060              0.2560420
SP   3   1.00
      2.6158400             -0.2503740             -0.0145110
      0.9221670              0.0669570              0.3102630
      0.3412870              1.0545100              0.7544830
SP   1   1.00
      0.1171670              1.0000000              1.0000000
D    1   1.00
      1.3000000              1.0000000
D    1   1.00
      0.3250000              1.0000000
F    1   1.00
      0.5500000              1.0000000
****
Cl     0
S    6   1.00
  25180.1000000              0.0018330
   3780.3500000              0.0140340
    860.4740000              0.0690970
    242.1450000              0.2374520
     77.3349000              0.4830340
     26.2470000              0.3398560
SP   6   1.00
    491.7650000             -0.0022974              0.0039894
    116.9840000             -0.0307140              0.0303180
     37.4153000             -0.1125280              0.1298800
     13.7834000              0.0450160              0.3279510
      5.4521500              0.5893530              0.4535270
      2.2258800              0.4652060              0.2521540
SP   3   1.00
      3.1864900             -0.2518300             -0.0142990
      1.1442700              0.0615890              0.3235720
      0.4203770              1.0601800              0.7435070
SP   1   1.00
      0.1426570              1.0000000              1.0000000
D    1   1.00
      1.5000000              1.0000000
D    1   1.00
      0.3750000              1.0000000
F    1   1.00
      0.7000000              1.0000000
****
}


set {
reference rhf                          
freeze_core true
e_convergence 10                       
d_convergence 10                      
dft_spherical_points 1202
dft_radial_points 99
}

e = energy('b3lyp')

print_out('Grab this energy {0}'.format(e))
--------------------------------------------------------------------------

  Memory set to  13.039 GiB by Python driver.

Scratch directory: /tmp/

*** tstart() called on n076
*** at Sun Nov 14 16:51:47 2021

   => Loading Basis Set <=

    Name: ANONYMOUS6C4986A7
    Role: ORBITAL
    Keyword: BASIS
    atoms 1-4  entry C          line    48 inputblock 6-31g_2dfp_ 
    atoms 5-12 entry H          line    15 inputblock 6-31g_2dfp_ 


         ---------------------------------------------------------
                                   SCF
               by Justin Turney, Rob Parrish, Andy Simmonett
                          and Daniel G. A. Smith
                              RKS Reference
                        4 Threads,  13351 MiB Core
         ---------------------------------------------------------

  ==> Geometry <==

    Molecular point group: c2
    Full point group: C2

    Geometry (in Bohr), charge = 0, multiplicity = 1:

       Center              X                  Y                   Z               Mass       
    ------------   -----------------  -----------------  -----------------  -----------------
         C            0.000000000000     0.000000000000     2.716053929722    12.000000000000
         C            0.000000000000     0.000000000000     0.184303184222    12.000000000000
         C            0.001213940600     2.411536601600    -1.328569155878    12.000000000000
         C           -0.001213940600    -2.411536601600    -1.328569155878    12.000000000000
         H           -0.000837988300     1.750451251000     3.778544927522     1.007825032230
         H            0.000837988300    -1.750451251000     3.778544927522     1.007825032230
         H            0.002972972200     4.068596808100    -0.111591983478     1.007825032230
         H            1.662558093800     2.501755023600    -2.554666766078     1.007825032230
         H           -1.665783859400     2.498442858000    -2.560268482878     1.007825032230
         H           -0.002972972200    -4.068596808100    -0.111591983478     1.007825032230
         H           -1.662558093800    -2.501755023600    -2.554666766078     1.007825032230
         H            1.665783859400    -2.498442858000    -2.560268482878     1.007825032230

  Running in c2 symmetry.

  Rotational constants: A =      0.30461  B =      0.27938  C =      0.15405 [cm^-1]
  Rotational constants: A =   9131.98683  B =   8375.57912  C =   4618.35242 [MHz]
  Nuclear repulsion =  119.587710964829242

  Charge       = 0
  Multiplicity = 1
  Electrons    = 32
  Nalpha       = 16
  Nbeta        = 16

  ==> Algorithm <==

  SCF Algorithm Type is DF.
  DIIS enabled.
  MOM disabled.
  Fractional occupation disabled.
  Guess Type is SAD.
  Energy threshold   = 1.00e-10
  Density threshold  = 1.00e-10
  Integral threshold = 0.00e+00

  ==> Primary Basis <==

  Basis Set: ANONYMOUS6C4986A7
    Blend: 6-31G_2DFP_
    Number of shells: 64
    Number of basis function: 168
    Number of Cartesian functions: 188
    Spherical Harmonics?: true
    Max angular momentum: 3

  ==> DFT Potential <==

   => Composite Functional: B3LYP <= 

    B3LYP Hyb-GGA Exchange-Correlation Functional

    P. J. Stephens, F. J. Devlin, C. F. Chabalowski, and M. J. Frisch, J. Phys. Chem. 98, 11623 (1994)

    Deriv               =              1
    GGA                 =           TRUE
    Meta                =          FALSE

    Exchange Hybrid     =           TRUE
    MP2 Hybrid          =          FALSE

   => Exchange Functionals <=

    0.0800   Slater exchange
    0.7200         Becke 88

   => Exact (HF) Exchange <=

    0.2000               HF 

   => Correlation Functionals <=

    0.1900   Vosko, Wilk & Nusair (VWN5_RPA)
    0.8100   Lee, Yang & Parr

   => Molecular Quadrature <=

    Radial Scheme          =       TREUTLER
    Pruning Scheme         =           NONE
    Nuclear Scheme         =       TREUTLER

    BS radius alpha        =              1
    Pruning alpha          =              1
    Radial Points          =             99
    Spherical Points       =           1202
    Total Points           =        1333399
    Total Blocks           =           8899
    Max Points             =            256
    Max Functions          =            168
    Weights Tolerance      =       1.00E-15

   => Loading Basis Set <=

    Name: (ANONYMOUS6C4986A7 AUX)
    Role: JKFIT
    Keyword: DF_BASIS_SCF
    atoms 1-4  entry C          line   198 file /opt/psi/4/master/share/psi4/basis/def2-universal-jkfit.gbs 
    atoms 5-12 entry H          line    18 file /opt/psi/4/master/share/psi4/basis/def2-universal-jkfit.gbs 

  ==> Integral Setup <==

  DFHelper Memory: AOs need 0.100 GiB; user supplied 4.527 GiB. Using in-core AOs.

  ==> MemDFJK: Density-Fitted J/K Matrices <==

    J tasked:                   Yes
    K tasked:                   Yes
    wK tasked:                   No
    OpenMP threads:               4
    Memory [MiB]:              4635
    Algorithm:                 Core
    Schwarz Cutoff:           1E-12
    Mask sparsity (%):       1.2755
    Fitting Condition:        1E-10

   => Auxiliary Basis Set <=

  Basis Set: (ANONYMOUS6C4986A7 AUX)
    Blend: DEF2-UNIVERSAL-JKFIT
    Number of shells: 148
    Number of basis function: 444
    Number of Cartesian functions: 516
    Spherical Harmonics?: true
    Max angular momentum: 4

  Cached 100.0% of DFT collocation blocks in 5.252 [GiB].

  Minimum eigenvalue in the overlap matrix is 7.9674043306E-04.
  Reciprocal condition number of the overlap matrix is 1.4247170193E-04.
    Using symmetric orthogonalization.

  ==> Pre-Iterations <==

  SCF Guess: Superposition of Atomic Densities via on-the-fly atomic UHF (no occupation information).

   -------------------------
    Irrep   Nso     Nmo    
   -------------------------
     A         86      86 
     B         82      82 
   -------------------------
    Total     168     168
   -------------------------

  ==> Iterations <==

                           Total Energy        Delta E     RMS |[F,P]|

   @DF-RKS iter SAD:  -156.51927456332635   -1.56519e+02   0.00000e+00 
   @DF-RKS iter   1:  -156.87743183032845   -3.58157e-01   6.82445e-03 DIIS
   @DF-RKS iter   2:  -156.78177485702136    9.56570e-02   7.49752e-03 DIIS
   @DF-RKS iter   3:  -157.23754702879751   -4.55772e-01   7.58648e-04 DIIS
   @DF-RKS iter   4:  -157.23947324469063   -1.92622e-03   5.62234e-04 DIIS
   @DF-RKS iter   5:  -157.24173895743581   -2.26571e-03   7.76440e-05 DIIS
   @DF-RKS iter   6:  -157.24178291236205   -4.39549e-05   2.24267e-05 DIIS
   @DF-RKS iter   7:  -157.24178635275672   -3.44039e-06   2.34640e-06 DIIS
   @DF-RKS iter   8:  -157.24178639138739   -3.86307e-08   3.25616e-07 DIIS
   @DF-RKS iter   9:  -157.24178639224485   -8.57455e-10   5.81792e-08 DIIS
   @DF-RKS iter  10:  -157.24178639226932   -2.44711e-11   8.14145e-09 DIIS
   @DF-RKS iter  11:  -157.24178639227000   -6.82121e-13   2.21342e-09 DIIS
   @DF-RKS iter  12:  -157.24178639226994    5.68434e-14   2.93576e-10 DIIS
   @DF-RKS iter  13:  -157.24178639227009   -1.42109e-13   2.75412e-11 DIIS
  Energy and wave function converged.


  ==> Post-Iterations <==

    Orbital Energies [Eh]
    ---------------------

    Doubly Occupied:                                                      

       1A    -10.185902     1B    -10.171890     2A    -10.171848  
       3A    -10.158559     4A     -0.800590     2B     -0.689904  
       5A     -0.674283     6A     -0.518886     3B     -0.447646  
       7A     -0.439418     4B     -0.428785     8A     -0.383711  
       5B     -0.367953     9A     -0.359710     6B     -0.334517  
       7B     -0.240090  

    Virtual:                                                              

       8B      0.028326    10A      0.082701    11A      0.127722  
       9B      0.139432    10B      0.144071    11B      0.157126  
      12A      0.165084    13A      0.179413    12B      0.209781  
      14A      0.211241    13B      0.290521    15A      0.337274  
      16A      0.396040    17A      0.419382    14B      0.425632  
      18A      0.448386    15B      0.452103    16B      0.478050  
      19A      0.488211    17B      0.504040    20A      0.511706  
      21A      0.555769    18B      0.572494    19B      0.582775  
      22A      0.605606    20B      0.615718    21B      0.618812  
      23A      0.619252    24A      0.634380    22B      0.659694  
      25A      0.681355    23B      0.683632    26A      0.686629  
      27A      0.705987    24B      0.732206    25B      0.816243  
      26B      0.873772    28A      0.883180    27B      0.900469  
      29A      0.908664    30A      0.937473    31A      0.984204  
      28B      0.998362    29B      1.014746    32A      1.028835  
      33A      1.034131    30B      1.064848    31B      1.128385  
      32B      1.180476    34A      1.183597    33B      1.194204  
      35A      1.214861    36A      1.276582    34B      1.282793  
      37A      1.303746    38A      1.336542    35B      1.340585  
      36B      1.358818    39A      1.382296    37B      1.423741  
      38B      1.437396    40A      1.438973    41A      1.450901  
      39B      1.503377    42A      1.541079    43A      1.550129  
      40B      1.561673    41B      1.602495    44A      1.615077  
      45A      1.700785    46A      1.738011    42B      1.780536  
      43B      1.839608    47A      1.847035    44B      1.925422  
      48A      1.977975    45B      2.046846    49A      2.137139  
      50A      2.296948    46B      2.355905    51A      2.717245  
      47B      2.732430    48B      2.817157    49B      2.844694  
      52A      2.864881    50B      2.926035    51B      2.928449  
      53A      2.948065    54A      2.949651    55A      2.983982  
      52B      2.999747    56A      3.002585    53B      3.016180  
      54B      3.068963    55B      3.102422    57A      3.117631  
      58A      3.140934    56B      3.159902    59A      3.208312  
      57B      3.213475    60A      3.248865    61A      3.306116  
      58B      3.360325    59B      3.395358    60B      3.441447  
      62A      3.448110    61B      3.467793    63A      3.488153  
      64A      3.503538    62B      3.560765    65A      3.610673  
      66A      3.629076    67A      3.665462    68A      3.712165  
      63B      3.716667    64B      3.732013    65B      3.839613  
      69A      3.839757    66B      3.943995    67B      3.954964  
      68B      4.006322    70A      4.066544    71A      4.141996  
      72A      4.148081    69B      4.156162    70B      4.172957  
      73A      4.177275    71B      4.225823    72B      4.242381  
      74A      4.244216    75A      4.284794    76A      4.389102  
      73B      4.408742    74B      4.420088    77A      4.446082  
      78A      4.465902    75B      4.516448    79A      4.541396  
      80A      4.656159    81A      4.687966    76B      4.704469  
      77B      4.773157    82A      4.845476    83A      4.972822  
      78B      4.975073    79B      5.133626    80B      5.225658  
      81B      5.251034    84A      5.266453    85A      5.354789  
      86A      5.387262    82B      5.596177  

    Final Occupation by Irrep:
              A     B 
    DOCC [     9,    7 ]

  @DF-RKS Final Energy:  -157.24178639227009

   => Energetics <=

    Nuclear Repulsion Energy =            119.5877109648292418
    One-Electron Energy =                -446.5314320323051334
    Two-Electron Energy =                 189.6969465335243683
    DFT Exchange-Correlation Energy =     -19.9950118583185557
    Empirical Dispersion Energy =           0.0000000000000000
    VV10 Nonlocal Energy =                  0.0000000000000000
    Total Energy =                       -157.2417863922700860

Computation Completed


Properties will be evaluated at   0.000000,   0.000000,   0.000000 [a0]

Properties computed using the SCF density matrix

  Nuclear Dipole Moment: [e a0]
     X:     0.0000      Y:     0.0000      Z:    -1.4367

  Electronic Dipole Moment: [e a0]
     X:     0.0000      Y:     0.0000      Z:     1.2393

  Dipole Moment: [e a0]
     X:     0.0000      Y:     0.0000      Z:    -0.1973     Total:     0.1973

  Dipole Moment: [D]
     X:     0.0000      Y:     0.0000      Z:    -0.5015     Total:     0.5015


*** tstop() called on n076 at Sun Nov 14 16:52:12 2021
Module time:
	user time   =      93.78 seconds =       1.56 minutes
	system time =       1.45 seconds =       0.02 minutes
	total time  =         25 seconds =       0.42 minutes
Total time:
	user time   =      93.78 seconds =       1.56 minutes
	system time =       1.45 seconds =       0.02 minutes
	total time  =         25 seconds =       0.42 minutes
Grab this energy -157.2417863922701
    Psi4 stopped on: Sunday, 14 November 2021 04:52PM
    Psi4 wall time for execution: 0:00:24.49

*** Psi4 exiting successfully. Buy a developer a beer!
