
    -----------------------------------------------------------------------
          Psi4: An Open-Source Ab Initio Electronic Structure Package
                               Psi4 1.4a2.dev629 

                         Git: Rev {master} 2938fc2 dirty


    D. G. A. Smith, L. A. Burns, A. C. Simmonett, R. M. Parrish,
    M. C. Schieber, R. Galvelis, P. Kraus, H. Kruse, R. Di Remigio,
    A. Alenaizan, A. M. James, S. Lehtola, J. P. Misiewicz, M. Scheurer,
    R. A. Shaw, J. B. Schriber, Y. Xie, Z. L. Glick, D. A. Sirianni,
    J. S. O'Brien, J. M. Waldrop, A. Kumar, E. G. Hohenstein,
    B. P. Pritchard, B. R. Brooks, H. F. Schaefer III, A. Yu. Sokolov,
    K. Patkowski, A. E. DePrince III, U. Bozkaya, R. A. King,
    F. A. Evangelista, J. M. Turney, T. D. Crawford, C. D. Sherrill,
    J. Chem. Phys. 152(18) 184108 (2020). https://doi.org/10.1063/5.0006002

                            Additional Code Authors
    E. T. Seidl, C. L. Janssen, E. F. Valeev, M. L. Leininger,
    J. F. Gonthier, R. M. Richard, H. R. McAlexander, M. Saitow, X. Wang,
    P. Verma, and M. H. Lechner

             Previous Authors, Complete List of Code Contributors,
                       and Citations for Specific Modules
    https://github.com/psi4/psi4/blob/master/codemeta.json
    https://github.com/psi4/psi4/graphs/contributors
    http://psicode.org/psi4manual/master/introduction.html#citing-psifour

    -----------------------------------------------------------------------


    Psi4 started on: Sunday, 14 November 2021 04:54PM

    Process ID: 31631
    Host:       n083
    PSIDATADIR: /opt/psi/4/master/share/psi4
    Memory:     500.0 MiB
    Threads:    4
    
  ==> Input File <==

--------------------------------------------------------------------------
import os
memory 14 GB 
 
molecule {
 C    0.0001229304    0.0000000000    2.7163309997
 C    0.0008570297    0.0000000006    0.1837266515
 C    0.0012745659    2.4101526334   -1.3300983244
 C    0.0012745449   -2.4101526308   -1.3300983283
 H   -0.0003855850    1.7506850434    3.7795413302
 H   -0.0003855843   -1.7506850433    3.7795413304
 H    0.0032498163    4.0734691918   -0.1050251162
 H    1.6559196546    2.4990132836   -2.5562057736
 H   -1.6605486718    2.4972471702   -2.5613725915
 H    0.0032497931   -4.0734692008   -0.1050251048
 H   -1.6605483982   -2.4972474185   -2.5613727131
 H    1.6559199043   -2.4990130295   -2.5562056599
units bohr
}

basis {

assign 6-31g_2dfp_

[ 6-31g_2dfp_ ]

spherical

!----------------------------------------------------------------------
! Basis Set Exchange
! Version v0.8.13
! https://www.basissetexchange.org
!----------------------------------------------------------------------
!   Basis set: 6-31G(2df,p)
! Description: 6-31G(2df,p)
!        Role: orbital
!     Version: 0  (Data from the original Basis Set Exchange)
!----------------------------------------------------------------------


****
H     0
S    3   1.00
     18.7311370              0.03349460
      2.8253937              0.23472695
      0.6401217              0.81375733
S    1   1.00
      0.1612778              1.00000000
P    1   1.00
      1.5000000              1.0000000
P    1   1.00
      0.3750000              1.0000000
****
B     0
S    6   1.00
   2068.8823000              0.0018663
    310.6495700              0.0142515
     70.6830330              0.0695516
     19.8610800              0.2325729
      6.2993048              0.4670787
      2.1270270              0.3634314
SP   3   1.00
      4.7279710             -0.1303938              0.0745976
      1.1903377             -0.1307889              0.3078467
      0.3594117              1.1309444              0.7434568
SP   1   1.00
      0.1267512              1.0000000              1.0000000
D    1   1.00
      0.8020000              1.0000000
D    1   1.00
      0.2005000              1.0000000
F    1   1.00
      0.5000000              1.0000000
****
C     0
S    6   1.00
   3047.5249000              0.0018347
    457.3695100              0.0140373
    103.9486900              0.0688426
     29.2101550              0.2321844
      9.2866630              0.4679413
      3.1639270              0.3623120
SP   3   1.00
      7.8682724             -0.1193324              0.0689991
      1.8812885             -0.1608542              0.3164240
      0.5442493              1.1434564              0.7443083
SP   1   1.00
      0.1687144              1.0000000              1.0000000
D    1   1.00
      1.2520000              1.0000000
D    1   1.00
      0.3130000              1.0000000
F    1   1.00
      0.8000000              1.0000000
****
N     0
S    6   1.00
   4173.5110000              0.0018348
    627.4579000              0.0139950
    142.9021000              0.0685870
     40.2343300              0.2322410
     12.8202100              0.4690700
      4.3904370              0.3604550
SP   3   1.00
     11.6263580             -0.1149610              0.0675800
      2.7162800             -0.1691180              0.3239070
      0.7722180              1.1458520              0.7408950
SP   1   1.00
      0.2120313              1.0000000              1.0000000
D    1   1.00
      1.8260000              1.0000000
D    1   1.00
      0.4565000              1.0000000
F    1   1.00
      1.0000000              1.0000000
****
O     0
S    6   1.00
   5484.6717000              0.0018311
    825.2349500              0.0139501
    188.0469600              0.0684451
     52.9645000              0.2327143
     16.8975700              0.4701930
      5.7996353              0.3585209
SP   3   1.00
     15.5396160             -0.1107775              0.0708743
      3.5999336             -0.1480263              0.3397528
      1.0137618              1.1307670              0.7271586
SP   1   1.00
      0.2700058              1.0000000              1.0000000
D    1   1.00
      2.5840000              1.0000000
D    1   1.00
      0.6460000              1.0000000
F    1   1.00
      1.4000000              1.0000000
****
F     0
S    6   1.00
   7001.7130900              0.0018196169
   1051.3660900              0.0139160796
    239.2856900              0.0684053245
     67.3974453              0.233185760
     21.5199573              0.471267439
      7.40310130             0.356618546
SP   3   1.00
     20.8479528             -0.108506975            0.0716287243
      4.80830834            -0.146451658            0.3459121030
      1.34406986             1.128688580            0.7224699570
SP   1   1.00
      0.358151393            1.0000000              1.0000000
D    1   1.00
      3.5000000              1.0000000
D    1   1.00
      0.8750000              1.0000000
F    1   1.00
      1.8500000              1.0000000
****
Al     0
S    6   1.00
  13983.1000000              0.00194267
   2098.7500000              0.0148599
    477.7050000              0.0728494
    134.3600000              0.2468300
     42.8709000              0.4872580
     14.5189000              0.3234960
SP   6   1.00
    239.6680000             -0.00292619             0.00460285
     57.4419000             -0.0374080              0.0331990
     18.2859000             -0.1144870              0.1362820
      6.5991400              0.1156350              0.3304760
      2.4904900              0.6125950              0.4491460
      0.9445400              0.3937990              0.2657040
SP   3   1.00
      1.2779000             -0.2276060             -0.0175130
      0.3975900              0.00144583             0.2445330
      0.1600950              1.0927900              0.8049340
SP   1   1.00
      0.0556577              1.0000000              1.0000000
D    1   1.00
      0.6500000              1.0000000
D    1   1.00
      0.1625000              1.0000000
F    1   1.00
      0.2500000              1.0000000
****
Si     0
S    6   1.00
  16115.9000000              0.00195948
   2425.5800000              0.01492880
    553.8670000              0.07284780
    156.3400000              0.24613000
     50.0683000              0.48591400
     17.0178000              0.32500200
SP   6   1.00
    292.7180000             -0.00278094             0.00443826
     69.8731000             -0.03571460             0.03266790
     22.3363000             -0.11498500             0.13472100
      8.1503900              0.09356340             0.32867800
      3.1345800              0.60301700             0.44964000
      1.2254300              0.41895900             0.26137200
SP   3   1.00
      1.7273800             -0.24463000            -0.01779510
      0.5729220              0.00431572             0.25353900
      0.2221920              1.09818000             0.80066900
SP   1   1.00
      0.0778369              1.00000000             1.00000000
D    1   1.00
      0.9000000              1.0000000
D    1   1.00
      0.2250000              1.0000000
F    1   1.00
      0.3200000              1.0000000
****
P     0
S    6   1.00
  19413.3000000              0.0018516
   2909.4200000              0.0142062
    661.3640000              0.0699995
    185.7590000              0.2400790
     59.1943000              0.4847620
     20.0310000              0.3352000
SP   6   1.00
    339.4780000             -0.00278217             0.00456462
     81.0101000             -0.0360499              0.03369360
     25.8780000             -0.1166310              0.13975500
      9.4522100              0.0968328              0.33936200
      3.6656600              0.6144180              0.45092100
      1.4674600              0.4037980              0.23858600
SP   3   1.00
      2.1562300             -0.2529230             -0.01776530
      0.7489970              0.0328517              0.27405800
      0.2831450              1.0812500              0.78542100
SP   1   1.00
      0.0998317              1.0000000              1.00000000
D    1   1.00
      1.1000000              1.0000000
D    1   1.00
      0.2750000              1.0000000
F    1   1.00
      0.4500000              1.0000000
****
S     0
S    6   1.00
  21917.1000000              0.0018690
   3301.4900000              0.0142300
    754.1460000              0.0696960
    212.7110000              0.2384870
     67.9896000              0.4833070
     23.0515000              0.3380740
SP   6   1.00
    423.7350000             -0.0023767              0.0040610
    100.7100000             -0.0316930              0.0306810
     32.1599000             -0.1133170              0.1304520
     11.8079000              0.0560900              0.3272050
      4.6311000              0.5922550              0.4528510
      1.8702500              0.4550060              0.2560420
SP   3   1.00
      2.6158400             -0.2503740             -0.0145110
      0.9221670              0.0669570              0.3102630
      0.3412870              1.0545100              0.7544830
SP   1   1.00
      0.1171670              1.0000000              1.0000000
D    1   1.00
      1.3000000              1.0000000
D    1   1.00
      0.3250000              1.0000000
F    1   1.00
      0.5500000              1.0000000
****
Cl     0
S    6   1.00
  25180.1000000              0.0018330
   3780.3500000              0.0140340
    860.4740000              0.0690970
    242.1450000              0.2374520
     77.3349000              0.4830340
     26.2470000              0.3398560
SP   6   1.00
    491.7650000             -0.0022974              0.0039894
    116.9840000             -0.0307140              0.0303180
     37.4153000             -0.1125280              0.1298800
     13.7834000              0.0450160              0.3279510
      5.4521500              0.5893530              0.4535270
      2.2258800              0.4652060              0.2521540
SP   3   1.00
      3.1864900             -0.2518300             -0.0142990
      1.1442700              0.0615890              0.3235720
      0.4203770              1.0601800              0.7435070
SP   1   1.00
      0.1426570              1.0000000              1.0000000
D    1   1.00
      1.5000000              1.0000000
D    1   1.00
      0.3750000              1.0000000
F    1   1.00
      0.7000000              1.0000000
****
}


set {
reference rhf                          
freeze_core true
e_convergence 10                       
d_convergence 10                      
dft_spherical_points 1202
dft_radial_points 99
}

e = energy('b3lyp')

print_out('Grab this energy {0}'.format(e))
--------------------------------------------------------------------------

  Memory set to  13.039 GiB by Python driver.

Scratch directory: /tmp/

*** tstart() called on n083
*** at Sun Nov 14 16:54:02 2021

   => Loading Basis Set <=

    Name: ANONYMOUSA44370CF
    Role: ORBITAL
    Keyword: BASIS
    atoms 1-4  entry C          line    48 inputblock 6-31g_2dfp_ 
    atoms 5-12 entry H          line    15 inputblock 6-31g_2dfp_ 


         ---------------------------------------------------------
                                   SCF
               by Justin Turney, Rob Parrish, Andy Simmonett
                          and Daniel G. A. Smith
                              RKS Reference
                        4 Threads,  13351 MiB Core
         ---------------------------------------------------------

  ==> Geometry <==

    Molecular point group: c1
    Full point group: C1

    Geometry (in Bohr), charge = 0, multiplicity = 1:

       Center              X                  Y                   Z               Mass       
    ------------   -----------------  -----------------  -----------------  -----------------
         C           -0.000569013329    -0.000000000629     2.716872828513    12.000000000000
         C            0.000165085971    -0.000000000029     0.184268480313    12.000000000000
         C            0.000582622171     2.410152632771    -1.329556495587    12.000000000000
         C            0.000582601171    -2.410152631429    -1.329556499487    12.000000000000
         H           -0.001077528729     1.750685042771     3.780083159013     1.007825032230
         H           -0.001077528029    -1.750685043929     3.780083159213     1.007825032230
         H            0.002557872571     4.073469191171    -0.104483287387     1.007825032230
         H            1.655227710871     2.499013282971    -2.555663944787     1.007825032230
         H           -1.661240615529     2.497247169571    -2.560830762687     1.007825032230
         H            0.002557849371    -4.073469201429    -0.104483275987     1.007825032230
         H           -1.661240341929    -2.497247419129    -2.560830884287     1.007825032230
         H            1.655227960571    -2.499013030129    -2.555663831087     1.007825032230

  Running in c1 symmetry.

  Rotational constants: A =      0.30450  B =      0.27964  C =      0.15404 [cm^-1]
  Rotational constants: A =   9128.60751  B =   8383.27206  C =   4617.94611 [MHz]
  Nuclear repulsion =  119.591337464801086

  Charge       = 0
  Multiplicity = 1
  Electrons    = 32
  Nalpha       = 16
  Nbeta        = 16

  ==> Algorithm <==

  SCF Algorithm Type is DF.
  DIIS enabled.
  MOM disabled.
  Fractional occupation disabled.
  Guess Type is SAD.
  Energy threshold   = 1.00e-10
  Density threshold  = 1.00e-10
  Integral threshold = 0.00e+00

  ==> Primary Basis <==

  Basis Set: ANONYMOUSA44370CF
    Blend: 6-31G_2DFP_
    Number of shells: 64
    Number of basis function: 168
    Number of Cartesian functions: 188
    Spherical Harmonics?: true
    Max angular momentum: 3

  ==> DFT Potential <==

   => Composite Functional: B3LYP <= 

    B3LYP Hyb-GGA Exchange-Correlation Functional

    P. J. Stephens, F. J. Devlin, C. F. Chabalowski, and M. J. Frisch, J. Phys. Chem. 98, 11623 (1994)

    Deriv               =              1
    GGA                 =           TRUE
    Meta                =          FALSE

    Exchange Hybrid     =           TRUE
    MP2 Hybrid          =          FALSE

   => Exchange Functionals <=

    0.0800   Slater exchange
    0.7200         Becke 88

   => Exact (HF) Exchange <=

    0.2000               HF 

   => Correlation Functionals <=

    0.1900   Vosko, Wilk & Nusair (VWN5_RPA)
    0.8100   Lee, Yang & Parr

   => Molecular Quadrature <=

    Radial Scheme          =       TREUTLER
    Pruning Scheme         =           NONE
    Nuclear Scheme         =       TREUTLER

    BS radius alpha        =              1
    Pruning alpha          =              1
    Radial Points          =             99
    Spherical Points       =           1202
    Total Points           =        1333377
    Total Blocks           =           8944
    Max Points             =            256
    Max Functions          =            168
    Weights Tolerance      =       1.00E-15

   => Loading Basis Set <=

    Name: (ANONYMOUSA44370CF AUX)
    Role: JKFIT
    Keyword: DF_BASIS_SCF
    atoms 1-4  entry C          line   198 file /opt/psi/4/master/share/psi4/basis/def2-universal-jkfit.gbs 
    atoms 5-12 entry H          line    18 file /opt/psi/4/master/share/psi4/basis/def2-universal-jkfit.gbs 

  ==> Integral Setup <==

  DFHelper Memory: AOs need 0.100 GiB; user supplied 4.526 GiB. Using in-core AOs.

  ==> MemDFJK: Density-Fitted J/K Matrices <==

    J tasked:                   Yes
    K tasked:                   Yes
    wK tasked:                   No
    OpenMP threads:               4
    Memory [MiB]:              4635
    Algorithm:                 Core
    Schwarz Cutoff:           1E-12
    Mask sparsity (%):       1.2755
    Fitting Condition:        1E-10

   => Auxiliary Basis Set <=

  Basis Set: (ANONYMOUSA44370CF AUX)
    Blend: DEF2-UNIVERSAL-JKFIT
    Number of shells: 148
    Number of basis function: 444
    Number of Cartesian functions: 516
    Spherical Harmonics?: true
    Max angular momentum: 4

  Cached 100.0% of DFT collocation blocks in 5.252 [GiB].

  Minimum eigenvalue in the overlap matrix is 7.9792070999E-04.
  Reciprocal condition number of the overlap matrix is 1.3615655468E-04.
    Using symmetric orthogonalization.

  ==> Pre-Iterations <==

  SCF Guess: Superposition of Atomic Densities via on-the-fly atomic UHF (no occupation information).

   -------------------------
    Irrep   Nso     Nmo    
   -------------------------
     A        168     168 
   -------------------------
    Total     168     168
   -------------------------

  ==> Iterations <==

                           Total Energy        Delta E     RMS |[F,P]|

   @DF-RKS iter SAD:  -156.51948584320479   -1.56519e+02   0.00000e+00 
   @DF-RKS iter   1:  -156.87752947063305   -3.58044e-01   4.82622e-03 DIIS
   @DF-RKS iter   2:  -156.78155386391143    9.59756e-02   5.30459e-03 DIIS
   @DF-RKS iter   3:  -157.23741655504978   -4.55863e-01   5.43773e-04 DIIS
   @DF-RKS iter   4:  -157.23944709858466   -2.03054e-03   3.98465e-04 DIIS
   @DF-RKS iter   5:  -157.24172355733228   -2.27646e-03   5.46977e-05 DIIS
   @DF-RKS iter   6:  -157.24176708226875   -4.35249e-05   1.58953e-05 DIIS
   @DF-RKS iter   7:  -157.24177053880993   -3.45654e-06   1.66114e-06 DIIS
   @DF-RKS iter   8:  -157.24177057747875   -3.86688e-08   2.32927e-07 DIIS
   @DF-RKS iter   9:  -157.24177057835556   -8.76810e-10   4.15312e-08 DIIS
   @DF-RKS iter  10:  -157.24177057838091   -2.53522e-11   5.91101e-09 DIIS
   @DF-RKS iter  11:  -157.24177057838139   -4.83169e-13   1.59427e-09 DIIS
   @DF-RKS iter  12:  -157.24177057838153   -1.42109e-13   2.69279e-10 DIIS
   @DF-RKS iter  13:  -157.24177057838139    1.42109e-13   7.52768e-11 DIIS
  Energy and wave function converged.


  ==> Post-Iterations <==

    Orbital Energies [Eh]
    ---------------------

    Doubly Occupied:                                                      

       1A    -10.185926     2A    -10.171903     3A    -10.171860  
       4A    -10.158659     5A     -0.800642     6A     -0.689827  
       7A     -0.674407     8A     -0.518813     9A     -0.447925  
      10A     -0.438879    11A     -0.429072    12A     -0.383984  
      13A     -0.367592    14A     -0.360057    15A     -0.334345  
      16A     -0.240018  

    Virtual:                                                              

      17A      0.028324    18A      0.082605    19A      0.127499  
      20A      0.139293    21A      0.144156    22A      0.157542  
      23A      0.164505    24A      0.180104    25A      0.209487  
      26A      0.211252    27A      0.290576    28A      0.337227  
      29A      0.396213    30A      0.420382    31A      0.425070  
      32A      0.447832    33A      0.451825    34A      0.478354  
      35A      0.487923    36A      0.504028    37A      0.511251  
      38A      0.556142    39A      0.573088    40A      0.582707  
      41A      0.606094    42A      0.616083    43A      0.618081  
      44A      0.619209    45A      0.635054    46A      0.659528  
      47A      0.680968    48A      0.682937    49A      0.687383  
      50A      0.705848    51A      0.731865    52A      0.816134  
      53A      0.873593    54A      0.883881    55A      0.900543  
      56A      0.908566    57A      0.937179    58A      0.983091  
      59A      0.999030    60A      1.014904    61A      1.028936  
      62A      1.035469    63A      1.065207    64A      1.128694  
      65A      1.179714    66A      1.183171    67A      1.194492  
      68A      1.214960    69A      1.276581    70A      1.282750  
      71A      1.302138    72A      1.335983    73A      1.341893  
      74A      1.358447    75A      1.382100    76A      1.420986  
      77A      1.437343    78A      1.440377    79A      1.452605  
      80A      1.503563    81A      1.540907    82A      1.550654  
      83A      1.561585    84A      1.603491    85A      1.615405  
      86A      1.700055    87A      1.740000    88A      1.782488  
      89A      1.836070    90A      1.842735    91A      1.927495  
      92A      1.980486    93A      2.047193    94A      2.136534  
      95A      2.295735    96A      2.355756    97A      2.717751  
      98A      2.733328    99A      2.817587   100A      2.843664  
     101A      2.864413   102A      2.925824   103A      2.928242  
     104A      2.948654   105A      2.949135   106A      2.985608  
     107A      3.000030   108A      3.001133   109A      3.014549  
     110A      3.069090   111A      3.103017   112A      3.119039  
     113A      3.141036   114A      3.160695   115A      3.208455  
     116A      3.213844   117A      3.248221   118A      3.306252  
     119A      3.360881   120A      3.393883   121A      3.441557  
     122A      3.447668   123A      3.467095   124A      3.486542  
     125A      3.504733   126A      3.561347   127A      3.612960  
     128A      3.628389   129A      3.665439   130A      3.712173  
     131A      3.716321   132A      3.733021   133A      3.837649  
     134A      3.842124   135A      3.944721   136A      3.954082  
     137A      4.006915   138A      4.064373   139A      4.141868  
     140A      4.145981   141A      4.158361   142A      4.173199  
     143A      4.183055   144A      4.222103   145A      4.239978  
     146A      4.241733   147A      4.283754   148A      4.388910  
     149A      4.408179   150A      4.419313   151A      4.448612  
     152A      4.467481   153A      4.516601   154A      4.545139  
     155A      4.650290   156A      4.687628   157A      4.707123  
     158A      4.772082   159A      4.845431   160A      4.972902  
     161A      4.976524   162A      5.133910   163A      5.220572  
     164A      5.254303   165A      5.261534   166A      5.362540  
     167A      5.386429   168A      5.593050  

    Final Occupation by Irrep:
              A 
    DOCC [    16 ]

  @DF-RKS Final Energy:  -157.24177057838139

   => Energetics <=

    Nuclear Repulsion Energy =            119.5913374648010858
    One-Electron Energy =                -446.5383684688331982
    Two-Electron Energy =                 189.7000730070105305
    DFT Exchange-Correlation Energy =     -19.9948125813598132
    Empirical Dispersion Energy =           0.0000000000000000
    VV10 Nonlocal Energy =                  0.0000000000000000
    Total Energy =                       -157.2417705783813915

Computation Completed


Properties will be evaluated at   0.000000,   0.000000,   0.000000 [a0]

Properties computed using the SCF density matrix

  Nuclear Dipole Moment: [e a0]
     X:    -0.0045      Y:    -0.0000      Z:    -1.4296

  Electronic Dipole Moment: [e a0]
     X:     0.0066      Y:     0.0000      Z:     1.2285

  Dipole Moment: [e a0]
     X:     0.0021      Y:     0.0000      Z:    -0.2011     Total:     0.2012

  Dipole Moment: [D]
     X:     0.0053      Y:     0.0000      Z:    -0.5113     Total:     0.5113


*** tstop() called on n083 at Sun Nov 14 16:54:26 2021
Module time:
	user time   =      93.25 seconds =       1.55 minutes
	system time =       1.51 seconds =       0.03 minutes
	total time  =         24 seconds =       0.40 minutes
Total time:
	user time   =      93.25 seconds =       1.55 minutes
	system time =       1.51 seconds =       0.03 minutes
	total time  =         24 seconds =       0.40 minutes
Grab this energy -157.2417705783814
    Psi4 stopped on: Sunday, 14 November 2021 04:54PM
    Psi4 wall time for execution: 0:00:24.34

*** Psi4 exiting successfully. Buy a developer a beer!
