
    -----------------------------------------------------------------------
          Psi4: An Open-Source Ab Initio Electronic Structure Package
                               Psi4 1.4a2.dev629 

                         Git: Rev {master} 2938fc2 dirty


    D. G. A. Smith, L. A. Burns, A. C. Simmonett, R. M. Parrish,
    M. C. Schieber, R. Galvelis, P. Kraus, H. Kruse, R. Di Remigio,
    A. Alenaizan, A. M. James, S. Lehtola, J. P. Misiewicz, M. Scheurer,
    R. A. Shaw, J. B. Schriber, Y. Xie, Z. L. Glick, D. A. Sirianni,
    J. S. O'Brien, J. M. Waldrop, A. Kumar, E. G. Hohenstein,
    B. P. Pritchard, B. R. Brooks, H. F. Schaefer III, A. Yu. Sokolov,
    K. Patkowski, A. E. DePrince III, U. Bozkaya, R. A. King,
    F. A. Evangelista, J. M. Turney, T. D. Crawford, C. D. Sherrill,
    J. Chem. Phys. 152(18) 184108 (2020). https://doi.org/10.1063/5.0006002

                            Additional Code Authors
    E. T. Seidl, C. L. Janssen, E. F. Valeev, M. L. Leininger,
    J. F. Gonthier, R. M. Richard, H. R. McAlexander, M. Saitow, X. Wang,
    P. Verma, and M. H. Lechner

             Previous Authors, Complete List of Code Contributors,
                       and Citations for Specific Modules
    https://github.com/psi4/psi4/blob/master/codemeta.json
    https://github.com/psi4/psi4/graphs/contributors
    http://psicode.org/psi4manual/master/introduction.html#citing-psifour

    -----------------------------------------------------------------------


    Psi4 started on: Sunday, 14 November 2021 05:12PM

    Process ID: 32695
    Host:       n083
    PSIDATADIR: /opt/psi/4/master/share/psi4
    Memory:     500.0 MiB
    Threads:    4
    
  ==> Input File <==

--------------------------------------------------------------------------
import os
memory 14 GB 
 
molecule {
 C    0.0000000000    0.0000000000    2.7082827151
 C    0.0000000000   -0.0000000000    0.1782757617
 C    0.0002708908    2.4178522878   -1.3270182316
 C   -0.0002708908   -2.4178522878   -1.3270182316
 H    0.0012431038    1.7507132758    3.7701630851
 H   -0.0012431038   -1.7507132758    3.7701630851
 H   -0.0047110638    4.0732048494   -0.0984223887
 H    1.6647466572    2.5123660978   -2.5512235880
 H   -1.6572017951    2.5108570684   -2.5599097652
 H    0.0047110638   -4.0732048494   -0.0984223887
 H   -1.6647466572   -2.5123660978   -2.5512235880
 H    1.6572017951   -2.5108570684   -2.5599097652
units bohr
}

basis {

assign 6-31g_2dfp_

[ 6-31g_2dfp_ ]

spherical

!----------------------------------------------------------------------
! Basis Set Exchange
! Version v0.8.13
! https://www.basissetexchange.org
!----------------------------------------------------------------------
!   Basis set: 6-31G(2df,p)
! Description: 6-31G(2df,p)
!        Role: orbital
!     Version: 0  (Data from the original Basis Set Exchange)
!----------------------------------------------------------------------


****
H     0
S    3   1.00
     18.7311370              0.03349460
      2.8253937              0.23472695
      0.6401217              0.81375733
S    1   1.00
      0.1612778              1.00000000
P    1   1.00
      1.5000000              1.0000000
P    1   1.00
      0.3750000              1.0000000
****
B     0
S    6   1.00
   2068.8823000              0.0018663
    310.6495700              0.0142515
     70.6830330              0.0695516
     19.8610800              0.2325729
      6.2993048              0.4670787
      2.1270270              0.3634314
SP   3   1.00
      4.7279710             -0.1303938              0.0745976
      1.1903377             -0.1307889              0.3078467
      0.3594117              1.1309444              0.7434568
SP   1   1.00
      0.1267512              1.0000000              1.0000000
D    1   1.00
      0.8020000              1.0000000
D    1   1.00
      0.2005000              1.0000000
F    1   1.00
      0.5000000              1.0000000
****
C     0
S    6   1.00
   3047.5249000              0.0018347
    457.3695100              0.0140373
    103.9486900              0.0688426
     29.2101550              0.2321844
      9.2866630              0.4679413
      3.1639270              0.3623120
SP   3   1.00
      7.8682724             -0.1193324              0.0689991
      1.8812885             -0.1608542              0.3164240
      0.5442493              1.1434564              0.7443083
SP   1   1.00
      0.1687144              1.0000000              1.0000000
D    1   1.00
      1.2520000              1.0000000
D    1   1.00
      0.3130000              1.0000000
F    1   1.00
      0.8000000              1.0000000
****
N     0
S    6   1.00
   4173.5110000              0.0018348
    627.4579000              0.0139950
    142.9021000              0.0685870
     40.2343300              0.2322410
     12.8202100              0.4690700
      4.3904370              0.3604550
SP   3   1.00
     11.6263580             -0.1149610              0.0675800
      2.7162800             -0.1691180              0.3239070
      0.7722180              1.1458520              0.7408950
SP   1   1.00
      0.2120313              1.0000000              1.0000000
D    1   1.00
      1.8260000              1.0000000
D    1   1.00
      0.4565000              1.0000000
F    1   1.00
      1.0000000              1.0000000
****
O     0
S    6   1.00
   5484.6717000              0.0018311
    825.2349500              0.0139501
    188.0469600              0.0684451
     52.9645000              0.2327143
     16.8975700              0.4701930
      5.7996353              0.3585209
SP   3   1.00
     15.5396160             -0.1107775              0.0708743
      3.5999336             -0.1480263              0.3397528
      1.0137618              1.1307670              0.7271586
SP   1   1.00
      0.2700058              1.0000000              1.0000000
D    1   1.00
      2.5840000              1.0000000
D    1   1.00
      0.6460000              1.0000000
F    1   1.00
      1.4000000              1.0000000
****
F     0
S    6   1.00
   7001.7130900              0.0018196169
   1051.3660900              0.0139160796
    239.2856900              0.0684053245
     67.3974453              0.233185760
     21.5199573              0.471267439
      7.40310130             0.356618546
SP   3   1.00
     20.8479528             -0.108506975            0.0716287243
      4.80830834            -0.146451658            0.3459121030
      1.34406986             1.128688580            0.7224699570
SP   1   1.00
      0.358151393            1.0000000              1.0000000
D    1   1.00
      3.5000000              1.0000000
D    1   1.00
      0.8750000              1.0000000
F    1   1.00
      1.8500000              1.0000000
****
Al     0
S    6   1.00
  13983.1000000              0.00194267
   2098.7500000              0.0148599
    477.7050000              0.0728494
    134.3600000              0.2468300
     42.8709000              0.4872580
     14.5189000              0.3234960
SP   6   1.00
    239.6680000             -0.00292619             0.00460285
     57.4419000             -0.0374080              0.0331990
     18.2859000             -0.1144870              0.1362820
      6.5991400              0.1156350              0.3304760
      2.4904900              0.6125950              0.4491460
      0.9445400              0.3937990              0.2657040
SP   3   1.00
      1.2779000             -0.2276060             -0.0175130
      0.3975900              0.00144583             0.2445330
      0.1600950              1.0927900              0.8049340
SP   1   1.00
      0.0556577              1.0000000              1.0000000
D    1   1.00
      0.6500000              1.0000000
D    1   1.00
      0.1625000              1.0000000
F    1   1.00
      0.2500000              1.0000000
****
Si     0
S    6   1.00
  16115.9000000              0.00195948
   2425.5800000              0.01492880
    553.8670000              0.07284780
    156.3400000              0.24613000
     50.0683000              0.48591400
     17.0178000              0.32500200
SP   6   1.00
    292.7180000             -0.00278094             0.00443826
     69.8731000             -0.03571460             0.03266790
     22.3363000             -0.11498500             0.13472100
      8.1503900              0.09356340             0.32867800
      3.1345800              0.60301700             0.44964000
      1.2254300              0.41895900             0.26137200
SP   3   1.00
      1.7273800             -0.24463000            -0.01779510
      0.5729220              0.00431572             0.25353900
      0.2221920              1.09818000             0.80066900
SP   1   1.00
      0.0778369              1.00000000             1.00000000
D    1   1.00
      0.9000000              1.0000000
D    1   1.00
      0.2250000              1.0000000
F    1   1.00
      0.3200000              1.0000000
****
P     0
S    6   1.00
  19413.3000000              0.0018516
   2909.4200000              0.0142062
    661.3640000              0.0699995
    185.7590000              0.2400790
     59.1943000              0.4847620
     20.0310000              0.3352000
SP   6   1.00
    339.4780000             -0.00278217             0.00456462
     81.0101000             -0.0360499              0.03369360
     25.8780000             -0.1166310              0.13975500
      9.4522100              0.0968328              0.33936200
      3.6656600              0.6144180              0.45092100
      1.4674600              0.4037980              0.23858600
SP   3   1.00
      2.1562300             -0.2529230             -0.01776530
      0.7489970              0.0328517              0.27405800
      0.2831450              1.0812500              0.78542100
SP   1   1.00
      0.0998317              1.0000000              1.00000000
D    1   1.00
      1.1000000              1.0000000
D    1   1.00
      0.2750000              1.0000000
F    1   1.00
      0.4500000              1.0000000
****
S     0
S    6   1.00
  21917.1000000              0.0018690
   3301.4900000              0.0142300
    754.1460000              0.0696960
    212.7110000              0.2384870
     67.9896000              0.4833070
     23.0515000              0.3380740
SP   6   1.00
    423.7350000             -0.0023767              0.0040610
    100.7100000             -0.0316930              0.0306810
     32.1599000             -0.1133170              0.1304520
     11.8079000              0.0560900              0.3272050
      4.6311000              0.5922550              0.4528510
      1.8702500              0.4550060              0.2560420
SP   3   1.00
      2.6158400             -0.2503740             -0.0145110
      0.9221670              0.0669570              0.3102630
      0.3412870              1.0545100              0.7544830
SP   1   1.00
      0.1171670              1.0000000              1.0000000
D    1   1.00
      1.3000000              1.0000000
D    1   1.00
      0.3250000              1.0000000
F    1   1.00
      0.5500000              1.0000000
****
Cl     0
S    6   1.00
  25180.1000000              0.0018330
   3780.3500000              0.0140340
    860.4740000              0.0690970
    242.1450000              0.2374520
     77.3349000              0.4830340
     26.2470000              0.3398560
SP   6   1.00
    491.7650000             -0.0022974              0.0039894
    116.9840000             -0.0307140              0.0303180
     37.4153000             -0.1125280              0.1298800
     13.7834000              0.0450160              0.3279510
      5.4521500              0.5893530              0.4535270
      2.2258800              0.4652060              0.2521540
SP   3   1.00
      3.1864900             -0.2518300             -0.0142990
      1.1442700              0.0615890              0.3235720
      0.4203770              1.0601800              0.7435070
SP   1   1.00
      0.1426570              1.0000000              1.0000000
D    1   1.00
      1.5000000              1.0000000
D    1   1.00
      0.3750000              1.0000000
F    1   1.00
      0.7000000              1.0000000
****
}


set {
reference rhf                          
freeze_core true
e_convergence 10                       
d_convergence 10                      
dft_spherical_points 1202
dft_radial_points 99
}

e = energy('b3lyp')

print_out('Grab this energy {0}'.format(e))
--------------------------------------------------------------------------

  Memory set to  13.039 GiB by Python driver.

Scratch directory: /tmp/

*** tstart() called on n083
*** at Sun Nov 14 17:12:17 2021

   => Loading Basis Set <=

    Name: ANONYMOUSCE8D4F14
    Role: ORBITAL
    Keyword: BASIS
    atoms 1-4  entry C          line    48 inputblock 6-31g_2dfp_ 
    atoms 5-12 entry H          line    15 inputblock 6-31g_2dfp_ 


         ---------------------------------------------------------
                                   SCF
               by Justin Turney, Rob Parrish, Andy Simmonett
                          and Daniel G. A. Smith
                              RKS Reference
                        4 Threads,  13351 MiB Core
         ---------------------------------------------------------

  ==> Geometry <==

    Molecular point group: c2
    Full point group: C2

    Geometry (in Bohr), charge = 0, multiplicity = 1:

       Center              X                  Y                   Z               Mass       
    ------------   -----------------  -----------------  -----------------  -----------------
         C            0.000000000000     0.000000000000     2.710263496187    12.000000000000
         C            0.000000000000     0.000000000000     0.180256542787    12.000000000000
         C            0.000270890800     2.417852287800    -1.325037450513    12.000000000000
         C           -0.000270890800    -2.417852287800    -1.325037450513    12.000000000000
         H            0.001243103800     1.750713275800     3.772143866187     1.007825032230
         H           -0.001243103800    -1.750713275800     3.772143866187     1.007825032230
         H           -0.004711063800     4.073204849400    -0.096441607613     1.007825032230
         H            1.664746657200     2.512366097800    -2.549242806913     1.007825032230
         H           -1.657201795100     2.510857068400    -2.557928984113     1.007825032230
         H            0.004711063800    -4.073204849400    -0.096441607613     1.007825032230
         H           -1.664746657200    -2.512366097800    -2.549242806913     1.007825032230
         H            1.657201795100    -2.510857068400    -2.557928984113     1.007825032230

  Running in c2 symmetry.

  Rotational constants: A =      0.30592  B =      0.27809  C =      0.15396 [cm^-1]
  Rotational constants: A =   9171.25405  B =   8336.91665  C =   4615.53351 [MHz]
  Nuclear repulsion =  119.573049138203842

  Charge       = 0
  Multiplicity = 1
  Electrons    = 32
  Nalpha       = 16
  Nbeta        = 16

  ==> Algorithm <==

  SCF Algorithm Type is DF.
  DIIS enabled.
  MOM disabled.
  Fractional occupation disabled.
  Guess Type is SAD.
  Energy threshold   = 1.00e-10
  Density threshold  = 1.00e-10
  Integral threshold = 0.00e+00

  ==> Primary Basis <==

  Basis Set: ANONYMOUSCE8D4F14
    Blend: 6-31G_2DFP_
    Number of shells: 64
    Number of basis function: 168
    Number of Cartesian functions: 188
    Spherical Harmonics?: true
    Max angular momentum: 3

  ==> DFT Potential <==

   => Composite Functional: B3LYP <= 

    B3LYP Hyb-GGA Exchange-Correlation Functional

    P. J. Stephens, F. J. Devlin, C. F. Chabalowski, and M. J. Frisch, J. Phys. Chem. 98, 11623 (1994)

    Deriv               =              1
    GGA                 =           TRUE
    Meta                =          FALSE

    Exchange Hybrid     =           TRUE
    MP2 Hybrid          =          FALSE

   => Exchange Functionals <=

    0.0800   Slater exchange
    0.7200         Becke 88

   => Exact (HF) Exchange <=

    0.2000               HF 

   => Correlation Functionals <=

    0.1900   Vosko, Wilk & Nusair (VWN5_RPA)
    0.8100   Lee, Yang & Parr

   => Molecular Quadrature <=

    Radial Scheme          =       TREUTLER
    Pruning Scheme         =           NONE
    Nuclear Scheme         =       TREUTLER

    BS radius alpha        =              1
    Pruning alpha          =              1
    Radial Points          =             99
    Spherical Points       =           1202
    Total Points           =        1333413
    Total Blocks           =           8952
    Max Points             =            256
    Max Functions          =            168
    Weights Tolerance      =       1.00E-15

   => Loading Basis Set <=

    Name: (ANONYMOUSCE8D4F14 AUX)
    Role: JKFIT
    Keyword: DF_BASIS_SCF
    atoms 1-4  entry C          line   198 file /opt/psi/4/master/share/psi4/basis/def2-universal-jkfit.gbs 
    atoms 5-12 entry H          line    18 file /opt/psi/4/master/share/psi4/basis/def2-universal-jkfit.gbs 

  ==> Integral Setup <==

  DFHelper Memory: AOs need 0.100 GiB; user supplied 4.528 GiB. Using in-core AOs.

  ==> MemDFJK: Density-Fitted J/K Matrices <==

    J tasked:                   Yes
    K tasked:                   Yes
    wK tasked:                   No
    OpenMP threads:               4
    Memory [MiB]:              4636
    Algorithm:                 Core
    Schwarz Cutoff:           1E-12
    Mask sparsity (%):       1.2613
    Fitting Condition:        1E-10

   => Auxiliary Basis Set <=

  Basis Set: (ANONYMOUSCE8D4F14 AUX)
    Blend: DEF2-UNIVERSAL-JKFIT
    Number of shells: 148
    Number of basis function: 444
    Number of Cartesian functions: 516
    Spherical Harmonics?: true
    Max angular momentum: 4

  Cached 100.0% of DFT collocation blocks in 5.251 [GiB].

  Minimum eigenvalue in the overlap matrix is 7.9667437259E-04.
  Reciprocal condition number of the overlap matrix is 1.4249927645E-04.
    Using symmetric orthogonalization.

  ==> Pre-Iterations <==

  SCF Guess: Superposition of Atomic Densities via on-the-fly atomic UHF (no occupation information).

   -------------------------
    Irrep   Nso     Nmo    
   -------------------------
     A         86      86 
     B         82      82 
   -------------------------
    Total     168     168
   -------------------------

  ==> Iterations <==

                           Total Energy        Delta E     RMS |[F,P]|

   @DF-RKS iter SAD:  -156.51882017802075   -1.56519e+02   0.00000e+00 
   @DF-RKS iter   1:  -156.87748101985500   -3.58661e-01   6.82438e-03 DIIS
   @DF-RKS iter   2:  -156.78196642707834    9.55146e-02   7.49619e-03 DIIS
   @DF-RKS iter   3:  -157.23758711823808   -4.55621e-01   7.56706e-04 DIIS
   @DF-RKS iter   4:  -157.23950111196271   -1.91399e-03   5.61243e-04 DIIS
   @DF-RKS iter   5:  -157.24175769096107   -2.25658e-03   7.75604e-05 DIIS
   @DF-RKS iter   6:  -157.24180154476451   -4.38538e-05   2.24218e-05 DIIS
   @DF-RKS iter   7:  -157.24180498558175   -3.44082e-06   2.33536e-06 DIIS
   @DF-RKS iter   8:  -157.24180502385860   -3.82769e-08   3.23190e-07 DIIS
   @DF-RKS iter   9:  -157.24180502470674   -8.48132e-10   5.66345e-08 DIIS
   @DF-RKS iter  10:  -157.24180502472987   -2.31353e-11   8.10822e-09 DIIS
   @DF-RKS iter  11:  -157.24180502473061   -7.38964e-13   2.22863e-09 DIIS
   @DF-RKS iter  12:  -157.24180502473047    1.42109e-13   2.96564e-10 DIIS
   @DF-RKS iter  13:  -157.24180502473058   -1.13687e-13   2.78716e-11 DIIS
  Energy and wave function converged.


  ==> Post-Iterations <==

    Orbital Energies [Eh]
    ---------------------

    Doubly Occupied:                                                      

       1A    -10.185822     1B    -10.172024     2A    -10.171982  
       3A    -10.158292     4A     -0.800510     2B     -0.690067  
       5A     -0.674105     6A     -0.518771     3B     -0.448074  
       7A     -0.438803     4B     -0.428634     8A     -0.384004  
       5B     -0.367793     9A     -0.359545     6B     -0.334644  
       7B     -0.240174  

    Virtual:                                                              

       8B      0.028655    10A      0.082677    11A      0.127782  
       9B      0.139133    10B      0.143905    11B      0.157402  
      12A      0.164958    13A      0.179374    12B      0.209802  
      14A      0.210981    13B      0.290487    15A      0.337947  
      16A      0.396468    17A      0.418946    14B      0.425590  
      18A      0.447800    15B      0.452483    16B      0.477955  
      19A      0.488795    17B      0.503262    20A      0.512488  
      21A      0.556053    18B      0.572727    19B      0.582971  
      22A      0.605011    20B      0.615884    23A      0.617613  
      21B      0.619270    24A      0.634462    22B      0.659911  
      25A      0.681100    23B      0.683097    26A      0.686773  
      27A      0.706266    24B      0.732733    25B      0.817151  
      26B      0.872498    28A      0.883449    27B      0.900858  
      29A      0.908853    30A      0.935857    31A      0.982056  
      28B      0.998484    29B      1.014596    32A      1.030114  
      33A      1.035337    30B      1.064172    31B      1.128916  
      32B      1.180249    34A      1.183988    33B      1.194365  
      35A      1.215602    36A      1.276943    34B      1.281920  
      37A      1.302434    38A      1.334677    35B      1.339821  
      36B      1.358640    39A      1.382492    37B      1.422666  
      38B      1.438171    40A      1.438805    41A      1.453051  
      39B      1.504287    42A      1.541315    43A      1.549880  
      40B      1.562026    41B      1.598174    44A      1.616670  
      45A      1.700826    46A      1.739014    42B      1.781941  
      43B      1.837577    47A      1.844319    44B      1.928084  
      48A      1.977572    45B      2.044526    49A      2.140955  
      50A      2.297835    46B      2.353462    51A      2.717784  
      47B      2.732767    48B      2.816816    49B      2.843858  
      52A      2.864732    50B      2.925817    51B      2.926850  
      53A      2.947876    54A      2.952080    55A      2.985168  
      52B      3.000521    56A      3.000542    53B      3.014518  
      54B      3.068773    55B      3.103091    57A      3.119807  
      58A      3.140860    56B      3.159783    59A      3.208738  
      57B      3.211398    60A      3.248439    61A      3.303704  
      58B      3.361456    59B      3.394429    60B      3.444393  
      62A      3.447629    61B      3.466843    63A      3.485008  
      64A      3.504362    62B      3.562848    65A      3.612092  
      66A      3.629409    67A      3.664179    68A      3.712653  
      63B      3.718203    64B      3.732366    69A      3.836985  
      65B      3.841221    66B      3.942199    67B      3.953325  
      68B      4.008002    70A      4.066353    71A      4.140669  
      72A      4.149941    69B      4.154783    70B      4.174059  
      73A      4.180574    71B      4.223719    72B      4.242028  
      74A      4.242271    75A      4.285902    76A      4.387502  
      73B      4.408783    74B      4.419003    77A      4.448045  
      78A      4.468591    75B      4.514144    79A      4.540143  
      80A      4.650990    81A      4.689889    76B      4.706584  
      77B      4.770916    82A      4.846468    83A      4.972524  
      78B      4.975148    79B      5.133526    80B      5.224251  
      81B      5.252933    84A      5.262835    85A      5.358068  
      86A      5.388706    82B      5.594108  

    Final Occupation by Irrep:
              A     B 
    DOCC [     9,    7 ]

  @DF-RKS Final Energy:  -157.24180502473058

   => Energetics <=

    Nuclear Repulsion Energy =            119.5730491382038423
    One-Electron Energy =                -446.5030883364091210
    Two-Electron Energy =                 189.6831727929047133
    DFT Exchange-Correlation Energy =     -19.9949386194300089
    Empirical Dispersion Energy =           0.0000000000000000
    VV10 Nonlocal Energy =                  0.0000000000000000
    Total Energy =                       -157.2418050247305814

Computation Completed


Properties will be evaluated at   0.000000,   0.000000,   0.000000 [a0]

Properties computed using the SCF density matrix

  Nuclear Dipole Moment: [e a0]
     X:     0.0000      Y:     0.0000      Z:    -1.4203

  Electronic Dipole Moment: [e a0]
     X:     0.0000      Y:     0.0000      Z:     1.2218

  Dipole Moment: [e a0]
     X:     0.0000      Y:     0.0000      Z:    -0.1984     Total:     0.1984

  Dipole Moment: [D]
     X:     0.0000      Y:     0.0000      Z:    -0.5044     Total:     0.5044


*** tstop() called on n083 at Sun Nov 14 17:12:42 2021
Module time:
	user time   =      94.26 seconds =       1.57 minutes
	system time =       1.52 seconds =       0.03 minutes
	total time  =         25 seconds =       0.42 minutes
Total time:
	user time   =      94.26 seconds =       1.57 minutes
	system time =       1.52 seconds =       0.03 minutes
	total time  =         25 seconds =       0.42 minutes
Grab this energy -157.24180502473058
    Psi4 stopped on: Sunday, 14 November 2021 05:12PM
    Psi4 wall time for execution: 0:00:24.64

*** Psi4 exiting successfully. Buy a developer a beer!
