
    -----------------------------------------------------------------------
          Psi4: An Open-Source Ab Initio Electronic Structure Package
                               Psi4 1.4a2.dev629 

                         Git: Rev {master} 2938fc2 dirty


    D. G. A. Smith, L. A. Burns, A. C. Simmonett, R. M. Parrish,
    M. C. Schieber, R. Galvelis, P. Kraus, H. Kruse, R. Di Remigio,
    A. Alenaizan, A. M. James, S. Lehtola, J. P. Misiewicz, M. Scheurer,
    R. A. Shaw, J. B. Schriber, Y. Xie, Z. L. Glick, D. A. Sirianni,
    J. S. O'Brien, J. M. Waldrop, A. Kumar, E. G. Hohenstein,
    B. P. Pritchard, B. R. Brooks, H. F. Schaefer III, A. Yu. Sokolov,
    K. Patkowski, A. E. DePrince III, U. Bozkaya, R. A. King,
    F. A. Evangelista, J. M. Turney, T. D. Crawford, C. D. Sherrill,
    J. Chem. Phys. 152(18) 184108 (2020). https://doi.org/10.1063/5.0006002

                            Additional Code Authors
    E. T. Seidl, C. L. Janssen, E. F. Valeev, M. L. Leininger,
    J. F. Gonthier, R. M. Richard, H. R. McAlexander, M. Saitow, X. Wang,
    P. Verma, and M. H. Lechner

             Previous Authors, Complete List of Code Contributors,
                       and Citations for Specific Modules
    https://github.com/psi4/psi4/blob/master/codemeta.json
    https://github.com/psi4/psi4/graphs/contributors
    http://psicode.org/psi4manual/master/introduction.html#citing-psifour

    -----------------------------------------------------------------------


    Psi4 started on: Sunday, 14 November 2021 04:51PM

    Process ID: 28404
    Host:       n046
    PSIDATADIR: /opt/psi/4/master/share/psi4
    Memory:     500.0 MiB
    Threads:    4
    
  ==> Input File <==

--------------------------------------------------------------------------
import os
memory 14 GB 
 
molecule {
 C   -0.0000000000    0.0000000000    2.7192358240
 C   -0.0000000000    0.0000000000    0.1892214670
 C   -0.0002730302    2.4112889313   -1.3285664856
 C    0.0002730302   -2.4112889313   -1.3285664856
 H   -0.0012446911    1.7499898421    3.7773799876
 H    0.0012446911   -1.7499898421    3.7773799876
 H    0.0047034607    4.0701394158   -0.1079867730
 H    1.6568372690    2.4987861907   -2.5634301338
 H   -1.6643922528    2.5003326513   -2.5547568907
 H   -0.0047034607   -4.0701394158   -0.1079867730
 H   -1.6568372690   -2.4987861907   -2.5634301338
 H    1.6643922528   -2.5003326513   -2.5547568907
units bohr
}

basis {

assign 6-31g_2dfp_

[ 6-31g_2dfp_ ]

spherical

!----------------------------------------------------------------------
! Basis Set Exchange
! Version v0.8.13
! https://www.basissetexchange.org
!----------------------------------------------------------------------
!   Basis set: 6-31G(2df,p)
! Description: 6-31G(2df,p)
!        Role: orbital
!     Version: 0  (Data from the original Basis Set Exchange)
!----------------------------------------------------------------------


****
H     0
S    3   1.00
     18.7311370              0.03349460
      2.8253937              0.23472695
      0.6401217              0.81375733
S    1   1.00
      0.1612778              1.00000000
P    1   1.00
      1.5000000              1.0000000
P    1   1.00
      0.3750000              1.0000000
****
B     0
S    6   1.00
   2068.8823000              0.0018663
    310.6495700              0.0142515
     70.6830330              0.0695516
     19.8610800              0.2325729
      6.2993048              0.4670787
      2.1270270              0.3634314
SP   3   1.00
      4.7279710             -0.1303938              0.0745976
      1.1903377             -0.1307889              0.3078467
      0.3594117              1.1309444              0.7434568
SP   1   1.00
      0.1267512              1.0000000              1.0000000
D    1   1.00
      0.8020000              1.0000000
D    1   1.00
      0.2005000              1.0000000
F    1   1.00
      0.5000000              1.0000000
****
C     0
S    6   1.00
   3047.5249000              0.0018347
    457.3695100              0.0140373
    103.9486900              0.0688426
     29.2101550              0.2321844
      9.2866630              0.4679413
      3.1639270              0.3623120
SP   3   1.00
      7.8682724             -0.1193324              0.0689991
      1.8812885             -0.1608542              0.3164240
      0.5442493              1.1434564              0.7443083
SP   1   1.00
      0.1687144              1.0000000              1.0000000
D    1   1.00
      1.2520000              1.0000000
D    1   1.00
      0.3130000              1.0000000
F    1   1.00
      0.8000000              1.0000000
****
N     0
S    6   1.00
   4173.5110000              0.0018348
    627.4579000              0.0139950
    142.9021000              0.0685870
     40.2343300              0.2322410
     12.8202100              0.4690700
      4.3904370              0.3604550
SP   3   1.00
     11.6263580             -0.1149610              0.0675800
      2.7162800             -0.1691180              0.3239070
      0.7722180              1.1458520              0.7408950
SP   1   1.00
      0.2120313              1.0000000              1.0000000
D    1   1.00
      1.8260000              1.0000000
D    1   1.00
      0.4565000              1.0000000
F    1   1.00
      1.0000000              1.0000000
****
O     0
S    6   1.00
   5484.6717000              0.0018311
    825.2349500              0.0139501
    188.0469600              0.0684451
     52.9645000              0.2327143
     16.8975700              0.4701930
      5.7996353              0.3585209
SP   3   1.00
     15.5396160             -0.1107775              0.0708743
      3.5999336             -0.1480263              0.3397528
      1.0137618              1.1307670              0.7271586
SP   1   1.00
      0.2700058              1.0000000              1.0000000
D    1   1.00
      2.5840000              1.0000000
D    1   1.00
      0.6460000              1.0000000
F    1   1.00
      1.4000000              1.0000000
****
F     0
S    6   1.00
   7001.7130900              0.0018196169
   1051.3660900              0.0139160796
    239.2856900              0.0684053245
     67.3974453              0.233185760
     21.5199573              0.471267439
      7.40310130             0.356618546
SP   3   1.00
     20.8479528             -0.108506975            0.0716287243
      4.80830834            -0.146451658            0.3459121030
      1.34406986             1.128688580            0.7224699570
SP   1   1.00
      0.358151393            1.0000000              1.0000000
D    1   1.00
      3.5000000              1.0000000
D    1   1.00
      0.8750000              1.0000000
F    1   1.00
      1.8500000              1.0000000
****
Al     0
S    6   1.00
  13983.1000000              0.00194267
   2098.7500000              0.0148599
    477.7050000              0.0728494
    134.3600000              0.2468300
     42.8709000              0.4872580
     14.5189000              0.3234960
SP   6   1.00
    239.6680000             -0.00292619             0.00460285
     57.4419000             -0.0374080              0.0331990
     18.2859000             -0.1144870              0.1362820
      6.5991400              0.1156350              0.3304760
      2.4904900              0.6125950              0.4491460
      0.9445400              0.3937990              0.2657040
SP   3   1.00
      1.2779000             -0.2276060             -0.0175130
      0.3975900              0.00144583             0.2445330
      0.1600950              1.0927900              0.8049340
SP   1   1.00
      0.0556577              1.0000000              1.0000000
D    1   1.00
      0.6500000              1.0000000
D    1   1.00
      0.1625000              1.0000000
F    1   1.00
      0.2500000              1.0000000
****
Si     0
S    6   1.00
  16115.9000000              0.00195948
   2425.5800000              0.01492880
    553.8670000              0.07284780
    156.3400000              0.24613000
     50.0683000              0.48591400
     17.0178000              0.32500200
SP   6   1.00
    292.7180000             -0.00278094             0.00443826
     69.8731000             -0.03571460             0.03266790
     22.3363000             -0.11498500             0.13472100
      8.1503900              0.09356340             0.32867800
      3.1345800              0.60301700             0.44964000
      1.2254300              0.41895900             0.26137200
SP   3   1.00
      1.7273800             -0.24463000            -0.01779510
      0.5729220              0.00431572             0.25353900
      0.2221920              1.09818000             0.80066900
SP   1   1.00
      0.0778369              1.00000000             1.00000000
D    1   1.00
      0.9000000              1.0000000
D    1   1.00
      0.2250000              1.0000000
F    1   1.00
      0.3200000              1.0000000
****
P     0
S    6   1.00
  19413.3000000              0.0018516
   2909.4200000              0.0142062
    661.3640000              0.0699995
    185.7590000              0.2400790
     59.1943000              0.4847620
     20.0310000              0.3352000
SP   6   1.00
    339.4780000             -0.00278217             0.00456462
     81.0101000             -0.0360499              0.03369360
     25.8780000             -0.1166310              0.13975500
      9.4522100              0.0968328              0.33936200
      3.6656600              0.6144180              0.45092100
      1.4674600              0.4037980              0.23858600
SP   3   1.00
      2.1562300             -0.2529230             -0.01776530
      0.7489970              0.0328517              0.27405800
      0.2831450              1.0812500              0.78542100
SP   1   1.00
      0.0998317              1.0000000              1.00000000
D    1   1.00
      1.1000000              1.0000000
D    1   1.00
      0.2750000              1.0000000
F    1   1.00
      0.4500000              1.0000000
****
S     0
S    6   1.00
  21917.1000000              0.0018690
   3301.4900000              0.0142300
    754.1460000              0.0696960
    212.7110000              0.2384870
     67.9896000              0.4833070
     23.0515000              0.3380740
SP   6   1.00
    423.7350000             -0.0023767              0.0040610
    100.7100000             -0.0316930              0.0306810
     32.1599000             -0.1133170              0.1304520
     11.8079000              0.0560900              0.3272050
      4.6311000              0.5922550              0.4528510
      1.8702500              0.4550060              0.2560420
SP   3   1.00
      2.6158400             -0.2503740             -0.0145110
      0.9221670              0.0669570              0.3102630
      0.3412870              1.0545100              0.7544830
SP   1   1.00
      0.1171670              1.0000000              1.0000000
D    1   1.00
      1.3000000              1.0000000
D    1   1.00
      0.3250000              1.0000000
F    1   1.00
      0.5500000              1.0000000
****
Cl     0
S    6   1.00
  25180.1000000              0.0018330
   3780.3500000              0.0140340
    860.4740000              0.0690970
    242.1450000              0.2374520
     77.3349000              0.4830340
     26.2470000              0.3398560
SP   6   1.00
    491.7650000             -0.0022974              0.0039894
    116.9840000             -0.0307140              0.0303180
     37.4153000             -0.1125280              0.1298800
     13.7834000              0.0450160              0.3279510
      5.4521500              0.5893530              0.4535270
      2.2258800              0.4652060              0.2521540
SP   3   1.00
      3.1864900             -0.2518300             -0.0142990
      1.1442700              0.0615890              0.3235720
      0.4203770              1.0601800              0.7435070
SP   1   1.00
      0.1426570              1.0000000              1.0000000
D    1   1.00
      1.5000000              1.0000000
D    1   1.00
      0.3750000              1.0000000
F    1   1.00
      0.7000000              1.0000000
****
}


set {
reference rhf                          
freeze_core true
e_convergence 10                       
d_convergence 10                      
dft_spherical_points 1202
dft_radial_points 99
}

e = energy('b3lyp')

print_out('Grab this energy {0}'.format(e))
--------------------------------------------------------------------------

  Memory set to  13.039 GiB by Python driver.

Scratch directory: /tmp/

*** tstart() called on n046
*** at Sun Nov 14 16:51:03 2021

   => Loading Basis Set <=

    Name: ANONYMOUS86EDC51A
    Role: ORBITAL
    Keyword: BASIS
    atoms 1-4  entry C          line    48 inputblock 6-31g_2dfp_ 
    atoms 5-12 entry H          line    15 inputblock 6-31g_2dfp_ 


         ---------------------------------------------------------
                                   SCF
               by Justin Turney, Rob Parrish, Andy Simmonett
                          and Daniel G. A. Smith
                              RKS Reference
                        4 Threads,  13351 MiB Core
         ---------------------------------------------------------

  ==> Geometry <==

    Molecular point group: c2
    Full point group: C2

    Geometry (in Bohr), charge = 0, multiplicity = 1:

       Center              X                  Y                   Z               Mass       
    ------------   -----------------  -----------------  -----------------  -----------------
         C            0.000000000000     0.000000000000     2.717530043304    12.000000000000
         C            0.000000000000     0.000000000000     0.187515686304    12.000000000000
         C           -0.000273030200     2.411288931300    -1.330272266296    12.000000000000
         C            0.000273030200    -2.411288931300    -1.330272266296    12.000000000000
         H           -0.001244691100     1.749989842100     3.775674206904     1.007825032230
         H            0.001244691100    -1.749989842100     3.775674206904     1.007825032230
         H            0.004703460700     4.070139415800    -0.109692553696     1.007825032230
         H            1.656837269000     2.498786190700    -2.565135914496     1.007825032230
         H           -1.664392252800     2.500332651300    -2.556462671396     1.007825032230
         H           -0.004703460700    -4.070139415800    -0.109692553696     1.007825032230
         H           -1.656837269000    -2.498786190700    -2.565135914496     1.007825032230
         H            1.664392252800    -2.500332651300    -2.556462671396     1.007825032230

  Running in c2 symmetry.

  Rotational constants: A =      0.30431  B =      0.27946  C =      0.15396 [cm^-1]
  Rotational constants: A =   9122.94361  B =   8378.11119  C =   4615.68355 [MHz]
  Nuclear repulsion =  119.575753713051398

  Charge       = 0
  Multiplicity = 1
  Electrons    = 32
  Nalpha       = 16
  Nbeta        = 16

  ==> Algorithm <==

  SCF Algorithm Type is DF.
  DIIS enabled.
  MOM disabled.
  Fractional occupation disabled.
  Guess Type is SAD.
  Energy threshold   = 1.00e-10
  Density threshold  = 1.00e-10
  Integral threshold = 0.00e+00

  ==> Primary Basis <==

  Basis Set: ANONYMOUS86EDC51A
    Blend: 6-31G_2DFP_
    Number of shells: 64
    Number of basis function: 168
    Number of Cartesian functions: 188
    Spherical Harmonics?: true
    Max angular momentum: 3

  ==> DFT Potential <==

   => Composite Functional: B3LYP <= 

    B3LYP Hyb-GGA Exchange-Correlation Functional

    P. J. Stephens, F. J. Devlin, C. F. Chabalowski, and M. J. Frisch, J. Phys. Chem. 98, 11623 (1994)

    Deriv               =              1
    GGA                 =           TRUE
    Meta                =          FALSE

    Exchange Hybrid     =           TRUE
    MP2 Hybrid          =          FALSE

   => Exchange Functionals <=

    0.0800   Slater exchange
    0.7200         Becke 88

   => Exact (HF) Exchange <=

    0.2000               HF 

   => Correlation Functionals <=

    0.1900   Vosko, Wilk & Nusair (VWN5_RPA)
    0.8100   Lee, Yang & Parr

   => Molecular Quadrature <=

    Radial Scheme          =       TREUTLER
    Pruning Scheme         =           NONE
    Nuclear Scheme         =       TREUTLER

    BS radius alpha        =              1
    Pruning alpha          =              1
    Radial Points          =             99
    Spherical Points       =           1202
    Total Points           =        1333387
    Total Blocks           =           8937
    Max Points             =            256
    Max Functions          =            168
    Weights Tolerance      =       1.00E-15

   => Loading Basis Set <=

    Name: (ANONYMOUS86EDC51A AUX)
    Role: JKFIT
    Keyword: DF_BASIS_SCF
    atoms 1-4  entry C          line   198 file /opt/psi/4/master/share/psi4/basis/def2-universal-jkfit.gbs 
    atoms 5-12 entry H          line    18 file /opt/psi/4/master/share/psi4/basis/def2-universal-jkfit.gbs 

  ==> Integral Setup <==

  DFHelper Memory: AOs need 0.100 GiB; user supplied 4.528 GiB. Using in-core AOs.

  ==> MemDFJK: Density-Fitted J/K Matrices <==

    J tasked:                   Yes
    K tasked:                   Yes
    wK tasked:                   No
    OpenMP threads:               4
    Memory [MiB]:              4637
    Algorithm:                 Core
    Schwarz Cutoff:           1E-12
    Mask sparsity (%):       1.2755
    Fitting Condition:        1E-10

   => Auxiliary Basis Set <=

  Basis Set: (ANONYMOUS86EDC51A AUX)
    Blend: DEF2-UNIVERSAL-JKFIT
    Number of shells: 148
    Number of basis function: 444
    Number of Cartesian functions: 516
    Spherical Harmonics?: true
    Max angular momentum: 4

  Cached 100.0% of DFT collocation blocks in 5.251 [GiB].

  Minimum eigenvalue in the overlap matrix is 7.9717553041E-04.
  Reciprocal condition number of the overlap matrix is 1.4258215492E-04.
    Using symmetric orthogonalization.

  ==> Pre-Iterations <==

  SCF Guess: Superposition of Atomic Densities via on-the-fly atomic UHF (no occupation information).

   -------------------------
    Irrep   Nso     Nmo    
   -------------------------
     A         86      86 
     B         82      82 
   -------------------------
    Total     168     168
   -------------------------

  ==> Iterations <==

                           Total Energy        Delta E     RMS |[F,P]|

   @DF-RKS iter SAD:  -156.51854055804785   -1.56519e+02   0.00000e+00 
   @DF-RKS iter   1:  -156.87765263542482   -3.59112e-01   6.82339e-03 DIIS
   @DF-RKS iter   2:  -156.78311231912744    9.45403e-02   7.48750e-03 DIIS
   @DF-RKS iter   3:  -157.23760776090828   -4.54495e-01   7.54676e-04 DIIS
   @DF-RKS iter   4:  -157.23950408309912   -1.89632e-03   5.60738e-04 DIIS
   @DF-RKS iter   5:  -157.24175831510613   -2.25423e-03   7.64871e-05 DIIS
   @DF-RKS iter   6:  -157.24180088693316   -4.25718e-05   2.24903e-05 DIIS
   @DF-RKS iter   7:  -157.24180435026878   -3.46334e-06   2.35653e-06 DIIS
   @DF-RKS iter   8:  -157.24180438921653   -3.89477e-08   3.25764e-07 DIIS
   @DF-RKS iter   9:  -157.24180439007475   -8.58222e-10   5.78494e-08 DIIS
   @DF-RKS iter  10:  -157.24180439009888   -2.41300e-11   8.15101e-09 DIIS
   @DF-RKS iter  11:  -157.24180439009959   -7.10543e-13   2.22589e-09 DIIS
   @DF-RKS iter  12:  -157.24180439009959    0.00000e+00   2.97496e-10 DIIS
   @DF-RKS iter  13:  -157.24180439009967   -8.52651e-14   2.75616e-11 DIIS
  Energy and wave function converged.


  ==> Post-Iterations <==

    Orbital Energies [Eh]
    ---------------------

    Doubly Occupied:                                                      

       1A    -10.185933     1B    -10.171905     2A    -10.171862  
       3A    -10.158295     4A     -0.800427     2B     -0.689669  
       5A     -0.674688     6A     -0.518843     3B     -0.448192  
       7A     -0.439058     4B     -0.428533     8A     -0.383539  
       5B     -0.368085     9A     -0.360255     6B     -0.334085  
       7B     -0.240350  

    Virtual:                                                              

       8B      0.028481    10A      0.082710    11A      0.127755  
       9B      0.139410    10B      0.144081    11B      0.157356  
      12A      0.165301    13A      0.179648    12B      0.209848  
      14A      0.210987    13B      0.290505    15A      0.336669  
      16A      0.396209    17A      0.420112    14B      0.425290  
      18A      0.448319    15B      0.452261    16B      0.477897  
      19A      0.487791    17B      0.503906    20A      0.511824  
      21A      0.555865    18B      0.572505    19B      0.582598  
      22A      0.605943    20B      0.616016    23A      0.618821  
      21B      0.619086    24A      0.634717    22B      0.660185  
      25A      0.681307    23B      0.683385    26A      0.687005  
      27A      0.706081    24B      0.732331    25B      0.816319  
      26B      0.873806    28A      0.883589    27B      0.900430  
      29A      0.909038    30A      0.937299    31A      0.983111  
      28B      0.998263    29B      1.014995    32A      1.028760  
      33A      1.035070    30B      1.064435    31B      1.128641  
      32B      1.180069    34A      1.184610    33B      1.193812  
      35A      1.215128    36A      1.275905    34B      1.282950  
      37A      1.302852    38A      1.336448    35B      1.341002  
      36B      1.358183    39A      1.382366    37B      1.422813  
      38B      1.437638    40A      1.439642    41A      1.451285  
      39B      1.503407    42A      1.541151    43A      1.550582  
      40B      1.561728    41B      1.603876    44A      1.615847  
      45A      1.701264    46A      1.738802    42B      1.781883  
      43B      1.838140    47A      1.846206    44B      1.925334  
      48A      1.979342    45B      2.046302    49A      2.135928  
      50A      2.298989    46B      2.356119    51A      2.717120  
      47B      2.732770    48B      2.817057    49B      2.844249  
      52A      2.865093    50B      2.926237    51B      2.928712  
      53A      2.948616    54A      2.949427    55A      2.985229  
      52B      3.000277    56A      3.002535    53B      3.014541  
      54B      3.069109    55B      3.101951    57A      3.117985  
      58A      3.140198    56B      3.159608    59A      3.207708  
      57B      3.213835    60A      3.248256    61A      3.306760  
      58B      3.361942    59B      3.393945    60B      3.441301  
      62A      3.447359    61B      3.466962    63A      3.487770  
      64A      3.504374    62B      3.560573    65A      3.611545  
      66A      3.628515    67A      3.665614    68A      3.712386  
      63B      3.715777    64B      3.730894    69A      3.838850  
      65B      3.841111    66B      3.943463    67B      3.953285  
      68B      4.007912    70A      4.063768    71A      4.142088  
      72A      4.146929    69B      4.157602    70B      4.174607  
      73A      4.180680    71B      4.223541    72B      4.242031  
      74A      4.243501    75A      4.286640    76A      4.388434  
      73B      4.407498    74B      4.420391    77A      4.445529  
      78A      4.465324    75B      4.517441    79A      4.544546  
      80A      4.652735    81A      4.691599    76B      4.704708  
      77B      4.771744    82A      4.843813    83A      4.973018  
      78B      4.975285    79B      5.134602    80B      5.224874  
      81B      5.254008    84A      5.262599    85A      5.358186  
      86A      5.389285    82B      5.595901  

    Final Occupation by Irrep:
              A     B 
    DOCC [     9,    7 ]

  @DF-RKS Final Energy:  -157.24180439009967

   => Energetics <=

    Nuclear Repulsion Energy =            119.5757537130513981
    One-Electron Energy =                -446.5071518231775372
    Two-Electron Energy =                 189.6850959695553342
    DFT Exchange-Correlation Energy =     -19.9955022495288830
    Empirical Dispersion Energy =           0.0000000000000000
    VV10 Nonlocal Energy =                  0.0000000000000000
    Total Energy =                       -157.2418043900996736

Computation Completed


Properties will be evaluated at   0.000000,   0.000000,   0.000000 [a0]

Properties computed using the SCF density matrix

  Nuclear Dipole Moment: [e a0]
     X:     0.0000      Y:     0.0000      Z:    -1.4442

  Electronic Dipole Moment: [e a0]
     X:     0.0000      Y:     0.0000      Z:     1.2462

  Dipole Moment: [e a0]
     X:     0.0000      Y:     0.0000      Z:    -0.1980     Total:     0.1980

  Dipole Moment: [D]
     X:     0.0000      Y:     0.0000      Z:    -0.5034     Total:     0.5034


*** tstop() called on n046 at Sun Nov 14 16:51:30 2021
Module time:
	user time   =     103.09 seconds =       1.72 minutes
	system time =       1.59 seconds =       0.03 minutes
	total time  =         27 seconds =       0.45 minutes
Total time:
	user time   =     103.09 seconds =       1.72 minutes
	system time =       1.59 seconds =       0.03 minutes
	total time  =         27 seconds =       0.45 minutes
Grab this energy -157.24180439009967
    Psi4 stopped on: Sunday, 14 November 2021 04:51PM
    Psi4 wall time for execution: 0:00:26.92

*** Psi4 exiting successfully. Buy a developer a beer!
