
    -----------------------------------------------------------------------
          Psi4: An Open-Source Ab Initio Electronic Structure Package
                               Psi4 1.4a2.dev629 

                         Git: Rev {master} 2938fc2 dirty


    D. G. A. Smith, L. A. Burns, A. C. Simmonett, R. M. Parrish,
    M. C. Schieber, R. Galvelis, P. Kraus, H. Kruse, R. Di Remigio,
    A. Alenaizan, A. M. James, S. Lehtola, J. P. Misiewicz, M. Scheurer,
    R. A. Shaw, J. B. Schriber, Y. Xie, Z. L. Glick, D. A. Sirianni,
    J. S. O'Brien, J. M. Waldrop, A. Kumar, E. G. Hohenstein,
    B. P. Pritchard, B. R. Brooks, H. F. Schaefer III, A. Yu. Sokolov,
    K. Patkowski, A. E. DePrince III, U. Bozkaya, R. A. King,
    F. A. Evangelista, J. M. Turney, T. D. Crawford, C. D. Sherrill,
    J. Chem. Phys. 152(18) 184108 (2020). https://doi.org/10.1063/5.0006002

                            Additional Code Authors
    E. T. Seidl, C. L. Janssen, E. F. Valeev, M. L. Leininger,
    J. F. Gonthier, R. M. Richard, H. R. McAlexander, M. Saitow, X. Wang,
    P. Verma, and M. H. Lechner

             Previous Authors, Complete List of Code Contributors,
                       and Citations for Specific Modules
    https://github.com/psi4/psi4/blob/master/codemeta.json
    https://github.com/psi4/psi4/graphs/contributors
    http://psicode.org/psi4manual/master/introduction.html#citing-psifour

    -----------------------------------------------------------------------


    Psi4 started on: Sunday, 14 November 2021 04:37PM

    Process ID: 23844
    Host:       n084
    PSIDATADIR: /opt/psi/4/master/share/psi4
    Memory:     500.0 MiB
    Threads:    4
    
  ==> Input File <==

--------------------------------------------------------------------------
import os
memory 14 GB 
 
molecule {
 C   -0.0000000000    0.0047167588    2.7164644905
 C    0.0000000001    0.0022301435    0.1842712580
 C    0.0000000098    2.4077203165   -1.3270099577
 C   -0.0000000096   -2.4102065966   -1.3297792980
 H   -0.0000000001    1.7535378053    3.7878593032
 H   -0.0000000001   -1.7475583273    3.7707697393
 H    0.0000000101    4.0706504974   -0.1078333921
 H    1.6608680772    2.4975290864   -2.5559599011
 H   -1.6608683371    2.4975288357   -2.5559597811
 H   -0.0000000102   -4.0723051536   -0.1090172676
 H   -1.6613975564   -2.5019218078   -2.5600343066
 H    1.6613978164   -2.5019215583   -2.5600341868
units bohr
}

basis {

assign 6-31g_2dfp_

[ 6-31g_2dfp_ ]

spherical

!----------------------------------------------------------------------
! Basis Set Exchange
! Version v0.8.13
! https://www.basissetexchange.org
!----------------------------------------------------------------------
!   Basis set: 6-31G(2df,p)
! Description: 6-31G(2df,p)
!        Role: orbital
!     Version: 0  (Data from the original Basis Set Exchange)
!----------------------------------------------------------------------


****
H     0
S    3   1.00
     18.7311370              0.03349460
      2.8253937              0.23472695
      0.6401217              0.81375733
S    1   1.00
      0.1612778              1.00000000
P    1   1.00
      1.5000000              1.0000000
P    1   1.00
      0.3750000              1.0000000
****
B     0
S    6   1.00
   2068.8823000              0.0018663
    310.6495700              0.0142515
     70.6830330              0.0695516
     19.8610800              0.2325729
      6.2993048              0.4670787
      2.1270270              0.3634314
SP   3   1.00
      4.7279710             -0.1303938              0.0745976
      1.1903377             -0.1307889              0.3078467
      0.3594117              1.1309444              0.7434568
SP   1   1.00
      0.1267512              1.0000000              1.0000000
D    1   1.00
      0.8020000              1.0000000
D    1   1.00
      0.2005000              1.0000000
F    1   1.00
      0.5000000              1.0000000
****
C     0
S    6   1.00
   3047.5249000              0.0018347
    457.3695100              0.0140373
    103.9486900              0.0688426
     29.2101550              0.2321844
      9.2866630              0.4679413
      3.1639270              0.3623120
SP   3   1.00
      7.8682724             -0.1193324              0.0689991
      1.8812885             -0.1608542              0.3164240
      0.5442493              1.1434564              0.7443083
SP   1   1.00
      0.1687144              1.0000000              1.0000000
D    1   1.00
      1.2520000              1.0000000
D    1   1.00
      0.3130000              1.0000000
F    1   1.00
      0.8000000              1.0000000
****
N     0
S    6   1.00
   4173.5110000              0.0018348
    627.4579000              0.0139950
    142.9021000              0.0685870
     40.2343300              0.2322410
     12.8202100              0.4690700
      4.3904370              0.3604550
SP   3   1.00
     11.6263580             -0.1149610              0.0675800
      2.7162800             -0.1691180              0.3239070
      0.7722180              1.1458520              0.7408950
SP   1   1.00
      0.2120313              1.0000000              1.0000000
D    1   1.00
      1.8260000              1.0000000
D    1   1.00
      0.4565000              1.0000000
F    1   1.00
      1.0000000              1.0000000
****
O     0
S    6   1.00
   5484.6717000              0.0018311
    825.2349500              0.0139501
    188.0469600              0.0684451
     52.9645000              0.2327143
     16.8975700              0.4701930
      5.7996353              0.3585209
SP   3   1.00
     15.5396160             -0.1107775              0.0708743
      3.5999336             -0.1480263              0.3397528
      1.0137618              1.1307670              0.7271586
SP   1   1.00
      0.2700058              1.0000000              1.0000000
D    1   1.00
      2.5840000              1.0000000
D    1   1.00
      0.6460000              1.0000000
F    1   1.00
      1.4000000              1.0000000
****
F     0
S    6   1.00
   7001.7130900              0.0018196169
   1051.3660900              0.0139160796
    239.2856900              0.0684053245
     67.3974453              0.233185760
     21.5199573              0.471267439
      7.40310130             0.356618546
SP   3   1.00
     20.8479528             -0.108506975            0.0716287243
      4.80830834            -0.146451658            0.3459121030
      1.34406986             1.128688580            0.7224699570
SP   1   1.00
      0.358151393            1.0000000              1.0000000
D    1   1.00
      3.5000000              1.0000000
D    1   1.00
      0.8750000              1.0000000
F    1   1.00
      1.8500000              1.0000000
****
Al     0
S    6   1.00
  13983.1000000              0.00194267
   2098.7500000              0.0148599
    477.7050000              0.0728494
    134.3600000              0.2468300
     42.8709000              0.4872580
     14.5189000              0.3234960
SP   6   1.00
    239.6680000             -0.00292619             0.00460285
     57.4419000             -0.0374080              0.0331990
     18.2859000             -0.1144870              0.1362820
      6.5991400              0.1156350              0.3304760
      2.4904900              0.6125950              0.4491460
      0.9445400              0.3937990              0.2657040
SP   3   1.00
      1.2779000             -0.2276060             -0.0175130
      0.3975900              0.00144583             0.2445330
      0.1600950              1.0927900              0.8049340
SP   1   1.00
      0.0556577              1.0000000              1.0000000
D    1   1.00
      0.6500000              1.0000000
D    1   1.00
      0.1625000              1.0000000
F    1   1.00
      0.2500000              1.0000000
****
Si     0
S    6   1.00
  16115.9000000              0.00195948
   2425.5800000              0.01492880
    553.8670000              0.07284780
    156.3400000              0.24613000
     50.0683000              0.48591400
     17.0178000              0.32500200
SP   6   1.00
    292.7180000             -0.00278094             0.00443826
     69.8731000             -0.03571460             0.03266790
     22.3363000             -0.11498500             0.13472100
      8.1503900              0.09356340             0.32867800
      3.1345800              0.60301700             0.44964000
      1.2254300              0.41895900             0.26137200
SP   3   1.00
      1.7273800             -0.24463000            -0.01779510
      0.5729220              0.00431572             0.25353900
      0.2221920              1.09818000             0.80066900
SP   1   1.00
      0.0778369              1.00000000             1.00000000
D    1   1.00
      0.9000000              1.0000000
D    1   1.00
      0.2250000              1.0000000
F    1   1.00
      0.3200000              1.0000000
****
P     0
S    6   1.00
  19413.3000000              0.0018516
   2909.4200000              0.0142062
    661.3640000              0.0699995
    185.7590000              0.2400790
     59.1943000              0.4847620
     20.0310000              0.3352000
SP   6   1.00
    339.4780000             -0.00278217             0.00456462
     81.0101000             -0.0360499              0.03369360
     25.8780000             -0.1166310              0.13975500
      9.4522100              0.0968328              0.33936200
      3.6656600              0.6144180              0.45092100
      1.4674600              0.4037980              0.23858600
SP   3   1.00
      2.1562300             -0.2529230             -0.01776530
      0.7489970              0.0328517              0.27405800
      0.2831450              1.0812500              0.78542100
SP   1   1.00
      0.0998317              1.0000000              1.00000000
D    1   1.00
      1.1000000              1.0000000
D    1   1.00
      0.2750000              1.0000000
F    1   1.00
      0.4500000              1.0000000
****
S     0
S    6   1.00
  21917.1000000              0.0018690
   3301.4900000              0.0142300
    754.1460000              0.0696960
    212.7110000              0.2384870
     67.9896000              0.4833070
     23.0515000              0.3380740
SP   6   1.00
    423.7350000             -0.0023767              0.0040610
    100.7100000             -0.0316930              0.0306810
     32.1599000             -0.1133170              0.1304520
     11.8079000              0.0560900              0.3272050
      4.6311000              0.5922550              0.4528510
      1.8702500              0.4550060              0.2560420
SP   3   1.00
      2.6158400             -0.2503740             -0.0145110
      0.9221670              0.0669570              0.3102630
      0.3412870              1.0545100              0.7544830
SP   1   1.00
      0.1171670              1.0000000              1.0000000
D    1   1.00
      1.3000000              1.0000000
D    1   1.00
      0.3250000              1.0000000
F    1   1.00
      0.5500000              1.0000000
****
Cl     0
S    6   1.00
  25180.1000000              0.0018330
   3780.3500000              0.0140340
    860.4740000              0.0690970
    242.1450000              0.2374520
     77.3349000              0.4830340
     26.2470000              0.3398560
SP   6   1.00
    491.7650000             -0.0022974              0.0039894
    116.9840000             -0.0307140              0.0303180
     37.4153000             -0.1125280              0.1298800
     13.7834000              0.0450160              0.3279510
      5.4521500              0.5893530              0.4535270
      2.2258800              0.4652060              0.2521540
SP   3   1.00
      3.1864900             -0.2518300             -0.0142990
      1.1442700              0.0615890              0.3235720
      0.4203770              1.0601800              0.7435070
SP   1   1.00
      0.1426570              1.0000000              1.0000000
D    1   1.00
      1.5000000              1.0000000
D    1   1.00
      0.3750000              1.0000000
F    1   1.00
      0.7000000              1.0000000
****
}


set {
reference rhf                          
freeze_core true
e_convergence 10                       
d_convergence 10                      
dft_spherical_points 1202
dft_radial_points 99
}

e = energy('b3lyp')

print_out('Grab this energy {0}'.format(e))
--------------------------------------------------------------------------

  Memory set to  13.039 GiB by Python driver.

Scratch directory: /tmp/

*** tstart() called on n084
*** at Sun Nov 14 16:37:17 2021

   => Loading Basis Set <=

    Name: ANONYMOUS176C9099
    Role: ORBITAL
    Keyword: BASIS
    atoms 1-4  entry C          line    48 inputblock 6-31g_2dfp_ 
    atoms 5-12 entry H          line    15 inputblock 6-31g_2dfp_ 


         ---------------------------------------------------------
                                   SCF
               by Justin Turney, Rob Parrish, Andy Simmonett
                          and Daniel G. A. Smith
                              RKS Reference
                        4 Threads,  13351 MiB Core
         ---------------------------------------------------------

  ==> Geometry <==

    Molecular point group: c1
    Full point group: C1

    Geometry (in Bohr), charge = 0, multiplicity = 1:

       Center              X                  Y                   Z               Mass       
    ------------   -----------------  -----------------  -----------------  -----------------
         C           -0.000000000061     0.003842166122     2.716205277835    12.000000000000
         C            0.000000000039     0.001355550822     0.184012045335    12.000000000000
         C            0.000000009739     2.406845723822    -1.327269170365    12.000000000000
         C           -0.000000009661    -2.411081189278    -1.330038510665    12.000000000000
         H           -0.000000000161     1.752663212622     3.787600090535     1.007825032230
         H           -0.000000000161    -1.748432919978     3.770510526635     1.007825032230
         H            0.000000010039     4.069775904722    -0.108092604765     1.007825032230
         H            1.660868077139     2.496654493722    -2.556219113765     1.007825032230
         H           -1.660868337161     2.496654243022    -2.556218993765     1.007825032230
         H           -0.000000010261    -4.073179746278    -0.109276480265     1.007825032230
         H           -1.661397556461    -2.502796400478    -2.560293519265     1.007825032230
         H            1.661397816339    -2.502796150978    -2.560293399465     1.007825032230

  Running in c1 symmetry.

  Rotational constants: A =      0.30463  B =      0.27976  C =      0.15414 [cm^-1]
  Rotational constants: A =   9132.54346  B =   8386.84754  C =   4620.95456 [MHz]
  Nuclear repulsion =  119.611606317703249

  Charge       = 0
  Multiplicity = 1
  Electrons    = 32
  Nalpha       = 16
  Nbeta        = 16

  ==> Algorithm <==

  SCF Algorithm Type is DF.
  DIIS enabled.
  MOM disabled.
  Fractional occupation disabled.
  Guess Type is SAD.
  Energy threshold   = 1.00e-10
  Density threshold  = 1.00e-10
  Integral threshold = 0.00e+00

  ==> Primary Basis <==

  Basis Set: ANONYMOUS176C9099
    Blend: 6-31G_2DFP_
    Number of shells: 64
    Number of basis function: 168
    Number of Cartesian functions: 188
    Spherical Harmonics?: true
    Max angular momentum: 3

  ==> DFT Potential <==

   => Composite Functional: B3LYP <= 

    B3LYP Hyb-GGA Exchange-Correlation Functional

    P. J. Stephens, F. J. Devlin, C. F. Chabalowski, and M. J. Frisch, J. Phys. Chem. 98, 11623 (1994)

    Deriv               =              1
    GGA                 =           TRUE
    Meta                =          FALSE

    Exchange Hybrid     =           TRUE
    MP2 Hybrid          =          FALSE

   => Exchange Functionals <=

    0.0800   Slater exchange
    0.7200         Becke 88

   => Exact (HF) Exchange <=

    0.2000               HF 

   => Correlation Functionals <=

    0.1900   Vosko, Wilk & Nusair (VWN5_RPA)
    0.8100   Lee, Yang & Parr

   => Molecular Quadrature <=

    Radial Scheme          =       TREUTLER
    Pruning Scheme         =           NONE
    Nuclear Scheme         =       TREUTLER

    BS radius alpha        =              1
    Pruning alpha          =              1
    Radial Points          =             99
    Spherical Points       =           1202
    Total Points           =        1333312
    Total Blocks           =           8910
    Max Points             =            256
    Max Functions          =            168
    Weights Tolerance      =       1.00E-15

   => Loading Basis Set <=

    Name: (ANONYMOUS176C9099 AUX)
    Role: JKFIT
    Keyword: DF_BASIS_SCF
    atoms 1-4  entry C          line   198 file /opt/psi/4/master/share/psi4/basis/def2-universal-jkfit.gbs 
    atoms 5-12 entry H          line    18 file /opt/psi/4/master/share/psi4/basis/def2-universal-jkfit.gbs 

  ==> Integral Setup <==

  DFHelper Memory: AOs need 0.100 GiB; user supplied 4.528 GiB. Using in-core AOs.

  ==> MemDFJK: Density-Fitted J/K Matrices <==

    J tasked:                   Yes
    K tasked:                   Yes
    wK tasked:                   No
    OpenMP threads:               4
    Memory [MiB]:              4636
    Algorithm:                 Core
    Schwarz Cutoff:           1E-12
    Mask sparsity (%):       1.2755
    Fitting Condition:        1E-10

   => Auxiliary Basis Set <=

  Basis Set: (ANONYMOUS176C9099 AUX)
    Blend: DEF2-UNIVERSAL-JKFIT
    Number of shells: 148
    Number of basis function: 444
    Number of Cartesian functions: 516
    Spherical Harmonics?: true
    Max angular momentum: 4

  Cached 100.0% of DFT collocation blocks in 5.251 [GiB].

  Minimum eigenvalue in the overlap matrix is 7.9763495123E-04.
  Reciprocal condition number of the overlap matrix is 1.3611497650E-04.
    Using symmetric orthogonalization.

  ==> Pre-Iterations <==

  SCF Guess: Superposition of Atomic Densities via on-the-fly atomic UHF (no occupation information).

   -------------------------
    Irrep   Nso     Nmo    
   -------------------------
     A        168     168 
   -------------------------
    Total     168     168
   -------------------------

  ==> Iterations <==

                           Total Energy        Delta E     RMS |[F,P]|

   @DF-RKS iter SAD:  -156.52083309113809   -1.56521e+02   0.00000e+00 
   @DF-RKS iter   1:  -156.87721611907929   -3.56383e-01   4.82821e-03 DIIS
   @DF-RKS iter   2:  -156.78026207996822    9.69540e-02   5.31169e-03 DIIS
   @DF-RKS iter   3:  -157.23744394286288   -4.57182e-01   5.44396e-04 DIIS
   @DF-RKS iter   4:  -157.23947690767147   -2.03296e-03   3.98963e-04 DIIS
   @DF-RKS iter   5:  -157.24175840662514   -2.28150e-03   5.50571e-05 DIIS
   @DF-RKS iter   6:  -157.24180256217466   -4.41555e-05   1.58947e-05 DIIS
   @DF-RKS iter   7:  -157.24180601525606   -3.45308e-06   1.66234e-06 DIIS
   @DF-RKS iter   8:  -157.24180605400028   -3.87442e-08   2.33789e-07 DIIS
   @DF-RKS iter   9:  -157.24180605487643   -8.76156e-10   4.61223e-08 DIIS
   @DF-RKS iter  10:  -157.24180605490511   -2.86775e-11   1.36757e-08 DIIS
   @DF-RKS iter  11:  -157.24180605490761   -2.50111e-12   4.63039e-09 DIIS
   @DF-RKS iter  12:  -157.24180605490818   -5.68434e-13   9.19962e-10 DIIS
   @DF-RKS iter  13:  -157.24180605490810    8.52651e-14   1.21614e-10 DIIS
   @DF-RKS iter  14:  -157.24180605490790    1.98952e-13   1.10331e-11 DIIS
  Energy and wave function converged.


  ==> Post-Iterations <==

    Orbital Energies [Eh]
    ---------------------

    Doubly Occupied:                                                      

       1A    -10.185858     2A    -10.172188     3A    -10.171635  
       4A    -10.158643     5A     -0.800819     6A     -0.689834  
       7A     -0.674361     8A     -0.518984     9A     -0.447876  
      10A     -0.439138    11A     -0.428920    12A     -0.383714  
      13A     -0.367544    14A     -0.359864    15A     -0.334668  
      16A     -0.240051  

    Virtual:                                                              

      17A      0.028204    18A      0.082653    19A      0.127538  
      20A      0.139310    21A      0.144056    22A      0.157475  
      23A      0.164643    24A      0.179606    25A      0.209515  
      26A      0.211638    27A      0.290845    28A      0.337204  
      29A      0.396021    30A      0.420105    31A      0.425336  
      32A      0.448063    33A      0.451886    34A      0.478200  
      35A      0.488083    36A      0.504044    37A      0.511538  
      38A      0.555938    39A      0.572706    40A      0.582818  
      41A      0.605698    42A      0.615716    43A      0.618601  
      44A      0.618805    45A      0.634741    46A      0.659748  
      47A      0.681239    48A      0.683258    49A      0.687110  
      50A      0.705902    51A      0.731963    52A      0.816280  
      53A      0.873602    54A      0.883548    55A      0.900647  
      56A      0.908594    57A      0.937275    58A      0.983803  
      59A      0.998624    60A      1.014608    61A      1.028464  
      62A      1.034985    63A      1.065085    64A      1.128677  
      65A      1.180322    66A      1.183551    67A      1.193982  
      68A      1.214933    69A      1.276790    70A      1.282321  
      71A      1.303322    72A      1.335994    73A      1.341756  
      74A      1.359381    75A      1.382461    76A      1.422656  
      77A      1.437399    78A      1.438983    79A      1.451074  
      80A      1.503509    81A      1.540669    82A      1.550489  
      83A      1.561247    84A      1.603219    85A      1.615285  
      86A      1.700005    87A      1.738829    88A      1.781681  
      89A      1.837594    90A      1.844151    91A      1.925795  
      92A      1.980437    93A      2.047694    94A      2.137835  
      95A      2.296441    96A      2.356580    97A      2.717267  
      98A      2.733306    99A      2.817475   100A      2.844320  
     101A      2.864650   102A      2.925930   103A      2.928083  
     104A      2.948328   105A      2.949154   106A      2.984891  
     107A      2.999910   108A      3.002304   109A      3.015409  
     110A      3.068934   111A      3.103132   112A      3.118529  
     113A      3.140760   114A      3.160103   115A      3.208407  
     116A      3.214047   117A      3.248257   118A      3.306443  
     119A      3.360804   120A      3.395158   121A      3.440611  
     122A      3.447658   123A      3.467456   124A      3.488099  
     125A      3.504605   126A      3.561417   127A      3.611253  
     128A      3.628025   129A      3.665817   130A      3.712062  
     131A      3.716734   132A      3.731666   133A      3.838117  
     134A      3.842184   135A      3.944025   136A      3.955468  
     137A      4.006448   138A      4.066015   139A      4.141482  
     140A      4.147687   141A      4.158149   142A      4.173435  
     143A      4.180334   144A      4.224564   145A      4.240570  
     146A      4.243842   147A      4.284620   148A      4.387712  
     149A      4.406330   150A      4.419403   151A      4.447135  
     152A      4.466317   153A      4.517053   154A      4.543651  
     155A      4.653648   156A      4.688148   157A      4.706794  
     158A      4.774323   159A      4.846582   160A      4.971456  
     161A      4.974565   162A      5.133987   163A      5.223167  
     164A      5.253737   165A      5.262115   166A      5.358771  
     167A      5.386835   168A      5.595960  

    Final Occupation by Irrep:
              A 
    DOCC [    16 ]

  @DF-RKS Final Energy:  -157.24180605490790

   => Energetics <=

    Nuclear Repulsion Energy =            119.6116063177032487
    One-Electron Energy =                -446.5785792028320884
    Two-Electron Energy =                 189.7200213056011364
    DFT Exchange-Correlation Energy =     -19.9948544753801940
    Empirical Dispersion Energy =           0.0000000000000000
    VV10 Nonlocal Energy =                  0.0000000000000000
    Total Energy =                       -157.2418060549078973

Computation Completed


Properties will be evaluated at   0.000000,   0.000000,   0.000000 [a0]

Properties computed using the SCF density matrix

  Nuclear Dipole Moment: [e a0]
     X:    -0.0000      Y:    -0.0057      Z:    -1.4348

  Electronic Dipole Moment: [e a0]
     X:     0.0000      Y:     0.0054      Z:     1.2357

  Dipole Moment: [e a0]
     X:     0.0000      Y:    -0.0003      Z:    -0.1991     Total:     0.1991

  Dipole Moment: [D]
     X:     0.0000      Y:    -0.0008      Z:    -0.5061     Total:     0.5061


*** tstop() called on n084 at Sun Nov 14 16:37:43 2021
Module time:
	user time   =     100.21 seconds =       1.67 minutes
	system time =       1.49 seconds =       0.02 minutes
	total time  =         26 seconds =       0.43 minutes
Total time:
	user time   =     100.21 seconds =       1.67 minutes
	system time =       1.49 seconds =       0.02 minutes
	total time  =         26 seconds =       0.43 minutes
Grab this energy -157.2418060549079
    Psi4 stopped on: Sunday, 14 November 2021 04:37PM
    Psi4 wall time for execution: 0:00:26.07

*** Psi4 exiting successfully. Buy a developer a beer!
