
    -----------------------------------------------------------------------
          Psi4: An Open-Source Ab Initio Electronic Structure Package
                               Psi4 1.4a2.dev629 

                         Git: Rev {master} 2938fc2 dirty


    D. G. A. Smith, L. A. Burns, A. C. Simmonett, R. M. Parrish,
    M. C. Schieber, R. Galvelis, P. Kraus, H. Kruse, R. Di Remigio,
    A. Alenaizan, A. M. James, S. Lehtola, J. P. Misiewicz, M. Scheurer,
    R. A. Shaw, J. B. Schriber, Y. Xie, Z. L. Glick, D. A. Sirianni,
    J. S. O'Brien, J. M. Waldrop, A. Kumar, E. G. Hohenstein,
    B. P. Pritchard, B. R. Brooks, H. F. Schaefer III, A. Yu. Sokolov,
    K. Patkowski, A. E. DePrince III, U. Bozkaya, R. A. King,
    F. A. Evangelista, J. M. Turney, T. D. Crawford, C. D. Sherrill,
    J. Chem. Phys. 152(18) 184108 (2020). https://doi.org/10.1063/5.0006002

                            Additional Code Authors
    E. T. Seidl, C. L. Janssen, E. F. Valeev, M. L. Leininger,
    J. F. Gonthier, R. M. Richard, H. R. McAlexander, M. Saitow, X. Wang,
    P. Verma, and M. H. Lechner

             Previous Authors, Complete List of Code Contributors,
                       and Citations for Specific Modules
    https://github.com/psi4/psi4/blob/master/codemeta.json
    https://github.com/psi4/psi4/graphs/contributors
    http://psicode.org/psi4manual/master/introduction.html#citing-psifour

    -----------------------------------------------------------------------


    Psi4 started on: Sunday, 14 November 2021 05:12PM

    Process ID: 15622
    Host:       n035
    PSIDATADIR: /opt/psi/4/master/share/psi4
    Memory:     500.0 MiB
    Threads:    4
    
  ==> Input File <==

--------------------------------------------------------------------------
import os
memory 14 GB 
 
molecule {
 C   -0.0000000000    0.0004669123    2.7164560468
 C   -0.0000000001   -0.0072235841    0.1842901253
 C    0.0000000100    2.4082811227   -1.3244914434
 C   -0.0000000100   -2.4134001428   -1.3336126748
 H    0.0000000001    1.7602413189    3.7589774161
 H    0.0000000000   -1.7406610548    3.7995588035
 H    0.0000000101    4.0650589204   -0.0985463754
 H    1.6612073524    2.5001715070   -2.5535399897
 H   -1.6612076124    2.5001712574   -2.5535398704
 H   -0.0000000099   -4.0769908504   -0.1175209831
 H   -1.6611971031   -2.4980578284   -2.5621472378
 H    1.6611973631   -2.4980575781   -2.5621471170
units bohr
}

basis {

assign 6-31g_2dfp_

[ 6-31g_2dfp_ ]

spherical

!----------------------------------------------------------------------
! Basis Set Exchange
! Version v0.8.13
! https://www.basissetexchange.org
!----------------------------------------------------------------------
!   Basis set: 6-31G(2df,p)
! Description: 6-31G(2df,p)
!        Role: orbital
!     Version: 0  (Data from the original Basis Set Exchange)
!----------------------------------------------------------------------


****
H     0
S    3   1.00
     18.7311370              0.03349460
      2.8253937              0.23472695
      0.6401217              0.81375733
S    1   1.00
      0.1612778              1.00000000
P    1   1.00
      1.5000000              1.0000000
P    1   1.00
      0.3750000              1.0000000
****
B     0
S    6   1.00
   2068.8823000              0.0018663
    310.6495700              0.0142515
     70.6830330              0.0695516
     19.8610800              0.2325729
      6.2993048              0.4670787
      2.1270270              0.3634314
SP   3   1.00
      4.7279710             -0.1303938              0.0745976
      1.1903377             -0.1307889              0.3078467
      0.3594117              1.1309444              0.7434568
SP   1   1.00
      0.1267512              1.0000000              1.0000000
D    1   1.00
      0.8020000              1.0000000
D    1   1.00
      0.2005000              1.0000000
F    1   1.00
      0.5000000              1.0000000
****
C     0
S    6   1.00
   3047.5249000              0.0018347
    457.3695100              0.0140373
    103.9486900              0.0688426
     29.2101550              0.2321844
      9.2866630              0.4679413
      3.1639270              0.3623120
SP   3   1.00
      7.8682724             -0.1193324              0.0689991
      1.8812885             -0.1608542              0.3164240
      0.5442493              1.1434564              0.7443083
SP   1   1.00
      0.1687144              1.0000000              1.0000000
D    1   1.00
      1.2520000              1.0000000
D    1   1.00
      0.3130000              1.0000000
F    1   1.00
      0.8000000              1.0000000
****
N     0
S    6   1.00
   4173.5110000              0.0018348
    627.4579000              0.0139950
    142.9021000              0.0685870
     40.2343300              0.2322410
     12.8202100              0.4690700
      4.3904370              0.3604550
SP   3   1.00
     11.6263580             -0.1149610              0.0675800
      2.7162800             -0.1691180              0.3239070
      0.7722180              1.1458520              0.7408950
SP   1   1.00
      0.2120313              1.0000000              1.0000000
D    1   1.00
      1.8260000              1.0000000
D    1   1.00
      0.4565000              1.0000000
F    1   1.00
      1.0000000              1.0000000
****
O     0
S    6   1.00
   5484.6717000              0.0018311
    825.2349500              0.0139501
    188.0469600              0.0684451
     52.9645000              0.2327143
     16.8975700              0.4701930
      5.7996353              0.3585209
SP   3   1.00
     15.5396160             -0.1107775              0.0708743
      3.5999336             -0.1480263              0.3397528
      1.0137618              1.1307670              0.7271586
SP   1   1.00
      0.2700058              1.0000000              1.0000000
D    1   1.00
      2.5840000              1.0000000
D    1   1.00
      0.6460000              1.0000000
F    1   1.00
      1.4000000              1.0000000
****
F     0
S    6   1.00
   7001.7130900              0.0018196169
   1051.3660900              0.0139160796
    239.2856900              0.0684053245
     67.3974453              0.233185760
     21.5199573              0.471267439
      7.40310130             0.356618546
SP   3   1.00
     20.8479528             -0.108506975            0.0716287243
      4.80830834            -0.146451658            0.3459121030
      1.34406986             1.128688580            0.7224699570
SP   1   1.00
      0.358151393            1.0000000              1.0000000
D    1   1.00
      3.5000000              1.0000000
D    1   1.00
      0.8750000              1.0000000
F    1   1.00
      1.8500000              1.0000000
****
Al     0
S    6   1.00
  13983.1000000              0.00194267
   2098.7500000              0.0148599
    477.7050000              0.0728494
    134.3600000              0.2468300
     42.8709000              0.4872580
     14.5189000              0.3234960
SP   6   1.00
    239.6680000             -0.00292619             0.00460285
     57.4419000             -0.0374080              0.0331990
     18.2859000             -0.1144870              0.1362820
      6.5991400              0.1156350              0.3304760
      2.4904900              0.6125950              0.4491460
      0.9445400              0.3937990              0.2657040
SP   3   1.00
      1.2779000             -0.2276060             -0.0175130
      0.3975900              0.00144583             0.2445330
      0.1600950              1.0927900              0.8049340
SP   1   1.00
      0.0556577              1.0000000              1.0000000
D    1   1.00
      0.6500000              1.0000000
D    1   1.00
      0.1625000              1.0000000
F    1   1.00
      0.2500000              1.0000000
****
Si     0
S    6   1.00
  16115.9000000              0.00195948
   2425.5800000              0.01492880
    553.8670000              0.07284780
    156.3400000              0.24613000
     50.0683000              0.48591400
     17.0178000              0.32500200
SP   6   1.00
    292.7180000             -0.00278094             0.00443826
     69.8731000             -0.03571460             0.03266790
     22.3363000             -0.11498500             0.13472100
      8.1503900              0.09356340             0.32867800
      3.1345800              0.60301700             0.44964000
      1.2254300              0.41895900             0.26137200
SP   3   1.00
      1.7273800             -0.24463000            -0.01779510
      0.5729220              0.00431572             0.25353900
      0.2221920              1.09818000             0.80066900
SP   1   1.00
      0.0778369              1.00000000             1.00000000
D    1   1.00
      0.9000000              1.0000000
D    1   1.00
      0.2250000              1.0000000
F    1   1.00
      0.3200000              1.0000000
****
P     0
S    6   1.00
  19413.3000000              0.0018516
   2909.4200000              0.0142062
    661.3640000              0.0699995
    185.7590000              0.2400790
     59.1943000              0.4847620
     20.0310000              0.3352000
SP   6   1.00
    339.4780000             -0.00278217             0.00456462
     81.0101000             -0.0360499              0.03369360
     25.8780000             -0.1166310              0.13975500
      9.4522100              0.0968328              0.33936200
      3.6656600              0.6144180              0.45092100
      1.4674600              0.4037980              0.23858600
SP   3   1.00
      2.1562300             -0.2529230             -0.01776530
      0.7489970              0.0328517              0.27405800
      0.2831450              1.0812500              0.78542100
SP   1   1.00
      0.0998317              1.0000000              1.00000000
D    1   1.00
      1.1000000              1.0000000
D    1   1.00
      0.2750000              1.0000000
F    1   1.00
      0.4500000              1.0000000
****
S     0
S    6   1.00
  21917.1000000              0.0018690
   3301.4900000              0.0142300
    754.1460000              0.0696960
    212.7110000              0.2384870
     67.9896000              0.4833070
     23.0515000              0.3380740
SP   6   1.00
    423.7350000             -0.0023767              0.0040610
    100.7100000             -0.0316930              0.0306810
     32.1599000             -0.1133170              0.1304520
     11.8079000              0.0560900              0.3272050
      4.6311000              0.5922550              0.4528510
      1.8702500              0.4550060              0.2560420
SP   3   1.00
      2.6158400             -0.2503740             -0.0145110
      0.9221670              0.0669570              0.3102630
      0.3412870              1.0545100              0.7544830
SP   1   1.00
      0.1171670              1.0000000              1.0000000
D    1   1.00
      1.3000000              1.0000000
D    1   1.00
      0.3250000              1.0000000
F    1   1.00
      0.5500000              1.0000000
****
Cl     0
S    6   1.00
  25180.1000000              0.0018330
   3780.3500000              0.0140340
    860.4740000              0.0690970
    242.1450000              0.2374520
     77.3349000              0.4830340
     26.2470000              0.3398560
SP   6   1.00
    491.7650000             -0.0022974              0.0039894
    116.9840000             -0.0307140              0.0303180
     37.4153000             -0.1125280              0.1298800
     13.7834000              0.0450160              0.3279510
      5.4521500              0.5893530              0.4535270
      2.2258800              0.4652060              0.2521540
SP   3   1.00
      3.1864900             -0.2518300             -0.0142990
      1.1442700              0.0615890              0.3235720
      0.4203770              1.0601800              0.7435070
SP   1   1.00
      0.1426570              1.0000000              1.0000000
D    1   1.00
      1.5000000              1.0000000
D    1   1.00
      0.3750000              1.0000000
F    1   1.00
      0.7000000              1.0000000
****
}


set {
reference rhf                          
freeze_core true
e_convergence 10                       
d_convergence 10                      
dft_spherical_points 1202
dft_radial_points 99
}

e = energy('b3lyp')

print_out('Grab this energy {0}'.format(e))
--------------------------------------------------------------------------

  Memory set to  13.039 GiB by Python driver.

Scratch directory: /tmp/

*** tstart() called on n035
*** at Sun Nov 14 17:12:33 2021

   => Loading Basis Set <=

    Name: ANONYMOUS002A6087
    Role: ORBITAL
    Keyword: BASIS
    atoms 1-4  entry C          line    48 inputblock 6-31g_2dfp_ 
    atoms 5-12 entry H          line    15 inputblock 6-31g_2dfp_ 


         ---------------------------------------------------------
                                   SCF
               by Justin Turney, Rob Parrish, Andy Simmonett
                          and Daniel G. A. Smith
                              RKS Reference
                        4 Threads,  13351 MiB Core
         ---------------------------------------------------------

  ==> Geometry <==

    Molecular point group: c1
    Full point group: C1

    Geometry (in Bohr), charge = 0, multiplicity = 1:

       Center              X                  Y                   Z               Mass       
    ------------   -----------------  -----------------  -----------------  -----------------
         C            0.000000000016     0.002795375171     2.716452595025    12.000000000000
         C           -0.000000000084    -0.004895121229     0.184286673525    12.000000000000
         C            0.000000010016     2.410609585571    -1.324494895175    12.000000000000
         C           -0.000000009984    -2.411071679929    -1.333616126575    12.000000000000
         H            0.000000000116     1.762569781771     3.758973964325     1.007825032230
         H            0.000000000016    -1.738332591929     3.799555351725     1.007825032230
         H            0.000000010116     4.067387383271    -0.098549827175     1.007825032230
         H            1.661207352416     2.502499969871    -2.553543441475     1.007825032230
         H           -1.661207612384     2.502499720271    -2.553543322175     1.007825032230
         H           -0.000000009884    -4.074662387529    -0.117524434875     1.007825032230
         H           -1.661197103084    -2.495729365529    -2.562150689575     1.007825032230
         H            1.661197363116    -2.495729115229    -2.562150568775     1.007825032230

  Running in c1 symmetry.

  Rotational constants: A =      0.30457  B =      0.27949  C =      0.15405 [cm^-1]
  Rotational constants: A =   9130.87903  B =   8378.99204  C =   4618.16505 [MHz]
  Nuclear repulsion =  119.589730633773854

  Charge       = 0
  Multiplicity = 1
  Electrons    = 32
  Nalpha       = 16
  Nbeta        = 16

  ==> Algorithm <==

  SCF Algorithm Type is DF.
  DIIS enabled.
  MOM disabled.
  Fractional occupation disabled.
  Guess Type is SAD.
  Energy threshold   = 1.00e-10
  Density threshold  = 1.00e-10
  Integral threshold = 0.00e+00

  ==> Primary Basis <==

  Basis Set: ANONYMOUS002A6087
    Blend: 6-31G_2DFP_
    Number of shells: 64
    Number of basis function: 168
    Number of Cartesian functions: 188
    Spherical Harmonics?: true
    Max angular momentum: 3

  ==> DFT Potential <==

   => Composite Functional: B3LYP <= 

    B3LYP Hyb-GGA Exchange-Correlation Functional

    P. J. Stephens, F. J. Devlin, C. F. Chabalowski, and M. J. Frisch, J. Phys. Chem. 98, 11623 (1994)

    Deriv               =              1
    GGA                 =           TRUE
    Meta                =          FALSE

    Exchange Hybrid     =           TRUE
    MP2 Hybrid          =          FALSE

   => Exchange Functionals <=

    0.0800   Slater exchange
    0.7200         Becke 88

   => Exact (HF) Exchange <=

    0.2000               HF 

   => Correlation Functionals <=

    0.1900   Vosko, Wilk & Nusair (VWN5_RPA)
    0.8100   Lee, Yang & Parr

   => Molecular Quadrature <=

    Radial Scheme          =       TREUTLER
    Pruning Scheme         =           NONE
    Nuclear Scheme         =       TREUTLER

    BS radius alpha        =              1
    Pruning alpha          =              1
    Radial Points          =             99
    Spherical Points       =           1202
    Total Points           =        1333332
    Total Blocks           =           8939
    Max Points             =            256
    Max Functions          =            168
    Weights Tolerance      =       1.00E-15

   => Loading Basis Set <=

    Name: (ANONYMOUS002A6087 AUX)
    Role: JKFIT
    Keyword: DF_BASIS_SCF
    atoms 1-4  entry C          line   198 file /opt/psi/4/master/share/psi4/basis/def2-universal-jkfit.gbs 
    atoms 5-12 entry H          line    18 file /opt/psi/4/master/share/psi4/basis/def2-universal-jkfit.gbs 

  ==> Integral Setup <==

  DFHelper Memory: AOs need 0.100 GiB; user supplied 4.528 GiB. Using in-core AOs.

  ==> MemDFJK: Density-Fitted J/K Matrices <==

    J tasked:                   Yes
    K tasked:                   Yes
    wK tasked:                   No
    OpenMP threads:               4
    Memory [MiB]:              4636
    Algorithm:                 Core
    Schwarz Cutoff:           1E-12
    Mask sparsity (%):       1.2613
    Fitting Condition:        1E-10

   => Auxiliary Basis Set <=

  Basis Set: (ANONYMOUS002A6087 AUX)
    Blend: DEF2-UNIVERSAL-JKFIT
    Number of shells: 148
    Number of basis function: 444
    Number of Cartesian functions: 516
    Spherical Harmonics?: true
    Max angular momentum: 4

  Cached 100.0% of DFT collocation blocks in 5.251 [GiB].

  Minimum eigenvalue in the overlap matrix is 7.9779557719E-04.
  Reciprocal condition number of the overlap matrix is 1.3615369273E-04.
    Using symmetric orthogonalization.

  ==> Pre-Iterations <==

  SCF Guess: Superposition of Atomic Densities via on-the-fly atomic UHF (no occupation information).

   -------------------------
    Irrep   Nso     Nmo    
   -------------------------
     A        168     168 
   -------------------------
    Total     168     168
   -------------------------

  ==> Iterations <==

                           Total Energy        Delta E     RMS |[F,P]|

   @DF-RKS iter SAD:  -156.51942113282982   -1.56519e+02   0.00000e+00 
   @DF-RKS iter   1:  -156.87750181454004   -3.58081e-01   4.82654e-03 DIIS
   @DF-RKS iter   2:  -156.78169023290417    9.58116e-02   5.30376e-03 DIIS
   @DF-RKS iter   3:  -157.23749283252539   -4.55803e-01   5.40178e-04 DIIS
   @DF-RKS iter   4:  -157.23947097876348   -1.97815e-03   3.98059e-04 DIIS
   @DF-RKS iter   5:  -157.24174193391391   -2.27096e-03   5.48158e-05 DIIS
   @DF-RKS iter   6:  -157.24178568672346   -4.37528e-05   1.58777e-05 DIIS
   @DF-RKS iter   7:  -157.24178913459269   -3.44787e-06   1.66019e-06 DIIS
   @DF-RKS iter   8:  -157.24178917323275   -3.86401e-08   2.31557e-07 DIIS
   @DF-RKS iter   9:  -157.24178917409981   -8.67061e-10   4.13368e-08 DIIS
   @DF-RKS iter  10:  -157.24178917412465   -2.48406e-11   6.00996e-09 DIIS
   @DF-RKS iter  11:  -157.24178917412527   -6.25278e-13   1.98228e-09 DIIS
   @DF-RKS iter  12:  -157.24178917412527    0.00000e+00   8.69593e-10 DIIS
   @DF-RKS iter  13:  -157.24178917412533   -5.68434e-14   1.24885e-10 DIIS
   @DF-RKS iter  14:  -157.24178917412556   -2.27374e-13   1.09744e-11 DIIS
  Energy and wave function converged.


  ==> Post-Iterations <==

    Orbital Energies [Eh]
    ---------------------

    Doubly Occupied:                                                      

       1A    -10.185915     2A    -10.171912     3A    -10.171838  
       4A    -10.158609     5A     -0.800618     6A     -0.689873  
       7A     -0.674333     8A     -0.518846     9A     -0.447789  
      10A     -0.439144    11A     -0.428932    12A     -0.383847  
      13A     -0.367765    14A     -0.359890    15A     -0.334427  
      16A     -0.240054  

    Virtual:                                                              

      17A      0.028326    18A      0.082657    19A      0.127613  
      20A      0.139383    21A      0.144096    22A      0.157332  
      23A      0.164787    24A      0.179758    25A      0.209514  
      26A      0.211382    27A      0.290552    28A      0.337253  
      29A      0.396122    30A      0.419880    31A      0.425369  
      32A      0.448103    33A      0.451961    34A      0.478203  
      35A      0.488090    36A      0.504026    37A      0.511453  
      38A      0.555958    39A      0.572809    40A      0.582736  
      41A      0.605865    42A      0.615902    43A      0.618703  
      44A      0.618975    45A      0.634662    46A      0.659614  
      47A      0.681123    48A      0.683331    49A      0.687000  
      50A      0.705929    51A      0.732023    52A      0.816188  
      53A      0.873609    54A      0.883548    55A      0.900321  
      56A      0.908845    57A      0.937316    58A      0.983646  
      59A      0.998694    60A      1.014837    61A      1.028946  
      62A      1.034667    63A      1.065133    64A      1.128547  
      65A      1.179011    66A      1.184443    67A      1.194195  
      68A      1.215065    69A      1.276593    70A      1.282804  
      71A      1.303004    72A      1.336261    73A      1.341254  
      74A      1.358669    75A      1.382203    76A      1.422355  
      77A      1.437551    78A      1.439616    79A      1.451686  
      80A      1.503451    81A      1.541035    82A      1.550376  
      83A      1.561641    84A      1.602967    85A      1.615242  
      86A      1.700421    87A      1.739015    88A      1.781548  
      89A      1.837832    90A      1.844912    91A      1.926434  
      92A      1.979240    93A      2.046933    94A      2.136857  
      95A      2.296042    96A      2.356159    97A      2.717444  
      98A      2.732911    99A      2.817391   100A      2.844169  
     101A      2.864649   102A      2.925940   103A      2.928168  
     104A      2.948403   105A      2.949491   106A      2.984772  
     107A      2.999885   108A      3.001881   109A      3.015353  
     110A      3.069033   111A      3.102800   112A      3.118332  
     113A      3.140933   114A      3.160330   115A      3.208291  
     116A      3.213765   117A      3.248541   118A      3.306076  
     119A      3.360648   120A      3.394641   121A      3.441521  
     122A      3.447937   123A      3.467426   124A      3.487386  
     125A      3.503996   126A      3.561043   127A      3.611823  
     128A      3.628789   129A      3.665446   130A      3.712142  
     131A      3.716471   132A      3.732517   133A      3.838586  
     134A      3.840956   135A      3.944337   136A      3.954484  
     137A      4.006645   138A      4.065528   139A      4.142015  
     140A      4.146690   141A      4.157448   142A      4.173109  
     143A      4.180226   144A      4.224175   145A      4.240342  
     146A      4.243622   147A      4.284239   148A      4.389002  
     149A      4.408454   150A      4.419688   151A      4.447370  
     152A      4.466685   153A      4.516745   154A      4.543232  
     155A      4.653239   156A      4.687651   157A      4.705803  
     158A      4.772715   159A      4.845481   160A      4.972875  
     161A      4.975818   162A      5.133811   163A      5.223228  
     164A      5.254039   165A      5.262473   166A      5.358573  
     167A      5.386828   168A      5.594586  

    Final Occupation by Irrep:
              A 
    DOCC [    16 ]

  @DF-RKS Final Energy:  -157.24178917412556

   => Energetics <=

    Nuclear Repulsion Energy =            119.5897306337738542
    One-Electron Energy =                -446.5353525941962971
    Two-Electron Energy =                 189.6987414288287255
    DFT Exchange-Correlation Energy =     -19.9949086425318292
    Empirical Dispersion Energy =           0.0000000000000000
    VV10 Nonlocal Energy =                  0.0000000000000000
    Total Energy =                       -157.2417891741255573

Computation Completed


Properties will be evaluated at   0.000000,   0.000000,   0.000000 [a0]

Properties computed using the SCF density matrix

  Nuclear Dipole Moment: [e a0]
     X:     0.0000      Y:     0.0151      Z:    -1.4332

  Electronic Dipole Moment: [e a0]
     X:    -0.0000      Y:    -0.0168      Z:     1.2339

  Dipole Moment: [e a0]
     X:     0.0000      Y:    -0.0017      Z:    -0.1992     Total:     0.1992

  Dipole Moment: [D]
     X:     0.0000      Y:    -0.0043      Z:    -0.5064     Total:     0.5064


*** tstop() called on n035 at Sun Nov 14 17:13:08 2021
Module time:
	user time   =     136.19 seconds =       2.27 minutes
	system time =       1.28 seconds =       0.02 minutes
	total time  =         35 seconds =       0.58 minutes
Total time:
	user time   =     136.19 seconds =       2.27 minutes
	system time =       1.28 seconds =       0.02 minutes
	total time  =         35 seconds =       0.58 minutes
Grab this energy -157.24178917412556
    Psi4 stopped on: Sunday, 14 November 2021 05:13PM
    Psi4 wall time for execution: 0:00:35.20

*** Psi4 exiting successfully. Buy a developer a beer!
