
    -----------------------------------------------------------------------
          Psi4: An Open-Source Ab Initio Electronic Structure Package
                               Psi4 1.4a2.dev629 

                         Git: Rev {master} 2938fc2 dirty


    D. G. A. Smith, L. A. Burns, A. C. Simmonett, R. M. Parrish,
    M. C. Schieber, R. Galvelis, P. Kraus, H. Kruse, R. Di Remigio,
    A. Alenaizan, A. M. James, S. Lehtola, J. P. Misiewicz, M. Scheurer,
    R. A. Shaw, J. B. Schriber, Y. Xie, Z. L. Glick, D. A. Sirianni,
    J. S. O'Brien, J. M. Waldrop, A. Kumar, E. G. Hohenstein,
    B. P. Pritchard, B. R. Brooks, H. F. Schaefer III, A. Yu. Sokolov,
    K. Patkowski, A. E. DePrince III, U. Bozkaya, R. A. King,
    F. A. Evangelista, J. M. Turney, T. D. Crawford, C. D. Sherrill,
    J. Chem. Phys. 152(18) 184108 (2020). https://doi.org/10.1063/5.0006002

                            Additional Code Authors
    E. T. Seidl, C. L. Janssen, E. F. Valeev, M. L. Leininger,
    J. F. Gonthier, R. M. Richard, H. R. McAlexander, M. Saitow, X. Wang,
    P. Verma, and M. H. Lechner

             Previous Authors, Complete List of Code Contributors,
                       and Citations for Specific Modules
    https://github.com/psi4/psi4/blob/master/codemeta.json
    https://github.com/psi4/psi4/graphs/contributors
    http://psicode.org/psi4manual/master/introduction.html#citing-psifour

    -----------------------------------------------------------------------


    Psi4 started on: Sunday, 14 November 2021 04:30PM

    Process ID: 4689
    Host:       n022
    PSIDATADIR: /opt/psi/4/master/share/psi4
    Memory:     500.0 MiB
    Threads:    4
    
  ==> Input File <==

--------------------------------------------------------------------------
import os
memory 14 GB 
 
molecule {
 C    0.0015475253    0.0001557160    2.7164628249
 C   -0.0003867652   -0.0007444601    0.1842861237
 C   -0.0007410328    2.4120364036   -1.3276214031
 C   -0.0007371598   -2.4096523563   -1.3305019341
 H    0.0032990386    1.7505470841    3.7793207787
 H    0.0033052454   -1.7505893100    3.7793036386
 H   -0.0041005346    4.0709367393   -0.1082212289
 H    1.6614619687    2.4969304056   -2.5542437902
 H   -1.6605022636    2.5005252859   -2.5623817988
 H   -0.0041044146   -4.0711328426   -0.1078622420
 H   -1.6609303766   -2.5013040360   -2.5614709195
 H    1.6618887692   -2.4977086295   -2.5533333493
units bohr
}

basis {

assign 6-31g_2dfp_

[ 6-31g_2dfp_ ]

spherical

!----------------------------------------------------------------------
! Basis Set Exchange
! Version v0.8.13
! https://www.basissetexchange.org
!----------------------------------------------------------------------
!   Basis set: 6-31G(2df,p)
! Description: 6-31G(2df,p)
!        Role: orbital
!     Version: 0  (Data from the original Basis Set Exchange)
!----------------------------------------------------------------------


****
H     0
S    3   1.00
     18.7311370              0.03349460
      2.8253937              0.23472695
      0.6401217              0.81375733
S    1   1.00
      0.1612778              1.00000000
P    1   1.00
      1.5000000              1.0000000
P    1   1.00
      0.3750000              1.0000000
****
B     0
S    6   1.00
   2068.8823000              0.0018663
    310.6495700              0.0142515
     70.6830330              0.0695516
     19.8610800              0.2325729
      6.2993048              0.4670787
      2.1270270              0.3634314
SP   3   1.00
      4.7279710             -0.1303938              0.0745976
      1.1903377             -0.1307889              0.3078467
      0.3594117              1.1309444              0.7434568
SP   1   1.00
      0.1267512              1.0000000              1.0000000
D    1   1.00
      0.8020000              1.0000000
D    1   1.00
      0.2005000              1.0000000
F    1   1.00
      0.5000000              1.0000000
****
C     0
S    6   1.00
   3047.5249000              0.0018347
    457.3695100              0.0140373
    103.9486900              0.0688426
     29.2101550              0.2321844
      9.2866630              0.4679413
      3.1639270              0.3623120
SP   3   1.00
      7.8682724             -0.1193324              0.0689991
      1.8812885             -0.1608542              0.3164240
      0.5442493              1.1434564              0.7443083
SP   1   1.00
      0.1687144              1.0000000              1.0000000
D    1   1.00
      1.2520000              1.0000000
D    1   1.00
      0.3130000              1.0000000
F    1   1.00
      0.8000000              1.0000000
****
N     0
S    6   1.00
   4173.5110000              0.0018348
    627.4579000              0.0139950
    142.9021000              0.0685870
     40.2343300              0.2322410
     12.8202100              0.4690700
      4.3904370              0.3604550
SP   3   1.00
     11.6263580             -0.1149610              0.0675800
      2.7162800             -0.1691180              0.3239070
      0.7722180              1.1458520              0.7408950
SP   1   1.00
      0.2120313              1.0000000              1.0000000
D    1   1.00
      1.8260000              1.0000000
D    1   1.00
      0.4565000              1.0000000
F    1   1.00
      1.0000000              1.0000000
****
O     0
S    6   1.00
   5484.6717000              0.0018311
    825.2349500              0.0139501
    188.0469600              0.0684451
     52.9645000              0.2327143
     16.8975700              0.4701930
      5.7996353              0.3585209
SP   3   1.00
     15.5396160             -0.1107775              0.0708743
      3.5999336             -0.1480263              0.3397528
      1.0137618              1.1307670              0.7271586
SP   1   1.00
      0.2700058              1.0000000              1.0000000
D    1   1.00
      2.5840000              1.0000000
D    1   1.00
      0.6460000              1.0000000
F    1   1.00
      1.4000000              1.0000000
****
F     0
S    6   1.00
   7001.7130900              0.0018196169
   1051.3660900              0.0139160796
    239.2856900              0.0684053245
     67.3974453              0.233185760
     21.5199573              0.471267439
      7.40310130             0.356618546
SP   3   1.00
     20.8479528             -0.108506975            0.0716287243
      4.80830834            -0.146451658            0.3459121030
      1.34406986             1.128688580            0.7224699570
SP   1   1.00
      0.358151393            1.0000000              1.0000000
D    1   1.00
      3.5000000              1.0000000
D    1   1.00
      0.8750000              1.0000000
F    1   1.00
      1.8500000              1.0000000
****
Al     0
S    6   1.00
  13983.1000000              0.00194267
   2098.7500000              0.0148599
    477.7050000              0.0728494
    134.3600000              0.2468300
     42.8709000              0.4872580
     14.5189000              0.3234960
SP   6   1.00
    239.6680000             -0.00292619             0.00460285
     57.4419000             -0.0374080              0.0331990
     18.2859000             -0.1144870              0.1362820
      6.5991400              0.1156350              0.3304760
      2.4904900              0.6125950              0.4491460
      0.9445400              0.3937990              0.2657040
SP   3   1.00
      1.2779000             -0.2276060             -0.0175130
      0.3975900              0.00144583             0.2445330
      0.1600950              1.0927900              0.8049340
SP   1   1.00
      0.0556577              1.0000000              1.0000000
D    1   1.00
      0.6500000              1.0000000
D    1   1.00
      0.1625000              1.0000000
F    1   1.00
      0.2500000              1.0000000
****
Si     0
S    6   1.00
  16115.9000000              0.00195948
   2425.5800000              0.01492880
    553.8670000              0.07284780
    156.3400000              0.24613000
     50.0683000              0.48591400
     17.0178000              0.32500200
SP   6   1.00
    292.7180000             -0.00278094             0.00443826
     69.8731000             -0.03571460             0.03266790
     22.3363000             -0.11498500             0.13472100
      8.1503900              0.09356340             0.32867800
      3.1345800              0.60301700             0.44964000
      1.2254300              0.41895900             0.26137200
SP   3   1.00
      1.7273800             -0.24463000            -0.01779510
      0.5729220              0.00431572             0.25353900
      0.2221920              1.09818000             0.80066900
SP   1   1.00
      0.0778369              1.00000000             1.00000000
D    1   1.00
      0.9000000              1.0000000
D    1   1.00
      0.2250000              1.0000000
F    1   1.00
      0.3200000              1.0000000
****
P     0
S    6   1.00
  19413.3000000              0.0018516
   2909.4200000              0.0142062
    661.3640000              0.0699995
    185.7590000              0.2400790
     59.1943000              0.4847620
     20.0310000              0.3352000
SP   6   1.00
    339.4780000             -0.00278217             0.00456462
     81.0101000             -0.0360499              0.03369360
     25.8780000             -0.1166310              0.13975500
      9.4522100              0.0968328              0.33936200
      3.6656600              0.6144180              0.45092100
      1.4674600              0.4037980              0.23858600
SP   3   1.00
      2.1562300             -0.2529230             -0.01776530
      0.7489970              0.0328517              0.27405800
      0.2831450              1.0812500              0.78542100
SP   1   1.00
      0.0998317              1.0000000              1.00000000
D    1   1.00
      1.1000000              1.0000000
D    1   1.00
      0.2750000              1.0000000
F    1   1.00
      0.4500000              1.0000000
****
S     0
S    6   1.00
  21917.1000000              0.0018690
   3301.4900000              0.0142300
    754.1460000              0.0696960
    212.7110000              0.2384870
     67.9896000              0.4833070
     23.0515000              0.3380740
SP   6   1.00
    423.7350000             -0.0023767              0.0040610
    100.7100000             -0.0316930              0.0306810
     32.1599000             -0.1133170              0.1304520
     11.8079000              0.0560900              0.3272050
      4.6311000              0.5922550              0.4528510
      1.8702500              0.4550060              0.2560420
SP   3   1.00
      2.6158400             -0.2503740             -0.0145110
      0.9221670              0.0669570              0.3102630
      0.3412870              1.0545100              0.7544830
SP   1   1.00
      0.1171670              1.0000000              1.0000000
D    1   1.00
      1.3000000              1.0000000
D    1   1.00
      0.3250000              1.0000000
F    1   1.00
      0.5500000              1.0000000
****
Cl     0
S    6   1.00
  25180.1000000              0.0018330
   3780.3500000              0.0140340
    860.4740000              0.0690970
    242.1450000              0.2374520
     77.3349000              0.4830340
     26.2470000              0.3398560
SP   6   1.00
    491.7650000             -0.0022974              0.0039894
    116.9840000             -0.0307140              0.0303180
     37.4153000             -0.1125280              0.1298800
     13.7834000              0.0450160              0.3279510
      5.4521500              0.5893530              0.4535270
      2.2258800              0.4652060              0.2521540
SP   3   1.00
      3.1864900             -0.2518300             -0.0142990
      1.1442700              0.0615890              0.3235720
      0.4203770              1.0601800              0.7435070
SP   1   1.00
      0.1426570              1.0000000              1.0000000
D    1   1.00
      1.5000000              1.0000000
D    1   1.00
      0.3750000              1.0000000
F    1   1.00
      0.7000000              1.0000000
****
}


set {
reference rhf                          
freeze_core true
e_convergence 10                       
d_convergence 10                      
dft_spherical_points 1202
dft_radial_points 99
}

e = energy('b3lyp')

print_out('Grab this energy {0}'.format(e))
--------------------------------------------------------------------------

  Memory set to  13.039 GiB by Python driver.

Scratch directory: /tmp/

*** tstart() called on n022
*** at Sun Nov 14 16:30:03 2021

   => Loading Basis Set <=

    Name: ANONYMOUS13468452
    Role: ORBITAL
    Keyword: BASIS
    atoms 1-4  entry C          line    48 inputblock 6-31g_2dfp_ 
    atoms 5-12 entry H          line    15 inputblock 6-31g_2dfp_ 


         ---------------------------------------------------------
                                   SCF
               by Justin Turney, Rob Parrish, Andy Simmonett
                          and Daniel G. A. Smith
                              RKS Reference
                        4 Threads,  13351 MiB Core
         ---------------------------------------------------------

  ==> Geometry <==

    Molecular point group: c1
    Full point group: C1

    Geometry (in Bohr), charge = 0, multiplicity = 1:

       Center              X                  Y                   Z               Mass       
    ------------   -----------------  -----------------  -----------------  -----------------
         C            0.001609764182    -0.000196288488     2.716462597002    12.000000000000
         C           -0.000324526318    -0.001096464588     0.184285895802    12.000000000000
         C           -0.000678793918     2.411684399112    -1.327621630998    12.000000000000
         C           -0.000674920918    -2.410004360788    -1.330502161998    12.000000000000
         H            0.003361277482     1.750195079612     3.779320550802     1.007825032230
         H            0.003367484282    -1.750941314488     3.779303410702     1.007825032230
         H           -0.004038295718     4.070584734812    -0.108221456798     1.007825032230
         H            1.661524207582     2.496578401112    -2.554244018098     1.007825032230
         H           -1.660440024718     2.500173281412    -2.562382026698     1.007825032230
         H           -0.004042175718    -4.071484847088    -0.107862469898     1.007825032230
         H           -1.660868137718    -2.501656040488    -2.561471147398     1.007825032230
         H            1.661951008082    -2.498060633988    -2.553333577198     1.007825032230

  Running in c1 symmetry.

  Rotational constants: A =      0.30455  B =      0.27951  C =      0.15404 [cm^-1]
  Rotational constants: A =   9130.30957  B =   8379.42326  C =   4618.14868 [MHz]
  Nuclear repulsion =  119.589450332457915

  Charge       = 0
  Multiplicity = 1
  Electrons    = 32
  Nalpha       = 16
  Nbeta        = 16

  ==> Algorithm <==

  SCF Algorithm Type is DF.
  DIIS enabled.
  MOM disabled.
  Fractional occupation disabled.
  Guess Type is SAD.
  Energy threshold   = 1.00e-10
  Density threshold  = 1.00e-10
  Integral threshold = 0.00e+00

  ==> Primary Basis <==

  Basis Set: ANONYMOUS13468452
    Blend: 6-31G_2DFP_
    Number of shells: 64
    Number of basis function: 168
    Number of Cartesian functions: 188
    Spherical Harmonics?: true
    Max angular momentum: 3

  ==> DFT Potential <==

   => Composite Functional: B3LYP <= 

    B3LYP Hyb-GGA Exchange-Correlation Functional

    P. J. Stephens, F. J. Devlin, C. F. Chabalowski, and M. J. Frisch, J. Phys. Chem. 98, 11623 (1994)

    Deriv               =              1
    GGA                 =           TRUE
    Meta                =          FALSE

    Exchange Hybrid     =           TRUE
    MP2 Hybrid          =          FALSE

   => Exchange Functionals <=

    0.0800   Slater exchange
    0.7200         Becke 88

   => Exact (HF) Exchange <=

    0.2000               HF 

   => Correlation Functionals <=

    0.1900   Vosko, Wilk & Nusair (VWN5_RPA)
    0.8100   Lee, Yang & Parr

   => Molecular Quadrature <=

    Radial Scheme          =       TREUTLER
    Pruning Scheme         =           NONE
    Nuclear Scheme         =       TREUTLER

    BS radius alpha        =              1
    Pruning alpha          =              1
    Radial Points          =             99
    Spherical Points       =           1202
    Total Points           =        1333400
    Total Blocks           =           8944
    Max Points             =            256
    Max Functions          =            168
    Weights Tolerance      =       1.00E-15

   => Loading Basis Set <=

    Name: (ANONYMOUS13468452 AUX)
    Role: JKFIT
    Keyword: DF_BASIS_SCF
    atoms 1-4  entry C          line   198 file /opt/psi/4/master/share/psi4/basis/def2-universal-jkfit.gbs 
    atoms 5-12 entry H          line    18 file /opt/psi/4/master/share/psi4/basis/def2-universal-jkfit.gbs 

  ==> Integral Setup <==

  DFHelper Memory: AOs need 0.100 GiB; user supplied 4.526 GiB. Using in-core AOs.

  ==> MemDFJK: Density-Fitted J/K Matrices <==

    J tasked:                   Yes
    K tasked:                   Yes
    wK tasked:                   No
    OpenMP threads:               4
    Memory [MiB]:              4634
    Algorithm:                 Core
    Schwarz Cutoff:           1E-12
    Mask sparsity (%):       1.2755
    Fitting Condition:        1E-10

   => Auxiliary Basis Set <=

  Basis Set: (ANONYMOUS13468452 AUX)
    Blend: DEF2-UNIVERSAL-JKFIT
    Number of shells: 148
    Number of basis function: 444
    Number of Cartesian functions: 516
    Spherical Harmonics?: true
    Max angular momentum: 4

  Cached 100.0% of DFT collocation blocks in 5.253 [GiB].

  Minimum eigenvalue in the overlap matrix is 7.9795368393E-04.
  Reciprocal condition number of the overlap matrix is 1.3618230220E-04.
    Using symmetric orthogonalization.

  ==> Pre-Iterations <==

  SCF Guess: Superposition of Atomic Densities via on-the-fly atomic UHF (no occupation information).

   -------------------------
    Irrep   Nso     Nmo    
   -------------------------
     A        168     168 
   -------------------------
    Total     168     168
   -------------------------

  ==> Iterations <==

                           Total Energy        Delta E     RMS |[F,P]|

   @DF-RKS iter SAD:  -156.51939406426385   -1.56519e+02   0.00000e+00 
   @DF-RKS iter   1:  -156.87751056051911   -3.58116e-01   4.82654e-03 DIIS
   @DF-RKS iter   2:  -156.78170123740196    9.58093e-02   5.30374e-03 DIIS
   @DF-RKS iter   3:  -157.23750231233609   -4.55801e-01   5.40173e-04 DIIS
   @DF-RKS iter   4:  -157.23948035943891   -1.97805e-03   3.98060e-04 DIIS
   @DF-RKS iter   5:  -157.24175135098386   -2.27099e-03   5.48091e-05 DIIS
   @DF-RKS iter   6:  -157.24179509294783   -4.37420e-05   1.58780e-05 DIIS
   @DF-RKS iter   7:  -157.24179854096823   -3.44802e-06   1.66034e-06 DIIS
   @DF-RKS iter   8:  -157.24179857961599   -3.86478e-08   2.31605e-07 DIIS
   @DF-RKS iter   9:  -157.24179858048308   -8.67090e-10   4.13274e-08 DIIS
   @DF-RKS iter  10:  -157.24179858050789   -2.48122e-11   5.87912e-09 DIIS
   @DF-RKS iter  11:  -157.24179858050883   -9.37916e-13   1.72458e-09 DIIS
   @DF-RKS iter  12:  -157.24179858050877    5.68434e-14   6.18182e-10 DIIS
   @DF-RKS iter  13:  -157.24179858050871    5.68434e-14   1.30632e-10 DIIS
   @DF-RKS iter  14:  -157.24179858050854    1.70530e-13   1.36823e-11 DIIS
  Energy and wave function converged.


  ==> Post-Iterations <==

    Orbital Energies [Eh]
    ---------------------

    Doubly Occupied:                                                      

       1A    -10.185914     2A    -10.171909     3A    -10.171842  
       4A    -10.158609     5A     -0.800615     6A     -0.689862  
       7A     -0.674343     8A     -0.518846     9A     -0.447782  
      10A     -0.439154    11A     -0.428928    12A     -0.383851  
      13A     -0.367769    14A     -0.359886    15A     -0.334429  
      16A     -0.240053  

    Virtual:                                                              

      17A      0.028327    18A      0.082657    19A      0.127612  
      20A      0.139380    21A      0.144101    22A      0.157328  
      23A      0.164796    24A      0.179761    25A      0.209619  
      26A      0.211258    27A      0.290546    28A      0.337251  
      29A      0.396127    30A      0.419881    31A      0.425351  
      32A      0.448101    33A      0.451975    34A      0.478202  
      35A      0.488068    36A      0.504029    37A      0.511478  
      38A      0.555960    39A      0.572804    40A      0.582731  
      41A      0.605865    42A      0.615885    43A      0.618732  
      44A      0.618982    45A      0.634678    46A      0.659606  
      47A      0.681154    48A      0.683293    49A      0.686988  
      50A      0.705916    51A      0.732035    52A      0.816192  
      53A      0.873674    54A      0.883537    55A      0.900511  
      56A      0.908611    57A      0.937325    58A      0.983634  
      59A      0.998712    60A      1.014814    61A      1.028931  
      62A      1.034751    63A      1.065031    64A      1.128551  
      65A      1.180078    66A      1.183391    67A      1.194345  
      68A      1.214914    69A      1.276580    70A      1.282758  
      71A      1.302962    72A      1.336257    73A      1.341252  
      74A      1.358652    75A      1.382222    76A      1.422325  
      77A      1.437441    78A      1.439671    79A      1.451712  
      80A      1.503485    81A      1.540979    82A      1.550380  
      83A      1.561631    84A      1.602982    85A      1.615250  
      86A      1.700421    87A      1.739004    88A      1.781526  
      89A      1.837785    90A      1.844950    91A      1.926440  
      92A      1.979248    93A      2.046965    94A      2.136834  
      95A      2.296340    96A      2.355832    97A      2.717494  
      98A      2.732886    99A      2.817381   100A      2.844171  
     101A      2.864651   102A      2.925940   103A      2.928330  
     104A      2.948415   105A      2.949339   106A      2.984773  
     107A      2.999875   108A      3.001848   109A      3.015370  
     110A      3.069022   111A      3.102714   112A      3.118325  
     113A      3.140983   114A      3.160310   115A      3.208379  
     116A      3.213648   117A      3.248546   118A      3.306182  
     119A      3.360603   120A      3.394623   121A      3.441491  
     122A      3.447935   123A      3.467366   124A      3.487398  
     125A      3.504096   126A      3.561054   127A      3.611814  
     128A      3.628706   129A      3.665434   130A      3.712145  
     131A      3.716525   132A      3.732524   133A      3.838722  
     134A      3.840856   135A      3.944374   136A      3.954504  
     137A      4.006641   138A      4.065503   139A      4.141999  
     140A      4.146978   141A      4.157372   142A      4.173042  
     143A      4.180147   144A      4.224087   145A      4.241010  
     146A      4.242951   147A      4.284260   148A      4.388996  
     149A      4.408416   150A      4.419633   151A      4.447413  
     152A      4.466658   153A      4.516537   154A      4.543240  
     155A      4.653202   156A      4.687723   157A      4.705883  
     158A      4.772574   159A      4.845481   160A      4.972847  
     161A      4.975792   162A      5.133768   163A      5.223267  
     164A      5.254029   165A      5.262506   166A      5.358575  
     167A      5.386845   168A      5.594590  

    Final Occupation by Irrep:
              A 
    DOCC [    16 ]

  @DF-RKS Final Energy:  -157.24179858050854

   => Energetics <=

    Nuclear Repulsion Energy =            119.5894503324579148
    One-Electron Energy =                -446.5348138555239643
    Two-Electron Energy =                 189.6984696846021450
    DFT Exchange-Correlation Energy =     -19.9949047420446533
    Empirical Dispersion Energy =           0.0000000000000000
    VV10 Nonlocal Energy =                  0.0000000000000000
    Total Energy =                       -157.2417985805085436

Computation Completed


Properties will be evaluated at   0.000000,   0.000000,   0.000000 [a0]

Properties computed using the SCF density matrix

  Nuclear Dipole Moment: [e a0]
     X:     0.0004      Y:    -0.0023      Z:    -1.4331

  Electronic Dipole Moment: [e a0]
     X:     0.0004      Y:     0.0021      Z:     1.2339

  Dipole Moment: [e a0]
     X:     0.0008      Y:    -0.0001      Z:    -0.1992     Total:     0.1992

  Dipole Moment: [D]
     X:     0.0021      Y:    -0.0004      Z:    -0.5064     Total:     0.5064


*** tstop() called on n022 at Sun Nov 14 16:30:39 2021
Module time:
	user time   =     137.17 seconds =       2.29 minutes
	system time =       1.31 seconds =       0.02 minutes
	total time  =         36 seconds =       0.60 minutes
Total time:
	user time   =     137.17 seconds =       2.29 minutes
	system time =       1.31 seconds =       0.02 minutes
	total time  =         36 seconds =       0.60 minutes
Grab this energy -157.24179858050854
    Psi4 stopped on: Sunday, 14 November 2021 04:30PM
    Psi4 wall time for execution: 0:00:35.47

*** Psi4 exiting successfully. Buy a developer a beer!
