
    -----------------------------------------------------------------------
          Psi4: An Open-Source Ab Initio Electronic Structure Package
                               Psi4 1.4a2.dev629 

                         Git: Rev {master} 2938fc2 dirty


    D. G. A. Smith, L. A. Burns, A. C. Simmonett, R. M. Parrish,
    M. C. Schieber, R. Galvelis, P. Kraus, H. Kruse, R. Di Remigio,
    A. Alenaizan, A. M. James, S. Lehtola, J. P. Misiewicz, M. Scheurer,
    R. A. Shaw, J. B. Schriber, Y. Xie, Z. L. Glick, D. A. Sirianni,
    J. S. O'Brien, J. M. Waldrop, A. Kumar, E. G. Hohenstein,
    B. P. Pritchard, B. R. Brooks, H. F. Schaefer III, A. Yu. Sokolov,
    K. Patkowski, A. E. DePrince III, U. Bozkaya, R. A. King,
    F. A. Evangelista, J. M. Turney, T. D. Crawford, C. D. Sherrill,
    J. Chem. Phys. 152(18) 184108 (2020). https://doi.org/10.1063/5.0006002

                            Additional Code Authors
    E. T. Seidl, C. L. Janssen, E. F. Valeev, M. L. Leininger,
    J. F. Gonthier, R. M. Richard, H. R. McAlexander, M. Saitow, X. Wang,
    P. Verma, and M. H. Lechner

             Previous Authors, Complete List of Code Contributors,
                       and Citations for Specific Modules
    https://github.com/psi4/psi4/blob/master/codemeta.json
    https://github.com/psi4/psi4/graphs/contributors
    http://psicode.org/psi4manual/master/introduction.html#citing-psifour

    -----------------------------------------------------------------------


    Psi4 started on: Sunday, 14 November 2021 04:38PM

    Process ID: 9723
    Host:       n054
    PSIDATADIR: /opt/psi/4/master/share/psi4
    Memory:     500.0 MiB
    Threads:    4
    
  ==> Input File <==

--------------------------------------------------------------------------
import os
memory 14 GB 
 
molecule {
 C   -0.0014763571   -0.0000000002    2.7123784423
 C   -0.0031577135    0.0000000002    0.1868129409
 C   -0.0013194461    2.4111019624   -1.3285287730
 C   -0.0013194660   -2.4111019624   -1.3285287734
 H    0.0011802241    1.7508019133    3.7804525351
 H    0.0011802241   -1.7508019132    3.7804525351
 H    0.0012980537    4.0708516750   -0.1081265683
 H    1.6616236090    2.4996106676   -2.5580170030
 H   -1.6604656454    2.4987297989   -2.5585075324
 H    0.0012980336   -4.0708516751   -0.1081265682
 H   -1.6604653854   -2.4987300490   -2.5585076522
 H    1.6616238691   -2.4996104176   -2.5580168829
units bohr
}

basis {

assign 6-31g_2dfp_

[ 6-31g_2dfp_ ]

spherical

!----------------------------------------------------------------------
! Basis Set Exchange
! Version v0.8.13
! https://www.basissetexchange.org
!----------------------------------------------------------------------
!   Basis set: 6-31G(2df,p)
! Description: 6-31G(2df,p)
!        Role: orbital
!     Version: 0  (Data from the original Basis Set Exchange)
!----------------------------------------------------------------------


****
H     0
S    3   1.00
     18.7311370              0.03349460
      2.8253937              0.23472695
      0.6401217              0.81375733
S    1   1.00
      0.1612778              1.00000000
P    1   1.00
      1.5000000              1.0000000
P    1   1.00
      0.3750000              1.0000000
****
B     0
S    6   1.00
   2068.8823000              0.0018663
    310.6495700              0.0142515
     70.6830330              0.0695516
     19.8610800              0.2325729
      6.2993048              0.4670787
      2.1270270              0.3634314
SP   3   1.00
      4.7279710             -0.1303938              0.0745976
      1.1903377             -0.1307889              0.3078467
      0.3594117              1.1309444              0.7434568
SP   1   1.00
      0.1267512              1.0000000              1.0000000
D    1   1.00
      0.8020000              1.0000000
D    1   1.00
      0.2005000              1.0000000
F    1   1.00
      0.5000000              1.0000000
****
C     0
S    6   1.00
   3047.5249000              0.0018347
    457.3695100              0.0140373
    103.9486900              0.0688426
     29.2101550              0.2321844
      9.2866630              0.4679413
      3.1639270              0.3623120
SP   3   1.00
      7.8682724             -0.1193324              0.0689991
      1.8812885             -0.1608542              0.3164240
      0.5442493              1.1434564              0.7443083
SP   1   1.00
      0.1687144              1.0000000              1.0000000
D    1   1.00
      1.2520000              1.0000000
D    1   1.00
      0.3130000              1.0000000
F    1   1.00
      0.8000000              1.0000000
****
N     0
S    6   1.00
   4173.5110000              0.0018348
    627.4579000              0.0139950
    142.9021000              0.0685870
     40.2343300              0.2322410
     12.8202100              0.4690700
      4.3904370              0.3604550
SP   3   1.00
     11.6263580             -0.1149610              0.0675800
      2.7162800             -0.1691180              0.3239070
      0.7722180              1.1458520              0.7408950
SP   1   1.00
      0.2120313              1.0000000              1.0000000
D    1   1.00
      1.8260000              1.0000000
D    1   1.00
      0.4565000              1.0000000
F    1   1.00
      1.0000000              1.0000000
****
O     0
S    6   1.00
   5484.6717000              0.0018311
    825.2349500              0.0139501
    188.0469600              0.0684451
     52.9645000              0.2327143
     16.8975700              0.4701930
      5.7996353              0.3585209
SP   3   1.00
     15.5396160             -0.1107775              0.0708743
      3.5999336             -0.1480263              0.3397528
      1.0137618              1.1307670              0.7271586
SP   1   1.00
      0.2700058              1.0000000              1.0000000
D    1   1.00
      2.5840000              1.0000000
D    1   1.00
      0.6460000              1.0000000
F    1   1.00
      1.4000000              1.0000000
****
F     0
S    6   1.00
   7001.7130900              0.0018196169
   1051.3660900              0.0139160796
    239.2856900              0.0684053245
     67.3974453              0.233185760
     21.5199573              0.471267439
      7.40310130             0.356618546
SP   3   1.00
     20.8479528             -0.108506975            0.0716287243
      4.80830834            -0.146451658            0.3459121030
      1.34406986             1.128688580            0.7224699570
SP   1   1.00
      0.358151393            1.0000000              1.0000000
D    1   1.00
      3.5000000              1.0000000
D    1   1.00
      0.8750000              1.0000000
F    1   1.00
      1.8500000              1.0000000
****
Al     0
S    6   1.00
  13983.1000000              0.00194267
   2098.7500000              0.0148599
    477.7050000              0.0728494
    134.3600000              0.2468300
     42.8709000              0.4872580
     14.5189000              0.3234960
SP   6   1.00
    239.6680000             -0.00292619             0.00460285
     57.4419000             -0.0374080              0.0331990
     18.2859000             -0.1144870              0.1362820
      6.5991400              0.1156350              0.3304760
      2.4904900              0.6125950              0.4491460
      0.9445400              0.3937990              0.2657040
SP   3   1.00
      1.2779000             -0.2276060             -0.0175130
      0.3975900              0.00144583             0.2445330
      0.1600950              1.0927900              0.8049340
SP   1   1.00
      0.0556577              1.0000000              1.0000000
D    1   1.00
      0.6500000              1.0000000
D    1   1.00
      0.1625000              1.0000000
F    1   1.00
      0.2500000              1.0000000
****
Si     0
S    6   1.00
  16115.9000000              0.00195948
   2425.5800000              0.01492880
    553.8670000              0.07284780
    156.3400000              0.24613000
     50.0683000              0.48591400
     17.0178000              0.32500200
SP   6   1.00
    292.7180000             -0.00278094             0.00443826
     69.8731000             -0.03571460             0.03266790
     22.3363000             -0.11498500             0.13472100
      8.1503900              0.09356340             0.32867800
      3.1345800              0.60301700             0.44964000
      1.2254300              0.41895900             0.26137200
SP   3   1.00
      1.7273800             -0.24463000            -0.01779510
      0.5729220              0.00431572             0.25353900
      0.2221920              1.09818000             0.80066900
SP   1   1.00
      0.0778369              1.00000000             1.00000000
D    1   1.00
      0.9000000              1.0000000
D    1   1.00
      0.2250000              1.0000000
F    1   1.00
      0.3200000              1.0000000
****
P     0
S    6   1.00
  19413.3000000              0.0018516
   2909.4200000              0.0142062
    661.3640000              0.0699995
    185.7590000              0.2400790
     59.1943000              0.4847620
     20.0310000              0.3352000
SP   6   1.00
    339.4780000             -0.00278217             0.00456462
     81.0101000             -0.0360499              0.03369360
     25.8780000             -0.1166310              0.13975500
      9.4522100              0.0968328              0.33936200
      3.6656600              0.6144180              0.45092100
      1.4674600              0.4037980              0.23858600
SP   3   1.00
      2.1562300             -0.2529230             -0.01776530
      0.7489970              0.0328517              0.27405800
      0.2831450              1.0812500              0.78542100
SP   1   1.00
      0.0998317              1.0000000              1.00000000
D    1   1.00
      1.1000000              1.0000000
D    1   1.00
      0.2750000              1.0000000
F    1   1.00
      0.4500000              1.0000000
****
S     0
S    6   1.00
  21917.1000000              0.0018690
   3301.4900000              0.0142300
    754.1460000              0.0696960
    212.7110000              0.2384870
     67.9896000              0.4833070
     23.0515000              0.3380740
SP   6   1.00
    423.7350000             -0.0023767              0.0040610
    100.7100000             -0.0316930              0.0306810
     32.1599000             -0.1133170              0.1304520
     11.8079000              0.0560900              0.3272050
      4.6311000              0.5922550              0.4528510
      1.8702500              0.4550060              0.2560420
SP   3   1.00
      2.6158400             -0.2503740             -0.0145110
      0.9221670              0.0669570              0.3102630
      0.3412870              1.0545100              0.7544830
SP   1   1.00
      0.1171670              1.0000000              1.0000000
D    1   1.00
      1.3000000              1.0000000
D    1   1.00
      0.3250000              1.0000000
F    1   1.00
      0.5500000              1.0000000
****
Cl     0
S    6   1.00
  25180.1000000              0.0018330
   3780.3500000              0.0140340
    860.4740000              0.0690970
    242.1450000              0.2374520
     77.3349000              0.4830340
     26.2470000              0.3398560
SP   6   1.00
    491.7650000             -0.0022974              0.0039894
    116.9840000             -0.0307140              0.0303180
     37.4153000             -0.1125280              0.1298800
     13.7834000              0.0450160              0.3279510
      5.4521500              0.5893530              0.4535270
      2.2258800              0.4652060              0.2521540
SP   3   1.00
      3.1864900             -0.2518300             -0.0142990
      1.1442700              0.0615890              0.3235720
      0.4203770              1.0601800              0.7435070
SP   1   1.00
      0.1426570              1.0000000              1.0000000
D    1   1.00
      1.5000000              1.0000000
D    1   1.00
      0.3750000              1.0000000
F    1   1.00
      0.7000000              1.0000000
****
}


set {
reference rhf                          
freeze_core true
e_convergence 10                       
d_convergence 10                      
dft_spherical_points 1202
dft_radial_points 99
}

e = energy('b3lyp')

print_out('Grab this energy {0}'.format(e))
--------------------------------------------------------------------------

  Memory set to  13.039 GiB by Python driver.

Scratch directory: /tmp/

*** tstart() called on n054
*** at Sun Nov 14 16:38:18 2021

   => Loading Basis Set <=

    Name: ANONYMOUS56D968D8
    Role: ORBITAL
    Keyword: BASIS
    atoms 1-4  entry C          line    48 inputblock 6-31g_2dfp_ 
    atoms 5-12 entry H          line    15 inputblock 6-31g_2dfp_ 


         ---------------------------------------------------------
                                   SCF
               by Justin Turney, Rob Parrish, Andy Simmonett
                          and Daniel G. A. Smith
                              RKS Reference
                        4 Threads,  13351 MiB Core
         ---------------------------------------------------------

  ==> Geometry <==

    Molecular point group: c1
    Full point group: C1

    Geometry (in Bohr), charge = 0, multiplicity = 1:

       Center              X                  Y                   Z               Mass       
    ------------   -----------------  -----------------  -----------------  -----------------
         C           -0.000050345857    -0.000000000198     2.712474636480    12.000000000000
         C           -0.001731702257     0.000000000202     0.186909135080    12.000000000000
         C            0.000106565143     2.411101962402    -1.328432578819    12.000000000000
         C            0.000106545243    -2.411101962398    -1.328432579219    12.000000000000
         H            0.002606235343     1.750801913302     3.780548729280     1.007825032230
         H            0.002606235343    -1.750801913198     3.780548729280     1.007825032230
         H            0.002724064943     4.070851675002    -0.108030374120     1.007825032230
         H            1.663049620243     2.499610667602    -2.557920808820     1.007825032230
         H           -1.659039634157     2.498729798902    -2.558411338220     1.007825032230
         H            0.002724044843    -4.070851675098    -0.108030374020     1.007825032230
         H           -1.659039374157    -2.498730048998    -2.558411458020     1.007825032230
         H            1.663049880343    -2.499610417598    -2.557920688720     1.007825032230

  Running in c1 symmetry.

  Rotational constants: A =      0.30496  B =      0.27947  C =      0.15414 [cm^-1]
  Rotational constants: A =   9142.57104  B =   8378.35761  C =   4620.91301 [MHz]
  Nuclear repulsion =  119.618425581485724

  Charge       = 0
  Multiplicity = 1
  Electrons    = 32
  Nalpha       = 16
  Nbeta        = 16

  ==> Algorithm <==

  SCF Algorithm Type is DF.
  DIIS enabled.
  MOM disabled.
  Fractional occupation disabled.
  Guess Type is SAD.
  Energy threshold   = 1.00e-10
  Density threshold  = 1.00e-10
  Integral threshold = 0.00e+00

  ==> Primary Basis <==

  Basis Set: ANONYMOUS56D968D8
    Blend: 6-31G_2DFP_
    Number of shells: 64
    Number of basis function: 168
    Number of Cartesian functions: 188
    Spherical Harmonics?: true
    Max angular momentum: 3

  ==> DFT Potential <==

   => Composite Functional: B3LYP <= 

    B3LYP Hyb-GGA Exchange-Correlation Functional

    P. J. Stephens, F. J. Devlin, C. F. Chabalowski, and M. J. Frisch, J. Phys. Chem. 98, 11623 (1994)

    Deriv               =              1
    GGA                 =           TRUE
    Meta                =          FALSE

    Exchange Hybrid     =           TRUE
    MP2 Hybrid          =          FALSE

   => Exchange Functionals <=

    0.0800   Slater exchange
    0.7200         Becke 88

   => Exact (HF) Exchange <=

    0.2000               HF 

   => Correlation Functionals <=

    0.1900   Vosko, Wilk & Nusair (VWN5_RPA)
    0.8100   Lee, Yang & Parr

   => Molecular Quadrature <=

    Radial Scheme          =       TREUTLER
    Pruning Scheme         =           NONE
    Nuclear Scheme         =       TREUTLER

    BS radius alpha        =              1
    Pruning alpha          =              1
    Radial Points          =             99
    Spherical Points       =           1202
    Total Points           =        1333389
    Total Blocks           =           8930
    Max Points             =            256
    Max Functions          =            168
    Weights Tolerance      =       1.00E-15

   => Loading Basis Set <=

    Name: (ANONYMOUS56D968D8 AUX)
    Role: JKFIT
    Keyword: DF_BASIS_SCF
    atoms 1-4  entry C          line   198 file /opt/psi/4/master/share/psi4/basis/def2-universal-jkfit.gbs 
    atoms 5-12 entry H          line    18 file /opt/psi/4/master/share/psi4/basis/def2-universal-jkfit.gbs 

  ==> Integral Setup <==

  DFHelper Memory: AOs need 0.100 GiB; user supplied 4.526 GiB. Using in-core AOs.

  ==> MemDFJK: Density-Fitted J/K Matrices <==

    J tasked:                   Yes
    K tasked:                   Yes
    wK tasked:                   No
    OpenMP threads:               4
    Memory [MiB]:              4634
    Algorithm:                 Core
    Schwarz Cutoff:           1E-12
    Mask sparsity (%):       1.2755
    Fitting Condition:        1E-10

   => Auxiliary Basis Set <=

  Basis Set: (ANONYMOUS56D968D8 AUX)
    Blend: DEF2-UNIVERSAL-JKFIT
    Number of shells: 148
    Number of basis function: 444
    Number of Cartesian functions: 516
    Spherical Harmonics?: true
    Max angular momentum: 4

  Cached 100.0% of DFT collocation blocks in 5.253 [GiB].

  Minimum eigenvalue in the overlap matrix is 7.8725865427E-04.
  Reciprocal condition number of the overlap matrix is 1.3434506770E-04.
    Using symmetric orthogonalization.

  ==> Pre-Iterations <==

  SCF Guess: Superposition of Atomic Densities via on-the-fly atomic UHF (no occupation information).

   -------------------------
    Irrep   Nso     Nmo    
   -------------------------
     A        168     168 
   -------------------------
    Total     168     168
   -------------------------

  ==> Iterations <==

                           Total Energy        Delta E     RMS |[F,P]|

   @DF-RKS iter SAD:  -156.52119994697171   -1.56521e+02   0.00000e+00 
   @DF-RKS iter   1:  -156.87683671421547   -3.55637e-01   4.83134e-03 DIIS
   @DF-RKS iter   2:  -156.77945288043591    9.73838e-02   5.31682e-03 DIIS
   @DF-RKS iter   3:  -157.23748158022201   -4.58029e-01   5.45279e-04 DIIS
   @DF-RKS iter   4:  -157.23955134386742   -2.06976e-03   3.96973e-04 DIIS
   @DF-RKS iter   5:  -157.24180618509220   -2.25484e-03   5.50614e-05 DIIS
   @DF-RKS iter   6:  -157.24185028643012   -4.41013e-05   1.59663e-05 DIIS
   @DF-RKS iter   7:  -157.24185377263285   -3.48620e-06   1.66674e-06 DIIS
   @DF-RKS iter   8:  -157.24185381158495   -3.89521e-08   2.31417e-07 DIIS
   @DF-RKS iter   9:  -157.24185381245087   -8.65924e-10   4.15334e-08 DIIS
   @DF-RKS iter  10:  -157.24185381247617   -2.52953e-11   5.85267e-09 DIIS
   @DF-RKS iter  11:  -157.24185381247702   -8.52651e-13   1.55533e-09 DIIS
   @DF-RKS iter  12:  -157.24185381247690    1.13687e-13   2.26066e-10 DIIS
   @DF-RKS iter  13:  -157.24185381247690    0.00000e+00   5.80917e-11 DIIS
  Energy and wave function converged.


  ==> Post-Iterations <==

    Orbital Energies [Eh]
    ---------------------

    Doubly Occupied:                                                      

       1A    -10.185602     2A    -10.171886     3A    -10.171843  
       4A    -10.158549     5A     -0.800830     6A     -0.689764  
       7A     -0.674552     8A     -0.518747     9A     -0.447731  
      10A     -0.439230    11A     -0.428762    12A     -0.383670  
      13A     -0.367623    14A     -0.360354    15A     -0.333867  
      16A     -0.240663  

    Virtual:                                                              

      17A      0.028966    18A      0.082674    19A      0.127621  
      20A      0.139437    21A      0.143679    22A      0.157339  
      23A      0.164727    24A      0.179693    25A      0.209411  
      26A      0.211213    27A      0.290563    28A      0.337495  
      29A      0.396215    30A      0.419995    31A      0.425548  
      32A      0.448130    33A      0.452175    34A      0.477690  
      35A      0.487632    36A      0.503981    37A      0.512596  
      38A      0.555893    39A      0.572646    40A      0.582531  
      41A      0.605885    42A      0.615870    43A      0.618642  
      44A      0.618915    45A      0.634714    46A      0.659189  
      47A      0.681158    48A      0.683315    49A      0.687020  
      50A      0.706514    51A      0.732411    52A      0.816252  
      53A      0.873691    54A      0.883442    55A      0.900627  
      56A      0.909138    57A      0.937187    58A      0.984364  
      59A      0.998422    60A      1.015139    61A      1.029054  
      62A      1.034873    63A      1.064401    64A      1.128612  
      65A      1.179893    66A      1.183250    67A      1.195161  
      68A      1.214509    69A      1.276522    70A      1.282562  
      71A      1.302629    72A      1.336268    73A      1.341094  
      74A      1.358380    75A      1.382428    76A      1.422332  
      77A      1.436709    78A      1.439640    79A      1.451307  
      80A      1.502539    81A      1.541370    82A      1.550341  
      83A      1.562211    84A      1.603580    85A      1.616374  
      86A      1.700185    87A      1.739607    88A      1.781799  
      89A      1.837830    90A      1.844711    91A      1.926276  
      92A      1.979161    93A      2.047056    94A      2.139160  
      95A      2.296554    96A      2.358081    97A      2.717954  
      98A      2.732514    99A      2.817905   100A      2.843721  
     101A      2.865008   102A      2.925944   103A      2.926830  
     104A      2.948545   105A      2.949285   106A      2.985207  
     107A      2.999451   108A      3.002965   109A      3.014281  
     110A      3.069261   111A      3.103640   112A      3.119642  
     113A      3.141293   114A      3.156876   115A      3.209381  
     116A      3.213072   117A      3.248089   118A      3.307251  
     119A      3.358808   120A      3.392981   121A      3.441396  
     122A      3.447736   123A      3.468885   124A      3.487476  
     125A      3.506007   126A      3.561499   127A      3.611374  
     128A      3.628578   129A      3.665251   130A      3.713393  
     131A      3.716968   132A      3.732428   133A      3.838562  
     134A      3.839429   135A      3.944739   136A      3.953726  
     137A      4.009430   138A      4.066302   139A      4.141070  
     140A      4.147270   141A      4.156620   142A      4.171175  
     143A      4.180577   144A      4.223740   145A      4.242375  
     146A      4.242679   147A      4.287556   148A      4.389140  
     149A      4.408161   150A      4.419465   151A      4.447740  
     152A      4.466962   153A      4.514387   154A      4.544036  
     155A      4.652957   156A      4.691808   157A      4.706604  
     158A      4.771683   159A      4.848788   160A      4.971850  
     161A      4.975054   162A      5.135263   163A      5.223119  
     164A      5.253934   165A      5.263115   166A      5.358545  
     167A      5.386736   168A      5.594730  

    Final Occupation by Irrep:
              A 
    DOCC [    16 ]

  @DF-RKS Final Energy:  -157.24185381247690

   => Energetics <=

    Nuclear Repulsion Energy =            119.6184255814857238
    One-Electron Energy =                -446.5928227321274449
    Two-Electron Energy =                 189.7278764804950129
    DFT Exchange-Correlation Energy =     -19.9953331423302103
    Empirical Dispersion Energy =           0.0000000000000000
    VV10 Nonlocal Energy =                  0.0000000000000000
    Total Energy =                       -157.2418538124769043

Computation Completed


Properties will be evaluated at   0.000000,   0.000000,   0.000000 [a0]

Properties computed using the SCF density matrix

  Nuclear Dipole Moment: [e a0]
     X:     0.0093      Y:    -0.0000      Z:    -1.4325

  Electronic Dipole Moment: [e a0]
     X:    -0.0085      Y:     0.0000      Z:     1.2348

  Dipole Moment: [e a0]
     X:     0.0007      Y:    -0.0000      Z:    -0.1977     Total:     0.1977

  Dipole Moment: [D]
     X:     0.0019      Y:    -0.0000      Z:    -0.5026     Total:     0.5026


*** tstop() called on n054 at Sun Nov 14 16:38:45 2021
Module time:
	user time   =     104.71 seconds =       1.75 minutes
	system time =       1.53 seconds =       0.03 minutes
	total time  =         27 seconds =       0.45 minutes
Total time:
	user time   =     104.71 seconds =       1.75 minutes
	system time =       1.53 seconds =       0.03 minutes
	total time  =         27 seconds =       0.45 minutes
Grab this energy -157.2418538124769
    Psi4 stopped on: Sunday, 14 November 2021 04:38PM
    Psi4 wall time for execution: 0:00:27.46

*** Psi4 exiting successfully. Buy a developer a beer!
