
 Primary working directories    : /tmp/944438.303.gen4.q
 Secondary working directories  : /tmp/944438.303.gen4.q
 Wavefunction directory         : /home/vulcan/mel64643/wfu/
 Main file repository           : /tmp/944438.303.gen4.q/

 ARCHNAME  : Linux/x86_64
 FC        : /opt/intel/compilers_and_libraries_2016.1.150/linux/bin/intel64/ifort
 FCVERSION : 16.0.1
 BLASLIB   : -mkl
 id        : ccgc

 Nodes     nprocs
 n066         1
 ga_uses_ma=false, calling ma_init with nominal heap.
 GA-space will be limited to   8.0 MW (determined by -G option)

 Using customized tuning parameters: mindgm=10; mindgv=16; mindgc=4; mindgr=1; noblas=0; mincuda=1000; minvec=7
 default implementation of scratch files=df  

 ***,Optimization of min3
 memory,1000,m
 gthresh,energy=1.0d-12,orbital=1.0d-10,oneint=1.0d-16,twoint=1.0d-16,optgrad=1.0d-6,compress=1.0d-13
 geomtyp=xyz
 
 
 
  bohr
  geometry = {
  C   -0.2896600997    2.4011450662   -2.1338762912
  C    0.7641246088    0.0000000000   -0.8954639777
  C    0.1915681642   -0.0000000000    1.8324934141
  N   -0.2966473730   -0.0000000000    3.9758466812
  H    2.8235008022    0.0000000000   -1.0667110590
  C   -0.2896600997   -2.4011450662   -2.1338762912
  H   -2.3406628091   -2.4467458466   -1.9590071942
  H    0.4812064231   -4.0906918726   -1.2505608481
  H    0.2014853996   -2.4103636361   -4.1329481521
  H   -2.3406628091    2.4467458466   -1.9590071942
  H    0.2014853996    2.4103636361   -4.1329481521
  H    0.4812064231    4.0906918726   -1.2505608481
 }
 
 basis=cc-pvdz
 {rhf;maxit,200}
 {ccsd(t);maxit,200}

 Variables initialized (661), CPU time= 0.00 sec
 Commands  initialized (458), CPU time= 0.00 sec, 486 directives.
 Default parameters read. Elapsed time= 0.05 sec

 Checking input...
 Passed
1


                                         ***  PROGRAM SYSTEM MOLPRO  ***
                         Copyright, University College Cardiff Consultants Limited, 2008

                                    Version 2010.1 linked May 16 2016 07:17:05


 **********************************************************************************************************************************
 LABEL *   Optimization of min3                                                          
 Linux-4.4.3/n066(x86_64) 64 bit mpp version                                             DATE: 27-Oct-23          TIME: 10:48:19  
 **********************************************************************************************************************************

 SHA1:             9e8077add272b0f3cad6f7df79ec5211205f459d
 **********************************************************************************************************************************

 THRESHOLDS:

 ZERO    =  1.00D-12  ONEINT  =  1.00D-16  TWOINT  =  1.00D-16  PREFAC  =  1.00D-14  LOCALI  =  1.00D-09  EORDER  =  1.00D-04
 ENERGY  =  1.00D-12  ETEST   =  0.00D+00  EDENS   =  0.00D+00  THRDEDEF=  1.00D-06  GRADIENT=  1.00D-02  STEP    =  1.00D-03
 ORBITAL =  1.00D-10  CIVEC   =  1.00D-05  COEFF   =  1.00D-04  PRINTCI =  5.00D-02  PUNCHCI =  9.90D+01  OPTGRAD =  1.00D-06
 OPTENERG=  1.00D-06  OPTSTEP =  3.00D-04  THRGRAD =  1.00D-10  COMPRESS=  1.00D-13  VARMIN  =  1.00D-07  VARMAX  =  1.00D-03
 THRDOUB =  0.00D+00  THRDIV  =  1.00D-05  THRRED  =  1.00D-07  THRPSP  =  1.00D+00  THRDC   =  1.00D-10  THRCS   =  1.00D-10
 THRNRM  =  1.00D-08  THREQ   =  0.00D+00  THRDE   =  1.00D+00  THRREF  =  1.00D-05  SPARFAC =  1.00D+00  THRDLP  =  1.00D-07
 THRDIA  =  1.00D-10  THRDLS  =  1.00D-07  THRGPS  =  0.00D+00  THRKEX  =  0.00D+00  THRDIS  =  2.00D-01  THRVAR  =  1.00D-10
 THRLOC  =  1.00D-06  THRGAP  =  1.00D-06  THRLOCT = -1.00D+00  THRGAPT = -1.00D+00  THRORB  =  1.00D-06  THRMLTP =  0.00D+00
 THRCPQCI=  1.00D-10  KEXTA   =  0.00D+00  THRCOARS=  0.00D+00  SYMTOL  =  1.00D-06  GRADTOL =  1.00D-06  THROVL  =  1.00D-08
 THRORTH =  1.00D-08  GRID    =  1.00D-06  GRIDMAX =  1.00D-03  DTMAX   =  0.00D+00

 SETTING GEOMTYP        =    XYZ
 ZUNIT=BOHR
 

 Variable memory set to 1000000000 words,  buffer space   230000 words

 SETTING BASIS          =    CC-PVDZ


 Recomputing integrals since basis changed


 Using spherical harmonics

 Library entry C      S cc-pVDZ              selected for orbital group  1
 Library entry C      P cc-pVDZ              selected for orbital group  1
 Library entry C      D cc-pVDZ              selected for orbital group  1
 Library entry N      S cc-pVDZ              selected for orbital group  2
 Library entry N      P cc-pVDZ              selected for orbital group  2
 Library entry N      D cc-pVDZ              selected for orbital group  2
 Library entry H      S cc-pVDZ              selected for orbital group  3
 Library entry H      P cc-pVDZ              selected for orbital group  3

1PROGRAM * SEWARD (Integral evaluation for generally contracted gaussian basis sets)     Author: Roland Lindh, 1990

 Geometry written to block  1 of record 700


 Point group  Cs  



 ATOMIC COORDINATES

 NR  ATOM    CHARGE       X              Y              Z

   1  C       6.00   -0.289660100    2.401145066   -2.133876291
   2  C       6.00   -0.289660100   -2.401145066   -2.133876291
   3  C       6.00    0.764124609    0.000000000   -0.895463978
   4  C       6.00    0.191568164    0.000000000    1.832493414
   5  N       7.00   -0.296647373    0.000000000    3.975846681
   6  H       1.00    2.823500802    0.000000000   -1.066711059
   7  H       1.00   -2.340662809   -2.446745847   -1.959007194
   8  H       1.00   -2.340662809    2.446745847   -1.959007194
   9  H       1.00    0.481206423   -4.090691873   -1.250560848
  10  H       1.00    0.481206423    4.090691873   -1.250560848
  11  H       1.00    0.201485400   -2.410363636   -4.132948152
  12  H       1.00    0.201485400    2.410363636   -4.132948152

 Bond lengths in Bohr (Angstrom)

  1- 3  2.899935327   1- 8  2.058948942   1-10  2.056465361   1-12  2.058542491   2- 3  2.899935327
       ( 1.534579682)       ( 1.089548855)       ( 1.088234600)       ( 1.089333770)       ( 1.534579682)

  2- 7  2.058948942   2- 9  2.056465361   2-11  2.058542491   3- 4  2.787395274   3- 6  2.066483939
       ( 1.089548855)       ( 1.088234600)       ( 1.089333770)       ( 1.475026051)       ( 1.093536203)

 4-5  2.198253315
     ( 1.163265554)

 Bond angles

  1-3-2  111.78757136   1-3-4  110.07805272   1-3-6  109.07122528   2-3-4  110.07805272

  2- 3- 6  109.07122528   3- 1- 8  110.12370403   3- 1-10  111.13839572   3- 1-12  109.37320276

  3- 2- 7  110.12370403   3- 2- 9  111.13839572   3- 2-11  109.37320276   3- 4- 5  179.02148592

  4- 3- 6  106.60693501   7- 2- 9  108.58595506   7- 2-11  108.66574183   8- 1-10  108.58595506

  8- 1-12  108.66574183   9- 2-11  108.90546065  10- 1-12  108.90546065

 NUCLEAR CHARGE:                   38
 NUMBER OF PRIMITIVE AOS:         184
 NUMBER OF SYMMETRY AOS:          179
 NUMBER OF CONTRACTIONS:          105   (  63A'  +  42A"  )
 NUMBER OF CORE ORBITALS:           5   (   4A'  +   1A"  )
 NUMBER OF VALENCE ORBITALS:       27   (  17A'  +  10A"  )


 NUCLEAR REPULSION ENERGY  159.01994875


 Eigenvalues of metric

         1 0.197E-02 0.463E-02 0.601E-02 0.167E-01 0.195E-01 0.265E-01 0.359E-01 0.360E-01
         2 0.572E-02 0.209E-01 0.297E-01 0.318E-01 0.353E-01 0.362E-01 0.494E-01 0.598E-01


 Contracted 2-electron integrals neglected if value below      1.0D-16
 AO integral compression algorithm  1   Integral accuracy      1.0D-16

     69.992 MB (compressed) written to integral file ( 96.4%)

     Node minimum: 69.992 MB, node maximum: 69.992 MB


 NUMBER OF SORTED TWO-ELECTRON INTEGRALS:    7902636.     BUFFER LENGTH:  32768
 NUMBER OF SEGMENTS:   1  SEGMENT LENGTH:    7902636      RECORD LENGTH: 524288

 Memory used in sort:       8.46 MW

 SORT1 READ     9079307. AND WROTE     7856114. INTEGRALS IN     23 RECORDS. CPU TIME:     0.09 SEC, REAL TIME:     0.15 SEC
 SORT2 READ     7856114. AND WROTE     7902636. INTEGRALS IN    267 RECORDS. CPU TIME:     0.11 SEC, REAL TIME:     0.14 SEC

 FILE SIZES:   FILE 1:    64.6 MBYTE,  FILE 4:    96.5 MBYTE,   TOTAL:    161.1 MBYTE

 OPERATOR DM      FOR CENTER  0  COORDINATES:    0.000000    0.000000    0.000000


 **********************************************************************************************************************************
 DATASETS  * FILE   NREC   LENGTH (MB)   RECORD NAMES
              1      19       64.69       500      610      700      900      950      970     1000      129      960     1100   
                                          VAR    BASINP    GEOM    SYMINP    ZMAT    AOBASIS   BASIS     P2S    ABASIS      S 
                                         1400     1410     1200     1210     1080     1600     1650     1300     1700   
                                           T        V       H0       H01     AOSYM     SMH    MOLCAS    ERIS     OPER   

 PROGRAMS   *        TOTAL       INT
 CPU TIMES  *         1.41      1.37
 REAL TIME  *         1.72 SEC
 DISK USED  *       231.97 MB      
 GA USED    *         0.00 MB       (max)       0.00 MB       (current)
 **********************************************************************************************************************************

1PROGRAM * RHF-SCF (CLOSED SHELL)       Authors: W. Meyer, H.-J. Werner


 NUMBER OF ELECTRONS:      19+   19-
 CONVERGENCE THRESHOLDS:    1.00E-10 (Density)    1.00E-13 (Energy)
 MAX. NUMBER OF ITERATIONS:      200
 INTERPOLATION TYPE:            DIIS
 INTERPOLATION STEPS:              2 (START)      1 (STEP)
 LEVEL SHIFTS:                  0.00 (CLOSED)  0.00 (OPEN) 



 Orbital guess generated from atomic densities. Full valence occupancy:   21  11

 Molecular orbital dump at record        2100.2

 Initial alpha occupancy:  13   6
 Initial beta  occupancy:  13   6
 Wave function symmetry:    1

 ITERATION    DDIFF          GRAD             ENERGY        2-EL.EN.            DIPOLE MOMENTS         DIIS
    1      0.000D+00      0.000D+00      -209.94367102    457.260373    0.48721    0.00000   -2.24923    0
    2      0.000D+00      0.816D-02      -209.98969936    456.809920    0.15087    0.00000   -1.29451    1
    3      0.172D-01      0.572D-02      -210.01003399    456.495944    0.30698    0.00000   -1.70306    2
    4      0.765D-02      0.147D-02      -210.01228437    456.823374    0.29348    0.00000   -1.61478    3
    5      0.271D-02      0.326D-03      -210.01240319    456.664340    0.28707    0.00000   -1.62626    4
    6      0.590D-03      0.799D-04      -210.01241259    456.683167    0.28729    0.00000   -1.62436    5
    7      0.234D-03      0.220D-04      -210.01241314    456.681171    0.28764    0.00000   -1.62568    6
    8      0.424D-04      0.692D-05      -210.01241319    456.680853    0.28750    0.00000   -1.62579    7
    9      0.152D-04      0.149D-05      -210.01241320    456.680784    0.28753    0.00000   -1.62579    7
   10      0.365D-05      0.536D-06      -210.01241320    456.680883    0.28753    0.00000   -1.62581    7
   11      0.135D-05      0.285D-06      -210.01241320    456.680849    0.28753    0.00000   -1.62581    7
   12      0.974D-06      0.129D-06      -210.01241320    456.680866    0.28753    0.00000   -1.62581    7
   13      0.608D-06      0.329D-07      -210.01241320    456.680860    0.28753    0.00000   -1.62581    8
   14      0.156D-06      0.640D-08      -210.01241320    456.680859    0.28753    0.00000   -1.62581    8
   15      0.200D-07      0.255D-08      -210.01241320    456.680860    0.28753    0.00000   -1.62581    8
   16      0.490D-08      0.727D-09      -210.01241320    456.680860    0.28753    0.00000   -1.62581    8
   17      0.156D-08      0.140D-09      -210.01241320    456.680860    0.28753    0.00000   -1.62581    8
   18      0.319D-09      0.320D-10      -210.01241320    456.680860    0.28753    0.00000   -1.62581    7
   19      0.772D-10      0.908D-11      -210.01241320    456.680860    0.28753    0.00000   -1.62581    7
   20      0.213D-10      0.275D-11      -210.01241320    456.680860    0.28753    0.00000   -1.62581    7
   21      0.751D-11      0.114D-11      -210.01241320    456.680860    0.28753    0.00000   -1.62581    7
   22      0.292D-11      0.566D-12      -210.01241320    456.680860    0.28753    0.00000   -1.62581    7
   23      0.175D-11      0.269D-12      -210.01241320    456.680860    0.28753    0.00000   -1.62581    7
   24      0.116D-11      0.105D-12      -210.01241320    456.680860    0.28753    0.00000   -1.62581    8
   25      0.497D-12      0.504D-13      -210.01241320    456.680860    0.28753    0.00000   -1.62581    9
   26      0.255D-12      0.382D-13      -210.01241320    456.680860    0.28753    0.00000   -1.62581    9
   27      0.172D-12      0.238D-13      -210.01241320    456.680860    0.28753    0.00000   -1.62581    9
   28      0.121D-12      0.241D-13      -210.01241320    456.680860    0.28753    0.00000   -1.62581    9
   29      0.647D-13      0.220D-13      -210.01241320    456.680860    0.28753    0.00000   -1.62581    0

 Final occupancy:  13   6

 !RHF STATE 1.1 Energy               -210.012413196524
 Nuclear energy                       159.01994875
 One-electron energy                 -597.37279172
 Two-electron energy                  228.34042977
 Virial quotient                       -1.00154395
 !RHF STATE 1.1 Dipole moment           0.28752828     0.00000000    -1.62581041
 Dipole moment /Debye                   0.73077613     0.00000000    -4.13212721

 Orbital energies:

         1.1          2.1          3.1          4.1          5.1          6.1          7.1          8.1          9.1         10.1
    -15.572539   -11.289817   -11.274673   -11.249430    -1.212597    -1.108012    -0.876581    -0.704310    -0.642987    -0.572871

        11.1         12.1         13.1         14.1         15.1
     -0.530540    -0.523876    -0.447259     0.155308     0.207259

         1.2          2.2          3.2          4.2          5.2          6.2          7.2          8.2
    -11.249448    -0.961428    -0.597182    -0.564700    -0.520480    -0.447236     0.190515     0.248379


 **********************************************************************************************************************************
 DATASETS  * FILE   NREC   LENGTH (MB)   RECORD NAMES
              1      19       64.69       500      610      700      900      950      970     1000      129      960     1100   
                                          VAR    BASINP    GEOM    SYMINP    ZMAT    AOBASIS   BASIS     P2S    ABASIS      S 
                                         1400     1410     1200     1210     1080     1600     1650     1300     1700   
                                           T        V       H0       H01     AOSYM     SMH    MOLCAS    ERIS     OPER   

              2       3        0.57       700     1000     2100   
                                         GEOM     BASIS     RHF  

 PROGRAMS   *        TOTAL       RHF       INT
 CPU TIMES  *         2.57      1.16      1.37
 REAL TIME  *         3.10 SEC
 DISK USED  *       231.97 MB      
 GA USED    *         0.00 MB       (max)       0.00 MB       (current)
 **********************************************************************************************************************************


1PROGRAM * CCSD (Closed-shell coupled cluster)     Authors: C. Hampel, H.-J. Werner, 1991, M. Deegan, P.J. Knowles, 1992


 Convergence thresholds:  THRVAR = 1.00D-08  THRDEN = 1.00D-12

 CCSD(T)     terms to be evaluated (factor= 1.000)


 Number of core orbitals:           5 (   4   1 )
 Number of closed-shell orbitals:  14 (   9   5 )
 Number of external orbitals:      86 (  50  36 )

 Molecular orbitals read from record     2100.2  Type=RHF/CANONICAL (state 1.1)

 Number of N-1 electron functions:              14
 Number of N-2 electron functions:             105
 Number of singly external CSFs:               630
 Number of doubly external CSFs:            363790
 Total number of CSFs:                      364421

 Length of J-op  integral file:               0.00 MB
 Length of K-op  integral file:               0.43 MB
 Length of 3-ext integral record:             0.00 MB

 Memory could be reduced to 6.52 Mwords without degradation in triples

 Integral transformation finished. Total CPU:   0.27 sec, npass=  1  Memory used:   3.66 MW

 Reference energy:                   -210.01241320

 MP2 singlet pair energy:              -0.45147019
 MP2 triplet pair energy:              -0.25974814
 MP2 correlation energy:               -0.71121833
 MP2 total energy:                   -210.72363153

 SCS-MP2 correlation energy:           -0.70338530   (PS=  1.200000  PT=  0.333333)
 SCS-MP2 total energy:               -210.71579849

 ITER.      SQ.NORM     CORR.ENERGY   TOTAL ENERGY   ENERGY CHANGE        DEN1      VAR(S)    VAR(P)  DIIS     TIME
   1      1.26990478    -0.75326745  -210.76568065    -0.04204912    -0.01887913  0.35D-02  0.56D-02  1  1     0.74
   2      1.29252133    -0.75691493  -210.76932813    -0.00364748    -0.02202156  0.58D-04  0.75D-03  2  2     1.25
   3      1.29987733    -0.75728951  -210.76970271    -0.00037458    -0.00406328  0.27D-04  0.55D-04  3  3     1.76
   4      1.30243779    -0.75738580  -210.76979900    -0.00009629    -0.00100603  0.13D-05  0.65D-05  4  4     2.26
   5      1.30300472    -0.75739434  -210.76980753    -0.00000854    -0.00016799  0.16D-06  0.78D-06  5  5     2.78
   6      1.30312725    -0.75738879  -210.76980199     0.00000555    -0.00003119  0.97D-08  0.53D-07  6  6     3.29
   7      1.30314537    -0.75739119  -210.76980438    -0.00000239    -0.00000403  0.15D-08  0.48D-08  6  2     3.79
   8      1.30314680    -0.75739111  -210.76980431     0.00000007    -0.00000003  0.14D-09  0.42D-09  6  1     4.30
   9      1.30314715    -0.75739110  -210.76980429     0.00000002     0.00000023  0.17D-10  0.36D-10  6  3     4.81
  10      1.30314741    -0.75739111  -210.76980431    -0.00000001    -0.00000006  0.17D-11  0.33D-11  6  4     5.32
  11      1.30314703    -0.75739114  -210.76980433    -0.00000002     0.00000022  0.35D-12  0.34D-12  6  6     5.82
  12      1.30314696    -0.75739114  -210.76980434    -0.00000001     0.00000004  0.44D-13  0.26D-13  6  5     6.33
  13      1.30314693    -0.75739114  -210.76980434    -0.00000000     0.00000002  0.52D-14  0.45D-14  6  2     6.84
  14      1.30314692    -0.75739114  -210.76980434     0.00000000     0.00000000  0.15D-14  0.65D-15  6  1     7.35
  15      1.30314692    -0.75739114  -210.76980434     0.00000000    -0.00000000  0.98D-16  0.10D-15  6  4     7.86
  16      1.30314692    -0.75739114  -210.76980434     0.00000000    -0.00000000  0.15D-16  0.70D-17  6  3     8.37
  17      1.30314692    -0.75739114  -210.76980434     0.00000000    -0.00000000  0.33D-17  0.15D-17  6  6     8.89
  18      1.30314692    -0.75739114  -210.76980434    -0.00000000    -0.00000000  0.53D-18  0.25D-18  6  5     9.40
  19      1.30314692    -0.75739114  -210.76980434     0.00000000     0.00000000  0.59D-19  0.41D-19  6  2     9.91
  20      1.30314692    -0.75739114  -210.76980434     0.00000000    -0.00000000  0.62D-20  0.39D-20  6  4    10.42

 Norm of t1 vector:      0.07768865      S-energy:    -0.00000000      T1 diagnostic:  0.01038158
                                                                       D1 diagnostic:  0.02936441


 Total CPU time for triples:      6.89 sec


 RESULTS
 =======

  Reference energy                   -210.012413196524
  CCSD singlet pair energy             -0.527079170689
  CCSD triplet pair energy             -0.230311972650
  CCSD correlation energy              -0.757391143340

  Triples (T) contribution             -0.026769795442
  Total correlation energy             -0.784160938782

  CCSD total energy                  -210.769804339864
  CCSD[T] energy                     -210.797581878333
  CCSD-T energy                      -210.796105087719
 !CCSD(T) total energy               -210.796574135306

 Timing summary (sec):

 STEP                 CPU(USER)    SYS     CPU(TOT)    WALL
 Transformation          0.28      0.05      0.33      0.33
 CCSD iterations        10.14      0.49     10.63     10.66
 Triples                 6.89      0.22      7.11      7.12

 Program statistics:

 Available memory in ccsd:               999999116
 Min. memory needed in ccsd:               1015801
 Max. memory used in ccsd:                 1336471
 Max. memory used in cckext:               1413641 (20 integral passes)



 **********************************************************************************************************************************
 DATASETS  * FILE   NREC   LENGTH (MB)   RECORD NAMES
              1      20       90.16       500      610      700      900      950      970     1000      129      960     1100   
                                          VAR    BASINP    GEOM    SYMINP    ZMAT    AOBASIS   BASIS     P2S    ABASIS      S 
                                         1400     1410     1200     1210     1080     1600     1650     1300     1700     1380   
                                           T        V       H0       H01     AOSYM     SMH    MOLCAS    ERIS     OPER     JKOP   

              2       3        0.57       700     1000     2100   
                                         GEOM     BASIS     RHF  

 PROGRAMS   *        TOTAL   CCSD(T)       RHF       INT
 CPU TIMES  *        19.89     17.31      1.16      1.37
 REAL TIME  *        21.25 SEC
 DISK USED  *       231.97 MB      
 GA USED    *         0.00 MB       (max)       0.00 MB       (current)
 **********************************************************************************************************************************

        CCSD(T)         RHF-SCF 
   -210.79657414   -210.01241320
 **********************************************************************************************************************************
 Variable memory released
