
 Primary working directories    : /tmp/856074.586.gen4.q
 Secondary working directories  : /tmp/856074.586.gen4.q
 Wavefunction directory         : /home/vulcan/lo21740/wfu/
 Main file repository           : /tmp/856074.586.gen4.q/

 ARCHNAME  : Linux/x86_64
 FC        : /opt/intel/compilers_and_libraries_2016.1.150/linux/bin/intel64/ifort
 FCVERSION : 16.0.1
 BLASLIB   : -mkl
 id        : ccgc

 Nodes     nprocs
 n067         1
 ga_uses_ma=false, calling ma_init with nominal heap.
 GA-space will be limited to   8.0 MW (determined by -G option)

 Using customized tuning parameters: mindgm=10; mindgv=16; mindgc=4; mindgr=1; noblas=0; mincuda=1000; minvec=7
 default implementation of scratch files=df  

 ***,Optimization of h2o_2
 memory,1000,m
 gthresh,energy=1.0d-12,orbital=1.0d-10,oneint=1.0d-16,twoint=1.0d-16,optgrad=1.0d-6,compress=1.0d-13
 geomtyp=xyz
 
 bohr
 geometry = {
  C    0.0004519761   -3.4209308792    0.0005986269
  H   -0.9717871533   -2.7307742840   -1.6842886491
  H   -0.9699166610   -2.7309469740    1.6793306499
  H    1.9421225612   -2.7295357208   -0.0008576840
  H    0.0013882824   -5.4872183711    0.0052122577
  C   -0.0004527109    3.4225633559    0.0006051321
  H   -0.0013852544    5.4758888744    0.0051955652
  H    0.9707681933    2.7340109825   -1.6825184654
  H    0.9688971163    2.7341746356    1.6775733122
  H   -1.9400863498    2.7327683805   -0.0008507455
 }
 
 basis=VDZ
 {rhf;maxit,200}
 {ccsd(t);maxit,200}

 Variables initialized (661), CPU time= 0.01 sec
 Commands  initialized (458), CPU time= 0.00 sec, 486 directives.
 Default parameters read. Elapsed time= 0.05 sec

 Checking input...
 Passed
1


                                         ***  PROGRAM SYSTEM MOLPRO  ***
                         Copyright, University College Cardiff Consultants Limited, 2008

                                    Version 2010.1 linked May 16 2016 07:17:05


 **********************************************************************************************************************************
 LABEL *   Optimization of h2o_2                                                         
 Linux-4.4.3/n067(x86_64) 64 bit mpp version                                             DATE: 12-Apr-23          TIME: 13:55:25  
 **********************************************************************************************************************************

 SHA1:             9e8077add272b0f3cad6f7df79ec5211205f459d
 **********************************************************************************************************************************

 THRESHOLDS:

 ZERO    =  1.00D-12  ONEINT  =  1.00D-16  TWOINT  =  1.00D-16  PREFAC  =  1.00D-14  LOCALI  =  1.00D-09  EORDER  =  1.00D-04
 ENERGY  =  1.00D-12  ETEST   =  0.00D+00  EDENS   =  0.00D+00  THRDEDEF=  1.00D-06  GRADIENT=  1.00D-02  STEP    =  1.00D-03
 ORBITAL =  1.00D-10  CIVEC   =  1.00D-05  COEFF   =  1.00D-04  PRINTCI =  5.00D-02  PUNCHCI =  9.90D+01  OPTGRAD =  1.00D-06
 OPTENERG=  1.00D-06  OPTSTEP =  3.00D-04  THRGRAD =  1.00D-10  COMPRESS=  1.00D-13  VARMIN  =  1.00D-07  VARMAX  =  1.00D-03
 THRDOUB =  0.00D+00  THRDIV  =  1.00D-05  THRRED  =  1.00D-07  THRPSP  =  1.00D+00  THRDC   =  1.00D-10  THRCS   =  1.00D-10
 THRNRM  =  1.00D-08  THREQ   =  0.00D+00  THRDE   =  1.00D+00  THRREF  =  1.00D-05  SPARFAC =  1.00D+00  THRDLP  =  1.00D-07
 THRDIA  =  1.00D-10  THRDLS  =  1.00D-07  THRGPS  =  0.00D+00  THRKEX  =  0.00D+00  THRDIS  =  2.00D-01  THRVAR  =  1.00D-10
 THRLOC  =  1.00D-06  THRGAP  =  1.00D-06  THRLOCT = -1.00D+00  THRGAPT = -1.00D+00  THRORB  =  1.00D-06  THRMLTP =  0.00D+00
 THRCPQCI=  1.00D-10  KEXTA   =  0.00D+00  THRCOARS=  0.00D+00  SYMTOL  =  1.00D-06  GRADTOL =  1.00D-06  THROVL  =  1.00D-08
 THRORTH =  1.00D-08  GRID    =  1.00D-06  GRIDMAX =  1.00D-03  DTMAX   =  0.00D+00

 SETTING GEOMTYP        =    XYZ
 ZUNIT=BOHR
 

 Variable memory set to 1000000000 words,  buffer space   230000 words

 SETTING BASIS          =    VDZ


 Recomputing integrals since basis changed


 Using spherical harmonics

 Library entry C      S cc-pVDZ              selected for orbital group  1
 Library entry C      P cc-pVDZ              selected for orbital group  1
 Library entry C      D cc-pVDZ              selected for orbital group  1
 Library entry H      S cc-pVDZ              selected for orbital group  2
 Library entry H      P cc-pVDZ              selected for orbital group  2

1PROGRAM * SEWARD (Integral evaluation for generally contracted gaussian basis sets)     Author: Roland Lindh, 1990

 Geometry written to block  1 of record 700


 Point group  C1  



 ATOMIC COORDINATES

 NR  ATOM    CHARGE       X              Y              Z

   1  C       6.00    0.000451976   -3.420930879    0.000598627
   2  H       1.00   -0.971787153   -2.730774284   -1.684288649
   3  H       1.00   -0.969916661   -2.730946974    1.679330650
   4  H       1.00    1.942122561   -2.729535721   -0.000857684
   5  H       1.00    0.001388282   -5.487218371    0.005212258
   6  C       6.00   -0.000452711    3.422563356    0.000605132
   7  H       1.00   -0.001385254    5.475888874    0.005195565
   8  H       1.00    0.970768193    2.734010983   -1.682518465
   9  H       1.00    0.968897116    2.734174636    1.677573312
  10  H       1.00   -1.940086350    2.732768381   -0.000850746

 Bond lengths in Bohr (Angstrom)

 1-2  2.064076109  1-3  2.058114255  1-4  2.061095351  1-5  2.066292855  6-7  2.053330861
     ( 1.092262034)     ( 1.089107157)     ( 1.090684685)     ( 1.093435086)     ( 1.086575894)

  6- 8  2.061620591   6- 9  2.055660574   6-10  2.058639813
       ( 1.090962630)       ( 1.087808725)       ( 1.089385271)

 Bond angles

  2-1-3  109.36842656   2-1-4  109.32925688   2-1-5  109.65775802   3-1-4  109.40733195

  3-1-5  109.48998518   4-1-5  109.57400832   7-6-8  109.63483281   7-6-9  109.46702108

  7- 6-10  109.55101135   8- 6- 9  109.39145665   8- 6-10  109.35228753   9- 6-10  109.43038971

 NUCLEAR CHARGE:                   20
 NUMBER OF PRIMITIVE AOS:         110
 NUMBER OF SYMMETRY AOS:          108
 NUMBER OF CONTRACTIONS:           68   (  68A   )
 NUMBER OF CORE ORBITALS:           2   (   2A   )
 NUMBER OF VALENCE ORBITALS:       16   (  16A   )


 NUCLEAR REPULSION ENERGY   41.34205883


 Eigenvalues of metric

         1 0.113E-01 0.127E-01 0.348E-01 0.348E-01 0.355E-01 0.375E-01 0.383E-01 0.383E-01


 Contracted 2-electron integrals neglected if value below      1.0D-16
 AO integral compression algorithm  1   Integral accuracy      1.0D-16

     21.496 MB (compressed) written to integral file ( 87.0%)

     Node minimum: 21.496 MB, node maximum: 21.496 MB


 NUMBER OF SORTED TWO-ELECTRON INTEGRALS:    2753031.     BUFFER LENGTH:  32768
 NUMBER OF SEGMENTS:   1  SEGMENT LENGTH:    2753031      RECORD LENGTH: 524288

 Memory used in sort:       3.31 MW

 SORT1 READ     3104305. AND WROTE     2686211. INTEGRALS IN      8 RECORDS. CPU TIME:     0.03 SEC, REAL TIME:     0.05 SEC
 SORT2 READ     2686211. AND WROTE     2753031. INTEGRALS IN     82 RECORDS. CPU TIME:     0.06 SEC, REAL TIME:     0.06 SEC

 FILE SIZES:   FILE 1:    21.4 MBYTE,  FILE 4:    33.6 MBYTE,   TOTAL:     55.0 MBYTE

 OPERATOR DM      FOR CENTER  0  COORDINATES:    0.000000    0.000000    0.000000


 **********************************************************************************************************************************
 DATASETS  * FILE   NREC   LENGTH (MB)   RECORD NAMES
              1      19       21.50       500      610      700      900      950      970     1000      129      960     1100   
                                          VAR    BASINP    GEOM    SYMINP    ZMAT    AOBASIS   BASIS     P2S    ABASIS      S 
                                         1400     1410     1200     1210     1080     1600     1650     1300     1700   
                                           T        V       H0       H01     AOSYM     SMH    MOLCAS    ERIS     OPER   

 PROGRAMS   *        TOTAL       INT
 CPU TIMES  *         0.48      0.43
 REAL TIME  *         0.69 SEC
 DISK USED  *        77.29 MB      
 GA USED    *         0.00 MB       (max)       0.00 MB       (current)
 **********************************************************************************************************************************

1PROGRAM * RHF-SCF (CLOSED SHELL)       Authors: W. Meyer, H.-J. Werner


 NUMBER OF ELECTRONS:      10+   10-    SPACE SYMMETRY=1    SPIN SYMMETRY: Singlet 
 CONVERGENCE THRESHOLDS:    1.00E-10 (Density)    1.00E-13 (Energy)
 MAX. NUMBER OF ITERATIONS:      200
 INTERPOLATION TYPE:            DIIS
 INTERPOLATION STEPS:              2 (START)      1 (STEP)
 LEVEL SHIFTS:                  0.00 (CLOSED)  0.00 (OPEN) 



 Orbital guess generated from atomic densities. Full valence occupancy:   18

 Molecular orbital dump at record        2100.2

 ITERATION    DDIFF          GRAD             ENERGY        2-EL.EN.            DIPOLE MOMENTS         DIIS
    1      0.000D+00      0.000D+00       -80.35960429    134.829405    0.00000   -0.00244   -0.00199    0
    2      0.000D+00      0.637D-02       -80.39227463    132.549854   -0.00000    0.00123    0.00132    1
    3      0.132D-01      0.234D-02       -80.39613647    133.351256   -0.00000    0.00143    0.00136    2
    4      0.460D-02      0.630D-03       -80.39666516    133.214439   -0.00000    0.00194    0.00173    3
    5      0.165D-02      0.664D-04       -80.39666968    133.220466   -0.00000    0.00202    0.00178    4
    6      0.233D-03      0.398D-05       -80.39666970    133.220328   -0.00000    0.00203    0.00179    5
    7      0.205D-04      0.474D-06       -80.39666970    133.220327   -0.00000    0.00204    0.00179    5
    8      0.120D-05      0.166D-06       -80.39666970    133.220326   -0.00000    0.00204    0.00179    5
    9      0.320D-06      0.204D-07       -80.39666970    133.220327   -0.00000    0.00204    0.00179    5
   10      0.618D-07      0.484D-08       -80.39666970    133.220328   -0.00000    0.00204    0.00179    5
   11      0.173D-07      0.680D-09       -80.39666970    133.220328   -0.00000    0.00204    0.00179    6
   12      0.194D-08      0.141D-09       -80.39666970    133.220328   -0.00000    0.00204    0.00179    6
   13      0.376D-09      0.421D-10       -80.39666970    133.220328   -0.00000    0.00204    0.00179    6
   14      0.923D-10      0.972D-11       -80.39666970    133.220328   -0.00000    0.00204    0.00179    6
   15      0.272D-10      0.145D-11       -80.39666970    133.220328   -0.00000    0.00204    0.00179    0

 Final occupancy:  10

 !RHF STATE 1.1 Energy                -80.396669699382
 Nuclear energy                        41.34205883
 One-electron energy                 -188.34889234
 Two-electron energy                   66.61016381
 Virial quotient                       -1.00229797
 !RHF STATE 1.1 Dipole moment          -0.00000104     0.00203867     0.00178875
 Dipole moment /Debye                  -0.00000265     0.00518143     0.00454625

 Orbital energies:

         1.1          2.1          3.1          4.1          5.1          6.1          7.1          8.1          9.1         10.1
    -11.215906   -11.214702    -0.944322    -0.938341    -0.549735    -0.545398    -0.545366    -0.538031    -0.537999    -0.534483

        11.1         12.1
      0.172446     0.229266


 **********************************************************************************************************************************
 DATASETS  * FILE   NREC   LENGTH (MB)   RECORD NAMES
              1      19       21.50       500      610      700      900      950      970     1000      129      960     1100   
                                          VAR    BASINP    GEOM    SYMINP    ZMAT    AOBASIS   BASIS     P2S    ABASIS      S 
                                         1400     1410     1200     1210     1080     1600     1650     1300     1700   
                                           T        V       H0       H01     AOSYM     SMH    MOLCAS    ERIS     OPER   

              2       3        0.51       700     1000     2100   
                                         GEOM     BASIS     RHF  

 PROGRAMS   *        TOTAL       RHF       INT
 CPU TIMES  *         0.82      0.34      0.43
 REAL TIME  *         1.08 SEC
 DISK USED  *        77.29 MB      
 GA USED    *         0.00 MB       (max)       0.00 MB       (current)
 **********************************************************************************************************************************


1PROGRAM * CCSD (Closed-shell coupled cluster)     Authors: C. Hampel, H.-J. Werner, 1991, M. Deegan, P.J. Knowles, 1992


 Convergence thresholds:  THRVAR = 1.00D-08  THRDEN = 1.00D-12

 CCSD(T)     terms to be evaluated (factor= 1.000)


 Number of core orbitals:           2 (   2 )
 Number of closed-shell orbitals:   8 (   8 )
 Number of external orbitals:      58 (  58 )

 Molecular orbitals read from record     2100.2  Type=RHF/CANONICAL (state 1.1)

 Number of N-1 electron functions:               8
 Number of N-2 electron functions:              36
 Number of singly external CSFs:               464
 Number of doubly external CSFs:            107880
 Total number of CSFs:                      108345

 Length of J-op  integral file:               0.00 MB
 Length of K-op  integral file:               0.35 MB
 Length of 3-ext integral record:             0.00 MB

 Memory could be reduced to 2.66 Mwords without degradation in triples

 Integral transformation finished. Total CPU:   0.08 sec, npass=  1  Memory used:   1.86 MW

 Reference energy:                    -80.39666970

 MP2 singlet pair energy:              -0.23207769
 MP2 triplet pair energy:              -0.09154901
 MP2 correlation energy:               -0.32362669
 MP2 total energy:                    -80.72029639

 SCS-MP2 correlation energy:           -0.33545705   (PS=  1.200000  PT=  0.333333)
 SCS-MP2 total energy:                -80.73212675

 ITER.      SQ.NORM     CORR.ENERGY   TOTAL ENERGY   ENERGY CHANGE        DEN1      VAR(S)    VAR(P)  DIIS     TIME
   1      1.13421080    -0.36752834   -80.76419804    -0.04390164    -0.03297771  0.50D-03  0.24D-02  1  1     0.21
   2      1.14682041    -0.37032575   -80.76699545    -0.00279741    -0.01276599  0.15D-04  0.96D-04  2  2     0.36
   3      1.14861131    -0.37049682   -80.76716652    -0.00017107    -0.00095421  0.17D-05  0.56D-05  3  3     0.51
   4      1.14897941    -0.37051710   -80.76718680    -0.00002028    -0.00016611  0.25D-07  0.35D-06  4  4     0.66
   5      1.14902541    -0.37051462   -80.76718432     0.00000248    -0.00002397  0.18D-08  0.18D-07  5  5     0.81
   6      1.14902672    -0.37051456   -80.76718426     0.00000006    -0.00000010  0.19D-09  0.12D-08  6  6     0.96
   7      1.14902682    -0.37051482   -80.76718452    -0.00000026     0.00000012  0.13D-10  0.71D-10  6  1     1.11
   8      1.14902699    -0.37051482   -80.76718452     0.00000001    -0.00000013  0.15D-11  0.41D-11  6  2     1.26
   9      1.14902702    -0.37051480   -80.76718450     0.00000001    -0.00000003  0.15D-12  0.26D-12  6  3     1.41
  10      1.14902701    -0.37051480   -80.76718450     0.00000000     0.00000001  0.11D-13  0.23D-13  6  4     1.56
  11      1.14902700    -0.37051480   -80.76718450    -0.00000000     0.00000001  0.80D-15  0.19D-14  6  5     1.71
  12      1.14902700    -0.37051480   -80.76718450    -0.00000000     0.00000000  0.43D-16  0.23D-15  6  6     1.86
  13      1.14902700    -0.37051480   -80.76718450    -0.00000000     0.00000000  0.34D-17  0.28D-16  6  1     2.01
  14      1.14902700    -0.37051480   -80.76718450     0.00000000     0.00000000  0.60D-18  0.37D-17  6  2     2.16
  15      1.14902700    -0.37051480   -80.76718450     0.00000000     0.00000000  0.72D-19  0.37D-18  6  3     2.30
  16      1.14902700    -0.37051480   -80.76718450    -0.00000000     0.00000000  0.16D-20  0.21D-19  6  5     2.45
  17      1.14902700    -0.37051480   -80.76718450    -0.00000000     0.00000000  0.18D-21  0.57D-21  6  4     2.60
  18      1.14902700    -0.37051480   -80.76718450     0.00000000    -0.00000000  0.45D-22  0.52D-22  6  6     2.75

 Norm of t1 vector:      0.03062806      S-energy:    -0.00000000      T1 diagnostic:  0.00541433
                                                                       D1 diagnostic:  0.00880648


 Total CPU time for triples:      1.09 sec


 RESULTS
 =======

  Reference energy                    -80.396669699382
  CCSD singlet pair energy             -0.281841290503
  CCSD triplet pair energy             -0.088673513412
  CCSD correlation energy              -0.370514803916

  Triples (T) contribution             -0.007535693094
  Total correlation energy             -0.378050497010

  CCSD total energy                   -80.767184503297
  CCSD[T] energy                      -80.774896395155
  CCSD-T energy                       -80.774625753055
 !CCSD(T) total energy                -80.774720196392

 Timing summary (sec):

 STEP                 CPU(USER)    SYS     CPU(TOT)    WALL
 Transformation          0.08      0.02      0.10      0.10
 CCSD iterations         2.67      0.11      2.78      2.81
 Triples                 1.09      0.03      1.12      1.12

 Program statistics:

 Available memory in ccsd:               999999644
 Min. memory needed in ccsd:                356281
 Max. memory used in ccsd:                  442401
 Max. memory used in cckext:                403930 (18 integral passes)



 **********************************************************************************************************************************
 DATASETS  * FILE   NREC   LENGTH (MB)   RECORD NAMES
              1      20       29.95       500      610      700      900      950      970     1000      129      960     1100   
                                          VAR    BASINP    GEOM    SYMINP    ZMAT    AOBASIS   BASIS     P2S    ABASIS      S 
                                         1400     1410     1200     1210     1080     1600     1650     1300     1700     1380   
                                           T        V       H0       H01     AOSYM     SMH    MOLCAS    ERIS     OPER     JKOP   

              2       3        0.51       700     1000     2100   
                                         GEOM     BASIS     RHF  

 PROGRAMS   *        TOTAL   CCSD(T)       RHF       INT
 CPU TIMES  *         4.67      3.85      0.34      0.43
 REAL TIME  *         5.13 SEC
 DISK USED  *        77.29 MB      
 GA USED    *         0.00 MB       (max)       0.00 MB       (current)
 **********************************************************************************************************************************

        CCSD(T)         RHF-SCF 
    -80.77472020    -80.39666970
 **********************************************************************************************************************************
 Variable memory released
