
 Primary working directories    : /tmp/662446.104.gen6.q
 Secondary working directories  : /tmp/662446.104.gen6.q
 Wavefunction directory         : /home/vulcan/mel64643/wfu/
 Main file repository           : /tmp/662446.104.gen6.q/

 ARCHNAME  : Linux/x86_64
 FC        : /opt/intel/compilers_and_libraries_2016.1.150/linux/bin/intel64/ifort
 FCVERSION : 16.0.1
 BLASLIB   : -mkl
 id        : ccgc

 Nodes     nprocs
 n084         1
 ga_uses_ma=false, calling ma_init with nominal heap.
 GA-space will be limited to   8.0 MW (determined by -G option)

 Using customized tuning parameters: mindgm=10; mindgv=16; mindgc=4; mindgr=1; noblas=0; mincuda=1000; minvec=7
 default implementation of scratch files=df  

 ***,Optimization of min3
 memory,1000,m
 gthresh,energy=1.0d-12,orbital=1.0d-10,oneint=1.0d-16,twoint=1.0d-16,optgrad=1.0d-6,compress=1.0d-13
 geomtyp=xyz
 
 
 
  bohr
  geometry = {
  C    0.0000000000   -0.0000000000    1.6732633562
  H   -0.0037713313   -1.7299976014    2.7872890609
  H    0.0037713313    1.7299976014    2.7872890609
  C    1.2298215385   -0.0026358310   -0.9102154224
  C   -1.2298215385    0.0026358310   -0.9102154224
  H    2.9946215930    0.0032697785   -1.9245872816
  H   -2.9946215930   -0.0032697785   -1.9245872816
 }
 
 basis=cc-pvdz
 {rhf;maxit,200}
 {ccsd(t);maxit,200}

 Variables initialized (661), CPU time= 0.00 sec
 Commands  initialized (458), CPU time= 0.00 sec, 486 directives.
 Default parameters read. Elapsed time= 0.04 sec

 Checking input...
 Passed
1


                                         ***  PROGRAM SYSTEM MOLPRO  ***
                         Copyright, University College Cardiff Consultants Limited, 2008

                                    Version 2010.1 linked May 16 2016 07:17:05


 **********************************************************************************************************************************
 LABEL *   Optimization of min3                                                          
 Linux-4.4.3/n084(x86_64) 64 bit mpp version                                             DATE: 18-Mar-22          TIME: 17:54:46  
 **********************************************************************************************************************************

 SHA1:             9e8077add272b0f3cad6f7df79ec5211205f459d
 **********************************************************************************************************************************

 THRESHOLDS:

 ZERO    =  1.00D-12  ONEINT  =  1.00D-16  TWOINT  =  1.00D-16  PREFAC  =  1.00D-14  LOCALI  =  1.00D-09  EORDER  =  1.00D-04
 ENERGY  =  1.00D-12  ETEST   =  0.00D+00  EDENS   =  0.00D+00  THRDEDEF=  1.00D-06  GRADIENT=  1.00D-02  STEP    =  1.00D-03
 ORBITAL =  1.00D-10  CIVEC   =  1.00D-05  COEFF   =  1.00D-04  PRINTCI =  5.00D-02  PUNCHCI =  9.90D+01  OPTGRAD =  1.00D-06
 OPTENERG=  1.00D-06  OPTSTEP =  3.00D-04  THRGRAD =  1.00D-10  COMPRESS=  1.00D-13  VARMIN  =  1.00D-07  VARMAX  =  1.00D-03
 THRDOUB =  0.00D+00  THRDIV  =  1.00D-05  THRRED  =  1.00D-07  THRPSP  =  1.00D+00  THRDC   =  1.00D-10  THRCS   =  1.00D-10
 THRNRM  =  1.00D-08  THREQ   =  0.00D+00  THRDE   =  1.00D+00  THRREF  =  1.00D-05  SPARFAC =  1.00D+00  THRDLP  =  1.00D-07
 THRDIA  =  1.00D-10  THRDLS  =  1.00D-07  THRGPS  =  0.00D+00  THRKEX  =  0.00D+00  THRDIS  =  2.00D-01  THRVAR  =  1.00D-10
 THRLOC  =  1.00D-06  THRGAP  =  1.00D-06  THRLOCT = -1.00D+00  THRGAPT = -1.00D+00  THRORB  =  1.00D-06  THRMLTP =  0.00D+00
 THRCPQCI=  1.00D-10  KEXTA   =  0.00D+00  THRCOARS=  0.00D+00  SYMTOL  =  1.00D-06  GRADTOL =  1.00D-06  THROVL  =  1.00D-08
 THRORTH =  1.00D-08  GRID    =  1.00D-06  GRIDMAX =  1.00D-03  DTMAX   =  0.00D+00

 SETTING GEOMTYP        =    XYZ
 ZUNIT=BOHR
 

 Variable memory set to 1000000000 words,  buffer space   230000 words

 SETTING BASIS          =    CC-PVDZ


 Recomputing integrals since basis changed


 Using spherical harmonics

 Library entry C      S cc-pVDZ              selected for orbital group  1
 Library entry C      P cc-pVDZ              selected for orbital group  1
 Library entry C      D cc-pVDZ              selected for orbital group  1
 Library entry H      S cc-pVDZ              selected for orbital group  2
 Library entry H      P cc-pVDZ              selected for orbital group  2

1PROGRAM * SEWARD (Integral evaluation for generally contracted gaussian basis sets)     Author: Roland Lindh, 1990

 Geometry written to block  1 of record 700


 Point group  C2  



 ATOMIC COORDINATES

 NR  ATOM    CHARGE       X              Y              Z

   1  C       6.00    0.000000000    0.000000000    1.673263356
   2  H       1.00   -0.003771331   -1.729997601    2.787289061
   3  H       1.00    0.003771331    1.729997601    2.787289061
   4  C       6.00    1.229821538   -0.002635831   -0.910215422
   5  C       6.00   -1.229821538    0.002635831   -0.910215422
   6  H       1.00    2.994621593    0.003269778   -1.924587282
   7  H       1.00   -2.994621593   -0.003269778   -1.924587282

 Bond lengths in Bohr (Angstrom)

 1-2  2.057658668  1-3  2.057658668  1-4  2.861263805  1-5  2.861263805  4-5  2.459648726
     ( 1.088866071)     ( 1.088866071)     ( 1.514115595)     ( 1.514115595)     ( 1.301590048)

 4-6  2.035559967  5-7  2.035559967
     ( 1.077171942)     ( 1.077171942)

 Bond angles

  1-4-5   64.54395229   1-4-6  145.34477329   1-5-4   64.54395229   1-5-7  145.34477329

  2-1-3  114.44139616   2-1-4  119.26539586   2-1-5  119.26365374   3-1-4  119.26365374

  3-1-5  119.26539586   4-1-5   50.91209542   4-5-7  150.10920669   5-4-6  150.10920669

 NUCLEAR CHARGE:                   22
 NUMBER OF PRIMITIVE AOS:         109
 NUMBER OF SYMMETRY AOS:          106
 NUMBER OF CONTRACTIONS:           62   (  32A   +  30B   )
 NUMBER OF CORE ORBITALS:           3   (   2A   +   1B   )
 NUMBER OF VALENCE ORBITALS:       16   (   8A   +   8B   )


 NUCLEAR REPULSION ENERGY   63.62222194


 Eigenvalues of metric

         1 0.414E-02 0.174E-01 0.240E-01 0.399E-01 0.468E-01 0.522E-01 0.102E+00 0.117E+00
         2 0.171E-02 0.196E-01 0.256E-01 0.334E-01 0.368E-01 0.482E-01 0.649E-01 0.119E+00


 Contracted 2-electron integrals neglected if value below      1.0D-16
 AO integral compression algorithm  1   Integral accuracy      1.0D-16

     10.486 MB (compressed) written to integral file ( 97.9%)

     Node minimum: 10.486 MB, node maximum: 10.486 MB


 NUMBER OF SORTED TWO-ELECTRON INTEGRALS:     984561.     BUFFER LENGTH:  32768
 NUMBER OF SEGMENTS:   1  SEGMENT LENGTH:     984561      RECORD LENGTH: 524288

 Memory used in sort:       1.54 MW

 SORT1 READ     1346430. AND WROTE      960798. INTEGRALS IN      3 RECORDS. CPU TIME:     0.01 SEC, REAL TIME:     0.02 SEC
 SORT2 READ      960798. AND WROTE      984561. INTEGRALS IN     40 RECORDS. CPU TIME:     0.02 SEC, REAL TIME:     0.03 SEC

 FILE SIZES:   FILE 1:    10.4 MBYTE,  FILE 4:    12.6 MBYTE,   TOTAL:     23.0 MBYTE

 OPERATOR DM      FOR CENTER  0  COORDINATES:    0.000000    0.000000    0.000000


 **********************************************************************************************************************************
 DATASETS  * FILE   NREC   LENGTH (MB)   RECORD NAMES
              1      19       10.45       500      610      700      900      950      970     1000      129      960     1100   
                                          VAR    BASINP    GEOM    SYMINP    ZMAT    AOBASIS   BASIS     P2S    ABASIS      S 
                                         1400     1410     1200     1210     1080     1600     1650     1300     1700   
                                           T        V       H0       H01     AOSYM     SMH    MOLCAS    ERIS     OPER   

 PROGRAMS   *        TOTAL       INT
 CPU TIMES  *         0.25      0.22
 REAL TIME  *         0.47 SEC
 DISK USED  *        34.19 MB      
 GA USED    *         0.00 MB       (max)       0.00 MB       (current)
 **********************************************************************************************************************************

1PROGRAM * RHF-SCF (CLOSED SHELL)       Authors: W. Meyer, H.-J. Werner


 NUMBER OF ELECTRONS:      11+   11-
 CONVERGENCE THRESHOLDS:    1.00E-10 (Density)    1.00E-13 (Energy)
 MAX. NUMBER OF ITERATIONS:      200
 INTERPOLATION TYPE:            DIIS
 INTERPOLATION STEPS:              2 (START)      1 (STEP)
 LEVEL SHIFTS:                  0.00 (CLOSED)  0.00 (OPEN) 



 Orbital guess generated from atomic densities. Full valence occupancy:   10   9

 Molecular orbital dump at record        2100.2

 Initial alpha occupancy:   6   5
 Initial beta  occupancy:   6   5
 Wave function symmetry:    1

 ITERATION    DDIFF          GRAD             ENERGY        2-EL.EN.            DIPOLE MOMENTS         DIIS
    1      0.000D+00      0.000D+00      -115.81232540    203.493965    0.00000    0.00000   -0.29834    0
    2      0.000D+00      0.710D-02      -115.83042599    202.392531    0.00000    0.00000   -0.20134    1
    3      0.149D-01      0.223D-02      -115.83205082    203.008208    0.00000    0.00000   -0.22237    2
    4      0.491D-02      0.838D-03      -115.83230654    202.834438    0.00000    0.00000   -0.19833    3
    5      0.159D-02      0.126D-03      -115.83231538    202.837179    0.00000    0.00000   -0.19848    4
    6      0.394D-03      0.336D-04      -115.83231609    202.841253    0.00000    0.00000   -0.19653    5
    7      0.101D-03      0.122D-04      -115.83231616    202.839903    0.00000    0.00000   -0.19643    6
    8      0.337D-04      0.237D-05      -115.83231617    202.839979    0.00000    0.00000   -0.19633    7
    9      0.819D-05      0.411D-06      -115.83231617    202.839981    0.00000    0.00000   -0.19631    7
   10      0.139D-05      0.853D-07      -115.83231617    202.839983    0.00000    0.00000   -0.19631    6
   11      0.378D-06      0.172D-07      -115.83231617    202.839984    0.00000    0.00000   -0.19631    6
   12      0.653D-07      0.551D-08      -115.83231617    202.839983    0.00000    0.00000   -0.19631    6
   13      0.144D-07      0.238D-08      -115.83231617    202.839984    0.00000    0.00000   -0.19631    6
   14      0.682D-08      0.863D-09      -115.83231617    202.839984    0.00000    0.00000   -0.19631    7
   15      0.250D-08      0.165D-09      -115.83231617    202.839984    0.00000    0.00000   -0.19631    7
   16      0.474D-09      0.457D-10      -115.83231617    202.839984    0.00000    0.00000   -0.19631    7
   17      0.132D-09      0.191D-10      -115.83231617    202.839984    0.00000    0.00000   -0.19631    8
   18      0.448D-10      0.277D-11      -115.83231617    202.839984    0.00000    0.00000   -0.19631    0

 Final occupancy:   6   5

 !RHF STATE 1.1 Energy               -115.832316167761
 Nuclear energy                        63.62222194
 One-electron energy                 -280.87452991
 Two-electron energy                  101.41999180
 Virial quotient                       -1.00191272
 !RHF STATE 1.1 Dipole moment           0.00000000     0.00000000    -0.19630817
 Dipole moment /Debye                   0.00000000     0.00000000    -0.49893293

 Orbital energies:

         1.1          2.1          3.1          4.1          5.1          6.1          7.1          8.1
    -11.251160   -11.245082    -1.153083    -0.822153    -0.676723    -0.487867     0.167007     0.220131

         1.2          2.2          3.2          4.2          5.2          6.2          7.2
    -11.249125    -0.765552    -0.594167    -0.417545    -0.354816     0.215272     0.270118


 **********************************************************************************************************************************
 DATASETS  * FILE   NREC   LENGTH (MB)   RECORD NAMES
              1      19       10.45       500      610      700      900      950      970     1000      129      960     1100   
                                          VAR    BASINP    GEOM    SYMINP    ZMAT    AOBASIS   BASIS     P2S    ABASIS      S 
                                         1400     1410     1200     1210     1080     1600     1650     1300     1700   
                                           T        V       H0       H01     AOSYM     SMH    MOLCAS    ERIS     OPER   

              2       3        0.40       700     1000     2100   
                                         GEOM     BASIS     RHF  

 PROGRAMS   *        TOTAL       RHF       INT
 CPU TIMES  *         0.33      0.08      0.22
 REAL TIME  *         0.58 SEC
 DISK USED  *        34.19 MB      
 GA USED    *         0.00 MB       (max)       0.00 MB       (current)
 **********************************************************************************************************************************


1PROGRAM * CCSD (Closed-shell coupled cluster)     Authors: C. Hampel, H.-J. Werner, 1991, M. Deegan, P.J. Knowles, 1992


 Convergence thresholds:  THRVAR = 1.00D-08  THRDEN = 1.00D-12

 CCSD(T)     terms to be evaluated (factor= 1.000)


 Number of core orbitals:           3 (   2   1 )
 Number of closed-shell orbitals:   8 (   4   4 )
 Number of external orbitals:      51 (  26  25 )

 Molecular orbitals read from record     2100.2  Type=RHF/CANONICAL (state 1.1)

 Number of N-1 electron functions:               8
 Number of N-2 electron functions:              36
 Number of singly external CSFs:               204
 Number of doubly external CSFs:             41820
 Total number of CSFs:                       42025

 Length of J-op  integral file:               0.00 MB
 Length of K-op  integral file:               0.17 MB
 Length of 3-ext integral record:             0.00 MB

 Memory could be reduced to 1.10 Mwords without degradation in triples

 Integral transformation finished. Total CPU:   0.02 sec, npass=  1  Memory used:   0.56 MW

 Reference energy:                   -115.83231617

 MP2 singlet pair energy:              -0.25591767
 MP2 triplet pair energy:              -0.14568132
 MP2 correlation energy:               -0.40159899
 MP2 total energy:                   -116.23391516

 SCS-MP2 correlation energy:           -0.39774735   (PS=  1.200000  PT=  0.333333)
 SCS-MP2 total energy:               -116.23006352

 ITER.      SQ.NORM     CORR.ENERGY   TOTAL ENERGY   ENERGY CHANGE        DEN1      VAR(S)    VAR(P)  DIIS     TIME
   1      1.16404404    -0.42785306  -116.26016923    -0.02625408    -0.01445475  0.13D-02  0.29D-02  1  1     0.04
   2      1.17886345    -0.43104948  -116.26336565    -0.00319642    -0.01248519  0.29D-04  0.36D-03  2  2     0.07
   3      1.18337520    -0.43123554  -116.26355171    -0.00018606    -0.00210523  0.70D-05  0.36D-04  3  3     0.10
   4      1.18527640    -0.43131536  -116.26363153    -0.00007982    -0.00057598  0.37D-06  0.33D-05  4  4     0.13
   5      1.18569482    -0.43132143  -116.26363760    -0.00000607    -0.00008999  0.35D-07  0.29D-06  5  5     0.16
   6      1.18576204    -0.43131844  -116.26363460     0.00000300    -0.00000926  0.39D-08  0.18D-07  6  6     0.19
   7      1.18577037    -0.43131870  -116.26363487    -0.00000026     0.00000076  0.45D-09  0.12D-08  6  2     0.21
   8      1.18577172    -0.43131857  -116.26363474     0.00000013    -0.00000003  0.34D-10  0.97D-10  6  1     0.24
   9      1.18577201    -0.43131854  -116.26363471     0.00000003    -0.00000009  0.65D-11  0.81D-11  6  3     0.27
  10      1.18577190    -0.43131855  -116.26363472    -0.00000001     0.00000010  0.42D-12  0.65D-12  6  4     0.30
  11      1.18577180    -0.43131856  -116.26363473    -0.00000001     0.00000005  0.77D-13  0.76D-13  6  5     0.32
  12      1.18577174    -0.43131856  -116.26363473    -0.00000000     0.00000002  0.65D-14  0.14D-13  6  6     0.35
  13      1.18577171    -0.43131856  -116.26363473    -0.00000000     0.00000001  0.66D-15  0.26D-14  6  2     0.38
  14      1.18577170    -0.43131856  -116.26363473    -0.00000000     0.00000000  0.61D-16  0.31D-15  6  1     0.41
  15      1.18577170    -0.43131856  -116.26363473    -0.00000000     0.00000000  0.17D-16  0.33D-16  6  3     0.44
  16      1.18577170    -0.43131856  -116.26363473    -0.00000000     0.00000000  0.31D-17  0.39D-17  6  4     0.47
  17      1.18577170    -0.43131856  -116.26363473    -0.00000000     0.00000000  0.66D-18  0.47D-18  6  5     0.50
  18      1.18577170    -0.43131856  -116.26363473    -0.00000000     0.00000000  0.76D-19  0.51D-19  6  6     0.53
  19      1.18577170    -0.43131856  -116.26363473     0.00000000    -0.00000000  0.14D-19  0.60D-20  6  2     0.56
  20      1.18577170    -0.43131856  -116.26363473     0.00000000    -0.00000000  0.18D-20  0.11D-20  6  1     0.58

 Norm of t1 vector:      0.05158710      S-energy:    -0.00000000      T1 diagnostic:  0.00911940
                                                                       D1 diagnostic:  0.02723090

 Doubles amplitudes (print threshold =  0.500E-01):

         I         J         SYM. A    SYM. B    A         B      T(IJ, AB)

         8         8         1         1         1         1     -0.10703175


 Total CPU time for triples:      0.22 sec


 RESULTS
 =======

  Reference energy                   -115.832316167760
  CCSD singlet pair energy             -0.301362805113
  CCSD triplet pair energy             -0.129955758319
  CCSD correlation energy              -0.431318563433

  Triples (T) contribution             -0.016254614044
  Total correlation energy             -0.447573177477

  CCSD total energy                  -116.263634731193
  CCSD[T] energy                     -116.280245426000
  CCSD-T energy                      -116.279714366315
 !CCSD(T) total energy               -116.279889345238

 Timing summary (sec):

 STEP                 CPU(USER)    SYS     CPU(TOT)    WALL
 Transformation          0.02      0.00      0.02      0.03
 CCSD iterations         0.56      0.07      0.63      0.65
 Triples                 0.22      0.00      0.22      0.21

 Program statistics:

 Available memory in ccsd:               999999644
 Min. memory needed in ccsd:                142235
 Max. memory used in ccsd:                  174307
 Max. memory used in cckext:                219012 (20 integral passes)



 **********************************************************************************************************************************
 DATASETS  * FILE   NREC   LENGTH (MB)   RECORD NAMES
              1      20       13.50       500      610      700      900      950      970     1000      129      960     1100   
                                          VAR    BASINP    GEOM    SYMINP    ZMAT    AOBASIS   BASIS     P2S    ABASIS      S 
                                         1400     1410     1200     1210     1080     1600     1650     1300     1700     1380   
                                           T        V       H0       H01     AOSYM     SMH    MOLCAS    ERIS     OPER     JKOP   

              2       3        0.40       700     1000     2100   
                                         GEOM     BASIS     RHF  

 PROGRAMS   *        TOTAL   CCSD(T)       RHF       INT
 CPU TIMES  *         1.14      0.80      0.08      0.22
 REAL TIME  *         1.49 SEC
 DISK USED  *        34.19 MB      
 GA USED    *         0.00 MB       (max)       0.00 MB       (current)
 **********************************************************************************************************************************

        CCSD(T)         RHF-SCF 
   -116.27988935   -115.83231617
 **********************************************************************************************************************************
 Variable memory released
