
 Primary working directories    : /tmp/943417.542.gen6.q
 Secondary working directories  : /tmp/943417.542.gen6.q
 Wavefunction directory         : /home/vulcan/mel64643/wfu/
 Main file repository           : /tmp/943417.542.gen6.q/

 ARCHNAME  : Linux/x86_64
 FC        : /opt/intel/compilers_and_libraries_2016.1.150/linux/bin/intel64/ifort
 FCVERSION : 16.0.1
 BLASLIB   : -mkl
 id        : ccgc

 Nodes     nprocs
 n088         1
 ga_uses_ma=false, calling ma_init with nominal heap.
 GA-space will be limited to   8.0 MW (determined by -G option)

 Using customized tuning parameters: mindgm=10; mindgv=16; mindgc=4; mindgr=1; noblas=0; mincuda=1000; minvec=7
 default implementation of scratch files=df  

 ***,Optimization of nh3_nitrosmethane
 memory,1000,m
 gthresh,energy=1.0d-12,orbital=1.0d-10,oneint=1.0d-16,twoint=1.0d-16,optgrad=1.0d-6,compress=1.0d-13
 geomtyp=xyz
 
 bohr
 geometry = {
  N   -5.2233941371   -0.1848379797    0.0037840231
  H   -6.2998084846    0.2186508607   -1.5321408058
  H   -3.7594153170    1.0586254259   -0.0072695864
  H   -6.2958742424    0.2412958044    1.5363415568
  H   -0.9251705257   -2.3992643686   -0.0031473306
  H    1.8874074346   -3.4224758320   -1.6674323903
  H    1.8761446754   -3.4454463222    1.6658454814
  C    1.1353295292   -2.4696715960    0.0033295605
  N    2.2661863228    0.0979777099    0.0012575336
  O    0.7027132349    1.7822033066   -0.0005680422
 }
 
 basis=cc-pvdz
 {rhf;maxit,200}
 {ccsd(t);maxit,200}

 Variables initialized (661), CPU time= 0.01 sec
 Commands  initialized (458), CPU time= 0.00 sec, 486 directives.
 Default parameters read. Elapsed time= 0.04 sec

 Checking input...
 Passed
1


                                         ***  PROGRAM SYSTEM MOLPRO  ***
                         Copyright, University College Cardiff Consultants Limited, 2008

                                    Version 2010.1 linked May 16 2016 07:17:05


 **********************************************************************************************************************************
 LABEL *   Optimization of nh3_nitrosmethane                                             
 Linux-4.4.3/n088(x86_64) 64 bit mpp version                                             DATE: 25-Oct-23          TIME: 17:31:34  
 **********************************************************************************************************************************

 SHA1:             9e8077add272b0f3cad6f7df79ec5211205f459d
 **********************************************************************************************************************************

 THRESHOLDS:

 ZERO    =  1.00D-12  ONEINT  =  1.00D-16  TWOINT  =  1.00D-16  PREFAC  =  1.00D-14  LOCALI  =  1.00D-09  EORDER  =  1.00D-04
 ENERGY  =  1.00D-12  ETEST   =  0.00D+00  EDENS   =  0.00D+00  THRDEDEF=  1.00D-06  GRADIENT=  1.00D-02  STEP    =  1.00D-03
 ORBITAL =  1.00D-10  CIVEC   =  1.00D-05  COEFF   =  1.00D-04  PRINTCI =  5.00D-02  PUNCHCI =  9.90D+01  OPTGRAD =  1.00D-06
 OPTENERG=  1.00D-06  OPTSTEP =  3.00D-04  THRGRAD =  1.00D-10  COMPRESS=  1.00D-13  VARMIN  =  1.00D-07  VARMAX  =  1.00D-03
 THRDOUB =  0.00D+00  THRDIV  =  1.00D-05  THRRED  =  1.00D-07  THRPSP  =  1.00D+00  THRDC   =  1.00D-10  THRCS   =  1.00D-10
 THRNRM  =  1.00D-08  THREQ   =  0.00D+00  THRDE   =  1.00D+00  THRREF  =  1.00D-05  SPARFAC =  1.00D+00  THRDLP  =  1.00D-07
 THRDIA  =  1.00D-10  THRDLS  =  1.00D-07  THRGPS  =  0.00D+00  THRKEX  =  0.00D+00  THRDIS  =  2.00D-01  THRVAR  =  1.00D-10
 THRLOC  =  1.00D-06  THRGAP  =  1.00D-06  THRLOCT = -1.00D+00  THRGAPT = -1.00D+00  THRORB  =  1.00D-06  THRMLTP =  0.00D+00
 THRCPQCI=  1.00D-10  KEXTA   =  0.00D+00  THRCOARS=  0.00D+00  SYMTOL  =  1.00D-06  GRADTOL =  1.00D-06  THROVL  =  1.00D-08
 THRORTH =  1.00D-08  GRID    =  1.00D-06  GRIDMAX =  1.00D-03  DTMAX   =  0.00D+00

 SETTING GEOMTYP        =    XYZ
 ZUNIT=BOHR
 

 Variable memory set to 1000000000 words,  buffer space   230000 words

 SETTING BASIS          =    CC-PVDZ


 Recomputing integrals since basis changed


 Using spherical harmonics

 Library entry N      S cc-pVDZ              selected for orbital group  1
 Library entry N      P cc-pVDZ              selected for orbital group  1
 Library entry N      D cc-pVDZ              selected for orbital group  1
 Library entry H      S cc-pVDZ              selected for orbital group  2
 Library entry H      P cc-pVDZ              selected for orbital group  2
 Library entry C      S cc-pVDZ              selected for orbital group  3
 Library entry C      P cc-pVDZ              selected for orbital group  3
 Library entry C      D cc-pVDZ              selected for orbital group  3
 Library entry O      S cc-pVDZ              selected for orbital group  5
 Library entry O      P cc-pVDZ              selected for orbital group  5
 Library entry O      D cc-pVDZ              selected for orbital group  5

1PROGRAM * SEWARD (Integral evaluation for generally contracted gaussian basis sets)     Author: Roland Lindh, 1990

 Geometry written to block  1 of record 700


 Point group  C1  



 ATOMIC COORDINATES

 NR  ATOM    CHARGE       X              Y              Z

   1  N       7.00   -5.223394137   -0.184837980    0.003784023
   2  H       1.00   -6.299808485    0.218650861   -1.532140806
   3  H       1.00   -3.759415317    1.058625426   -0.007269586
   4  H       1.00   -6.295874242    0.241295804    1.536341557
   5  H       1.00   -0.925170526   -2.399264369   -0.003147331
   6  H       1.00    1.887407435   -3.422475832   -1.667432390
   7  H       1.00    1.876144675   -3.445446322    1.665845481
   8  C       6.00    1.135329529   -2.469671596    0.003329560
   9  N       7.00    2.266186323    0.097977710    0.001257534
  10  O       8.00    0.702713235    1.782203307   -0.000568042

 Bond lengths in Bohr (Angstrom)

 1-2  1.918472354  1-3  1.920822066  1-4  1.918472354  5-8  2.061712784  6-8  2.065164057
     ( 1.015211846)     ( 1.016455260)     ( 1.015211846)     ( 1.091011417)     ( 1.092837752)

  7- 8  2.065164057   8- 9  2.805648649   9-10  2.298057286
       ( 1.092837752)       ( 1.484685321)       ( 1.216079541)

 Bond angles

  2-1-3  106.67095380   2-1-4  106.21107417   3-1-4  106.67095379   5-8-6  112.15870610

  5-8-7  112.15870101   5-8-9  111.81259323   6-8-7  107.61715628   6-8-9  105.95305145

  7- 8- 9  106.76333340   8- 9-10  113.35946296

 NUCLEAR CHARGE:                   34
 NUMBER OF PRIMITIVE AOS:         150
 NUMBER OF SYMMETRY AOS:          146
 NUMBER OF CONTRACTIONS:           86   (  86A   )
 NUMBER OF CORE ORBITALS:           4   (   4A   )
 NUMBER OF VALENCE ORBITALS:       22   (  22A   )


 NUCLEAR REPULSION ENERGY  117.39097459


 Eigenvalues of metric

         1 0.629E-02 0.972E-02 0.152E-01 0.180E-01 0.298E-01 0.370E-01 0.392E-01 0.407E-01


 Contracted 2-electron integrals neglected if value below      1.0D-16
 AO integral compression algorithm  1   Integral accuracy      1.0D-16

     52.691 MB (compressed) written to integral file ( 82.6%)

     Node minimum: 52.691 MB, node maximum: 52.691 MB


 NUMBER OF SORTED TWO-ELECTRON INTEGRALS:    6999411.     BUFFER LENGTH:  32768
 NUMBER OF SEGMENTS:   1  SEGMENT LENGTH:    6999411      RECORD LENGTH: 524288

 Memory used in sort:       7.56 MW

 SORT1 READ     8004583. AND WROTE     6870877. INTEGRALS IN     20 RECORDS. CPU TIME:     0.07 SEC, REAL TIME:     0.11 SEC
 SORT2 READ     6870877. AND WROTE     6999411. INTEGRALS IN    201 RECORDS. CPU TIME:     0.08 SEC, REAL TIME:     0.12 SEC

 FILE SIZES:   FILE 1:    48.5 MBYTE,  FILE 4:    83.9 MBYTE,   TOTAL:    132.4 MBYTE

 OPERATOR DM      FOR CENTER  0  COORDINATES:    0.000000    0.000000    0.000000


 **********************************************************************************************************************************
 DATASETS  * FILE   NREC   LENGTH (MB)   RECORD NAMES
              1      19       48.62       500      610      700      900      950      970     1000      129      960     1100   
                                          VAR    BASINP    GEOM    SYMINP    ZMAT    AOBASIS   BASIS     P2S    ABASIS      S 
                                         1400     1410     1200     1210     1080     1600     1650     1300     1700   
                                           T        V       H0       H01     AOSYM     SMH    MOLCAS    ERIS     OPER   

 PROGRAMS   *        TOTAL       INT
 CPU TIMES  *         0.77      0.73
 REAL TIME  *         1.06 SEC
 DISK USED  *       185.92 MB      
 GA USED    *         0.00 MB       (max)       0.00 MB       (current)
 **********************************************************************************************************************************

1PROGRAM * RHF-SCF (CLOSED SHELL)       Authors: W. Meyer, H.-J. Werner


 NUMBER OF ELECTRONS:      17+   17-    SPACE SYMMETRY=1    SPIN SYMMETRY: Singlet 
 CONVERGENCE THRESHOLDS:    1.00E-10 (Density)    1.00E-13 (Energy)
 MAX. NUMBER OF ITERATIONS:      200
 INTERPOLATION TYPE:            DIIS
 INTERPOLATION STEPS:              2 (START)      1 (STEP)
 LEVEL SHIFTS:                  0.00 (CLOSED)  0.00 (OPEN) 



 Orbital guess generated from atomic densities. Full valence occupancy:   26

 Molecular orbital dump at record        2100.2

 ITERATION    DDIFF          GRAD             ENERGY        2-EL.EN.            DIPOLE MOMENTS         DIIS
    1      0.000D+00      0.000D+00      -224.94600076    393.798408    0.10271   -0.57103   -0.00592    0
    2      0.000D+00      0.101D-01      -225.00728211    393.249847   -0.59260   -0.30291   -0.00214    1
    3      0.189D-01      0.693D-02      -225.03994513    393.766207   -0.25005   -0.51451   -0.00256    2
    4      0.825D-02      0.139D-02      -225.04210752    393.657537   -0.32895   -0.42281   -0.00264    3
    5      0.216D-02      0.531D-03      -225.04248422    393.653481   -0.33027   -0.44942   -0.00250    4
    6      0.908D-03      0.129D-03      -225.04252075    393.675783   -0.33515   -0.44762   -0.00250    5
    7      0.304D-03      0.512D-04      -225.04252656    393.663573   -0.33674   -0.44783   -0.00250    6
    8      0.124D-03      0.198D-04      -225.04252741    393.669140   -0.33752   -0.44781   -0.00251    7
    9      0.433D-04      0.826D-05      -225.04252758    393.667800   -0.33770   -0.44751   -0.00251    8
   10      0.225D-04      0.230D-05      -225.04252760    393.667621   -0.33776   -0.44735   -0.00251    8
   11      0.659D-05      0.694D-06      -225.04252760    393.667672   -0.33777   -0.44728   -0.00251    8
   12      0.187D-05      0.221D-06      -225.04252760    393.667635   -0.33778   -0.44726   -0.00251    8
   13      0.756D-06      0.713D-07      -225.04252760    393.667629   -0.33778   -0.44725   -0.00251    8
   14      0.183D-06      0.367D-07      -225.04252760    393.667630   -0.33778   -0.44725   -0.00251    8
   15      0.960D-07      0.124D-07      -225.04252760    393.667631   -0.33778   -0.44725   -0.00251    8
   16      0.273D-07      0.887D-08      -225.04252760    393.667630   -0.33778   -0.44725   -0.00251    8
   17      0.366D-07      0.604D-08      -225.04252760    393.667631   -0.33778   -0.44725   -0.00251    8
   18      0.541D-07      0.183D-08      -225.04252760    393.667630   -0.33778   -0.44725   -0.00251    9
   19      0.157D-07      0.544D-09      -225.04252760    393.667630   -0.33778   -0.44725   -0.00251    9
   20      0.243D-08      0.162D-09      -225.04252760    393.667630   -0.33778   -0.44725   -0.00251    9
   21      0.462D-09      0.422D-10      -225.04252760    393.667630   -0.33778   -0.44725   -0.00251    9
   22      0.120D-09      0.152D-10      -225.04252760    393.667630   -0.33778   -0.44725   -0.00251    9
   23      0.351D-10      0.701D-11      -225.04252760    393.667630   -0.33778   -0.44725   -0.00251    9
   24      0.172D-10      0.279D-11      -225.04252760    393.667630   -0.33778   -0.44725   -0.00251    0

 Final occupancy:  17

 !RHF STATE 1.1 Energy               -225.042527596609
 Nuclear energy                       117.39097459
 One-electron energy                 -539.26731739
 Two-electron energy                  196.83381521
 Virial quotient                       -1.00156596
 !RHF STATE 1.1 Dipole moment          -0.33777775    -0.44725194    -0.00250539
 Dipole moment /Debye                  -0.85848918    -1.13672660    -0.00636765

 Orbital energies:

         1.1          2.1          3.1          4.1          5.1          6.1          7.1          8.1          9.1         10.1
    -20.626033   -15.699084   -15.537299   -11.265785    -1.506743    -1.130662    -1.070071    -0.855385    -0.684659    -0.667634

        11.1         12.1         13.1         14.1         15.1         16.1         17.1         18.1         19.1
     -0.630881    -0.615004    -0.613820    -0.550642    -0.527776    -0.420148    -0.398219     0.109520     0.187009


 **********************************************************************************************************************************
 DATASETS  * FILE   NREC   LENGTH (MB)   RECORD NAMES
              1      19       48.62       500      610      700      900      950      970     1000      129      960     1100   
                                          VAR    BASINP    GEOM    SYMINP    ZMAT    AOBASIS   BASIS     P2S    ABASIS      S 
                                         1400     1410     1200     1210     1080     1600     1650     1300     1700   
                                           T        V       H0       H01     AOSYM     SMH    MOLCAS    ERIS     OPER   

              2       3        0.57       700     1000     2100   
                                         GEOM     BASIS     RHF  

 PROGRAMS   *        TOTAL       RHF       INT
 CPU TIMES  *         2.01      1.23      0.73
 REAL TIME  *         2.42 SEC
 DISK USED  *       185.92 MB      
 GA USED    *         0.00 MB       (max)       0.00 MB       (current)
 **********************************************************************************************************************************


1PROGRAM * CCSD (Closed-shell coupled cluster)     Authors: C. Hampel, H.-J. Werner, 1991, M. Deegan, P.J. Knowles, 1992


 Convergence thresholds:  THRVAR = 1.00D-08  THRDEN = 1.00D-12

 CCSD(T)     terms to be evaluated (factor= 1.000)


 Number of core orbitals:           4 (   4 )
 Number of closed-shell orbitals:  13 (  13 )
 Number of external orbitals:      69 (  69 )

 Molecular orbitals read from record     2100.2  Type=RHF/CANONICAL (state 1.1)

 Number of N-1 electron functions:              13
 Number of N-2 electron functions:              91
 Number of singly external CSFs:               897
 Number of doubly external CSFs:            402753
 Total number of CSFs:                      403651

 Length of J-op  integral file:               0.00 MB
 Length of K-op  integral file:               0.54 MB
 Length of 3-ext integral record:             0.00 MB

 Memory could be reduced to 6.46 Mwords without degradation in triples

 Integral transformation finished. Total CPU:   0.26 sec, npass=  1  Memory used:   5.81 MW

 Reference energy:                   -225.04252760

 MP2 singlet pair energy:              -0.42990199
 MP2 triplet pair energy:              -0.25005899
 MP2 correlation energy:               -0.67996098
 MP2 total energy:                   -225.72248858

 SCS-MP2 correlation energy:           -0.67147465   (PS=  1.200000  PT=  0.333333)
 SCS-MP2 total energy:               -225.71400224

 ITER.      SQ.NORM     CORR.ENERGY   TOTAL ENERGY   ENERGY CHANGE        DEN1      VAR(S)    VAR(P)  DIIS     TIME
   1      1.22681178    -0.71575317  -225.75828077    -0.03579219    -0.01323960  0.44D-02  0.46D-02  1  1     0.95
   2      1.24749439    -0.71906372  -225.76159131    -0.00331054    -0.02058338  0.13D-03  0.82D-03  2  2     1.65
   3      1.25646432    -0.71975165  -225.76227924    -0.00068793    -0.00431121  0.10D-03  0.59D-04  3  3     2.36
   4      1.26019077    -0.71974255  -225.76227015     0.00000910    -0.00126898  0.77D-05  0.10D-04  4  4     3.06
   5      1.26162427    -0.71976220  -225.76228980    -0.00001965    -0.00032495  0.14D-05  0.17D-05  5  5     3.76
   6      1.26202367    -0.71973454  -225.76226213     0.00002767    -0.00004700  0.78D-07  0.36D-06  6  6     4.47
   7      1.26211409    -0.71973270  -225.76226030     0.00000183    -0.00000209  0.20D-07  0.96D-07  6  2     5.18
   8      1.26213653    -0.71973278  -225.76226038    -0.00000008     0.00000226  0.87D-08  0.24D-07  6  5     5.88
   9      1.26213177    -0.71973365  -225.76226124    -0.00000087     0.00000161  0.17D-08  0.27D-08  6  1     6.59
  10      1.26213171    -0.71973391  -225.76226151    -0.00000027    -0.00000145  0.40D-09  0.30D-09  6  3     7.29
  11      1.26213020    -0.71973418  -225.76226177    -0.00000027     0.00000088  0.83D-10  0.50D-10  6  4     8.00
  12      1.26212947    -0.71973424  -225.76226184    -0.00000006     0.00000022  0.23D-10  0.11D-10  6  6     8.70
  13      1.26212873    -0.71973428  -225.76226187    -0.00000003     0.00000018  0.67D-11  0.20D-11  6  2     9.41
  14      1.26212835    -0.71973430  -225.76226189    -0.00000002     0.00000013  0.32D-11  0.69D-12  6  1    10.12
  15      1.26212815    -0.71973430  -225.76226190    -0.00000000     0.00000003  0.20D-11  0.29D-12  6  2    10.82
  16      1.26212795    -0.71973431  -225.76226191    -0.00000001     0.00000005  0.12D-11  0.11D-12  6  5    11.53
  17      1.26212792    -0.71973431  -225.76226191    -0.00000000     0.00000001  0.49D-12  0.69D-13  6  3    12.24
  18      1.26212795    -0.71973431  -225.76226191     0.00000000    -0.00000001  0.92D-13  0.34D-13  6  4    12.95
  19      1.26212797    -0.71973431  -225.76226191    -0.00000000     0.00000000  0.14D-13  0.92D-14  6  6    13.65
  20      1.26212799    -0.71973431  -225.76226190     0.00000000    -0.00000001  0.76D-15  0.25D-14  6  2    14.36
  21      1.26212799    -0.71973431  -225.76226190     0.00000000     0.00000000  0.11D-15  0.51D-15  6  1    15.06
  22      1.26212799    -0.71973431  -225.76226190     0.00000000    -0.00000000  0.24D-16  0.19D-15  6  3    15.77
  23      1.26212799    -0.71973431  -225.76226190    -0.00000000     0.00000000  0.12D-16  0.23D-16  6  5    16.48
  24      1.26212799    -0.71973431  -225.76226190    -0.00000000    -0.00000000  0.44D-17  0.34D-17  6  4    17.18
  25      1.26212799    -0.71973431  -225.76226190    -0.00000000    -0.00000000  0.19D-17  0.72D-18  6  6    17.88
  26      1.26212799    -0.71973431  -225.76226190     0.00000000    -0.00000000  0.86D-18  0.12D-18  6  2    18.59
  27      1.26212799    -0.71973431  -225.76226190    -0.00000000    -0.00000000  0.45D-18  0.62D-19  6  1    19.29
  28      1.26212799    -0.71973431  -225.76226190    -0.00000000     0.00000000  0.19D-18  0.34D-19  6  3    20.00

 Norm of t1 vector:      0.10008214      S-energy:     0.00000000      T1 diagnostic:  0.01387890
                                                                       D1 diagnostic:  0.05075722

 Doubles amplitudes (print threshold =  0.500E-01):

         I         J         SYM. A    SYM. B    A         B      T(IJ, AB)

         7         7         1         1         1         1     -0.06083145
        11         7         1         1         1         1     -0.06596537
        11        11         1         1         1         1     -0.09633746


 Total CPU time for triples:      6.45 sec


 RESULTS
 =======

  Reference energy                   -225.042527596609
  CCSD singlet pair energy             -0.499050749019
  CCSD triplet pair energy             -0.220683558915
  CCSD correlation energy              -0.719734307924

  Triples (T) contribution             -0.021672209093
  Total correlation energy             -0.741406517017

  CCSD total energy                  -225.762261904534
  CCSD[T] energy                     -225.785308886479
  CCSD-T energy                      -225.783530746285
 !CCSD(T) total energy               -225.783934113627

 Timing summary (sec):

 STEP                 CPU(USER)    SYS     CPU(TOT)    WALL
 Transformation          0.27      0.03      0.30      0.32
 CCSD iterations        19.73      0.62     20.35     20.44
 Triples                 6.45      0.16      6.61      6.61

 Program statistics:

 Available memory in ccsd:               999999224
 Min. memory needed in ccsd:               1143606
 Max. memory used in ccsd:                 1480488
 Max. memory used in cckext:               1471436 (28 integral passes)



 **********************************************************************************************************************************
 DATASETS  * FILE   NREC   LENGTH (MB)   RECORD NAMES
              1      20       74.24       500      610      700      900      950      970     1000      129      960     1100   
                                          VAR    BASINP    GEOM    SYMINP    ZMAT    AOBASIS   BASIS     P2S    ABASIS      S 
                                         1400     1410     1200     1210     1080     1600     1650     1300     1700     1380   
                                           T        V       H0       H01     AOSYM     SMH    MOLCAS    ERIS     OPER     JKOP   

              2       3        0.57       700     1000     2100   
                                         GEOM     BASIS     RHF  

 PROGRAMS   *        TOTAL   CCSD(T)       RHF       INT
 CPU TIMES  *        28.46     26.46      1.23      0.73
 REAL TIME  *        29.82 SEC
 DISK USED  *       198.56 MB      
 GA USED    *         0.00 MB       (max)       0.00 MB       (current)
 **********************************************************************************************************************************

        CCSD(T)         RHF-SCF 
   -225.78393411   -225.04252760
 **********************************************************************************************************************************
 Variable memory released
