
 Primary working directories    : /tmp/879303.421.gen6.q
 Secondary working directories  : /tmp/879303.421.gen6.q
 Wavefunction directory         : /home/vulcan/lo21740/wfu/
 Main file repository           : /tmp/879303.421.gen6.q/

 ARCHNAME  : Linux/x86_64
 FC        : /opt/intel/compilers_and_libraries_2016.1.150/linux/bin/intel64/ifort
 FCVERSION : 16.0.1
 BLASLIB   : -mkl
 id        : ccgc

 Nodes     nprocs
 n087         1
 ga_uses_ma=false, calling ma_init with nominal heap.
 GA-space will be limited to   8.0 MW (determined by -G option)

 Using customized tuning parameters: mindgm=10; mindgv=16; mindgc=4; mindgr=1; noblas=0; mincuda=1000; minvec=7
 default implementation of scratch files=df  

 ***,Optimization of formamide
 memory,1000,m
 gthresh,energy=1.0d-12,orbital=1.0d-10,oneint=1.0d-16,twoint=1.0d-16,optgrad=1.0d-6,compress=1.0d-13
 geomtyp=xyz
 
 bohr
 geometry = {
  C   -3.8197301994    0.0855685065    0.0000000000
  O   -2.7265478027    2.1410945331   -0.0000000000
  N   -2.6767118190   -2.1780998659    0.0000000000
  H   -3.7367310609   -3.7563383700   -0.0000000000
  H   -0.7506610115   -2.3093209488    0.0000000000
  H   -5.8925105992   -0.0169732450    0.0000000000
  C    3.8197301994   -0.0855685065    0.0000000000
  O    2.7265478027   -2.1410945331    0.0000000000
  N    2.6767118190    2.1780998659   -0.0000000000
  H    3.7367310609    3.7563383700   -0.0000000000
  H    0.7506610115    2.3093209488   -0.0000000000
  H    5.8925105992    0.0169732450    0.0000000000
 }
 
 basis=AVDZ, H=VDZ
 {rhf;maxit,200}
 {ccsd(t);maxit,200}

 Variables initialized (661), CPU time= 0.01 sec
 Commands  initialized (458), CPU time= 0.00 sec, 486 directives.
 Default parameters read. Elapsed time= 0.04 sec

 Checking input...
 Passed
1


                                         ***  PROGRAM SYSTEM MOLPRO  ***
                         Copyright, University College Cardiff Consultants Limited, 2008

                                    Version 2010.1 linked May 16 2016 07:17:05


 **********************************************************************************************************************************
 LABEL *   Optimization of formamide                                                     
 Linux-4.4.3/n087(x86_64) 64 bit mpp version                                             DATE: 23-May-23          TIME: 16:30:22  
 **********************************************************************************************************************************

 SHA1:             9e8077add272b0f3cad6f7df79ec5211205f459d
 **********************************************************************************************************************************

 THRESHOLDS:

 ZERO    =  1.00D-12  ONEINT  =  1.00D-16  TWOINT  =  1.00D-16  PREFAC  =  1.00D-14  LOCALI  =  1.00D-09  EORDER  =  1.00D-04
 ENERGY  =  1.00D-12  ETEST   =  0.00D+00  EDENS   =  0.00D+00  THRDEDEF=  1.00D-06  GRADIENT=  1.00D-02  STEP    =  1.00D-03
 ORBITAL =  1.00D-10  CIVEC   =  1.00D-05  COEFF   =  1.00D-04  PRINTCI =  5.00D-02  PUNCHCI =  9.90D+01  OPTGRAD =  1.00D-06
 OPTENERG=  1.00D-06  OPTSTEP =  3.00D-04  THRGRAD =  1.00D-10  COMPRESS=  1.00D-13  VARMIN  =  1.00D-07  VARMAX  =  1.00D-03
 THRDOUB =  0.00D+00  THRDIV  =  1.00D-05  THRRED  =  1.00D-07  THRPSP  =  1.00D+00  THRDC   =  1.00D-10  THRCS   =  1.00D-10
 THRNRM  =  1.00D-08  THREQ   =  0.00D+00  THRDE   =  1.00D+00  THRREF  =  1.00D-05  SPARFAC =  1.00D+00  THRDLP  =  1.00D-07
 THRDIA  =  1.00D-10  THRDLS  =  1.00D-07  THRGPS  =  0.00D+00  THRKEX  =  0.00D+00  THRDIS  =  2.00D-01  THRVAR  =  1.00D-10
 THRLOC  =  1.00D-06  THRGAP  =  1.00D-06  THRLOCT = -1.00D+00  THRGAPT = -1.00D+00  THRORB  =  1.00D-06  THRMLTP =  0.00D+00
 THRCPQCI=  1.00D-10  KEXTA   =  0.00D+00  THRCOARS=  0.00D+00  SYMTOL  =  1.00D-06  GRADTOL =  1.00D-06  THROVL  =  1.00D-08
 THRORTH =  1.00D-08  GRID    =  1.00D-06  GRIDMAX =  1.00D-03  DTMAX   =  0.00D+00

 SETTING GEOMTYP        =    XYZ
 ZUNIT=BOHR
 

 Variable memory set to 1000000000 words,  buffer space   230000 words

 SETTING BASIS          =    AVDZ,H=VDZ


 Recomputing integrals since basis changed


 Using spherical harmonics

 Library entry C      S aug-cc-pVDZ          selected for orbital group  1
 Library entry C      P aug-cc-pVDZ          selected for orbital group  1
 Library entry C      D aug-cc-pVDZ          selected for orbital group  1
 Library entry O      S aug-cc-pVDZ          selected for orbital group  2
 Library entry O      P aug-cc-pVDZ          selected for orbital group  2
 Library entry O      D aug-cc-pVDZ          selected for orbital group  2
 Library entry N      S aug-cc-pVDZ          selected for orbital group  3
 Library entry N      P aug-cc-pVDZ          selected for orbital group  3
 Library entry N      D aug-cc-pVDZ          selected for orbital group  3
 Library entry H      S cc-pVDZ              selected for orbital group  4
 Library entry H      P cc-pVDZ              selected for orbital group  4

1PROGRAM * SEWARD (Integral evaluation for generally contracted gaussian basis sets)     Author: Roland Lindh, 1990

 Geometry written to block  1 of record 700


 Point group  C2h 



 ATOMIC COORDINATES

 NR  ATOM    CHARGE       X              Y              Z

   1  C       6.00   -3.819730199    0.085568507    0.000000000
   2  C       6.00    3.819730199   -0.085568507    0.000000000
   3  O       8.00   -2.726547803    2.141094533    0.000000000
   4  O       8.00    2.726547803   -2.141094533    0.000000000
   5  N       7.00   -2.676711819   -2.178099866    0.000000000
   6  N       7.00    2.676711819    2.178099866    0.000000000
   7  H       1.00   -3.736731061   -3.756338370    0.000000000
   8  H       1.00    3.736731061    3.756338370    0.000000000
   9  H       1.00   -0.750661011   -2.309320949    0.000000000
  10  H       1.00    0.750661011    2.309320949    0.000000000
  11  H       1.00   -5.892510599   -0.016973245    0.000000000
  12  H       1.00    5.892510599    0.016973245    0.000000000

 Bond lengths in Bohr (Angstrom)

  1- 3  2.328139815   1- 5  2.535879634   1-11  2.075315252   2- 4  2.328139815   2- 6  2.535879634
       ( 1.231998529)       ( 1.341929707)       ( 1.098209533)       ( 1.231998529)       ( 1.341929707)

  2-12  2.075315252   5- 7  1.901177942   5- 9  1.930515653   6- 8  1.901177942   6-10  1.930515653
       ( 1.098209533)       ( 1.006060037)       ( 1.021584885)       ( 1.006060037)       ( 1.021584885)

 Bond angles

  1- 5- 7  119.32176262   1- 5- 9  120.68858615   2- 6- 8  119.32176262   2- 6-10  120.68858615

  3- 1- 5  125.20371871   3- 1-11  120.83736056   4- 2- 6  125.20371871   4- 2-12  120.83736056

  5- 1-11  113.95892073   6- 2-12  113.95892073   7- 5- 9  119.98965123   8- 6-10  119.98965123

 NUCLEAR CHARGE:                   48
 NUMBER OF PRIMITIVE AOS:         264
 NUMBER OF SYMMETRY AOS:          252
 NUMBER OF CONTRACTIONS:          168   (  60Ag  +  24Au  +  60Bu  +  24Bg  )
 NUMBER OF CORE ORBITALS:           6   (   3Ag  +   0Au  +   3Bu  +   0Bg  )
 NUMBER OF VALENCE ORBITALS:       30   (  12Ag  +   3Au  +  12Bu  +   3Bg  )


 NUCLEAR REPULSION ENERGY  230.63928752


 Eigenvalues of metric

         1 0.624E-03 0.114E-02 0.161E-02 0.365E-02 0.513E-02 0.792E-02 0.795E-02 0.899E-02
         2 0.256E-01 0.381E-01 0.591E-01 0.104E+00 0.151E+00 0.200E+00 0.249E+00 0.284E+00
         3 0.415E-03 0.134E-02 0.168E-02 0.436E-02 0.524E-02 0.717E-02 0.809E-02 0.107E-01
         4 0.210E-01 0.333E-01 0.523E-01 0.140E+00 0.162E+00 0.209E+00 0.241E+00 0.297E+00


 Contracted 2-electron integrals neglected if value below      1.0D-16
 AO integral compression algorithm  1   Integral accuracy      1.0D-16

     272.892 MB (compressed) written to integral file (100.0%)

     Node minimum: 272.892 MB, node maximum: 272.892 MB


 NUMBER OF SORTED TWO-ELECTRON INTEGRALS:   26566530.     BUFFER LENGTH:  32768
 NUMBER OF SEGMENTS:   2  SEGMENT LENGTH:   15996660      RECORD LENGTH: 524288

 Memory used in sort:      16.55 MW

 SORT1 READ    33456240. AND WROTE    26566528. INTEGRALS IN     77 RECORDS. CPU TIME:     0.46 SEC, REAL TIME:     0.66 SEC
 SORT2 READ    26566528. AND WROTE    26566530. INTEGRALS IN   1041 RECORDS. CPU TIME:     0.28 SEC, REAL TIME:     0.41 SEC

 FILE SIZES:   FILE 1:   220.9 MBYTE,  FILE 4:   323.0 MBYTE,   TOTAL:    543.9 MBYTE

 OPERATOR DM      FOR CENTER  0  COORDINATES:    0.000000    0.000000    0.000000


 **********************************************************************************************************************************
 DATASETS  * FILE   NREC   LENGTH (MB)   RECORD NAMES
              1      19      221.02       500      610      700      900      950      970     1000      129      960     1100   
                                          VAR    BASINP    GEOM    SYMINP    ZMAT    AOBASIS   BASIS     P2S    ABASIS      S 
                                         1400     1410     1200     1210     1080     1600     1650     1300     1700   
                                           T        V       H0       H01     AOSYM     SMH    MOLCAS    ERIS     OPER   

 PROGRAMS   *        TOTAL       INT
 CPU TIMES  *         3.02      2.98
 REAL TIME  *         3.64 SEC
 DISK USED  *       817.69 MB      
 GA USED    *         0.00 MB       (max)       0.00 MB       (current)
 **********************************************************************************************************************************

1PROGRAM * RHF-SCF (CLOSED SHELL)       Authors: W. Meyer, H.-J. Werner


 NUMBER OF ELECTRONS:      24+   24-
 CONVERGENCE THRESHOLDS:    1.00E-10 (Density)    1.00E-13 (Energy)
 MAX. NUMBER OF ITERATIONS:      200
 INTERPOLATION TYPE:            DIIS
 INTERPOLATION STEPS:              2 (START)      1 (STEP)
 LEVEL SHIFTS:                  0.00 (CLOSED)  0.00 (OPEN) 



 Orbital guess generated from atomic densities. Full valence occupancy:   15   3  15   3

 Molecular orbital dump at record        2100.2

 Initial alpha occupancy:  10   2  10   2
 Initial beta  occupancy:  10   2  10   2
 Wave function symmetry:    1

 ITERATION    DDIFF          GRAD             ENERGY        2-EL.EN.            DIPOLE MOMENTS         DIIS
    1      0.000D+00      0.000D+00      -337.80375990    704.948321    0.00000    0.00000    0.00000    0
    2      0.000D+00      0.117D-01      -337.88129707    699.336874    0.00000    0.00000    0.00000    1
    3      0.224D-01      0.856D-02      -337.93916986    702.077625    0.00000    0.00000    0.00000    2
    4      0.888D-02      0.113D-02      -337.94138104    701.981733    0.00000    0.00000    0.00000    3
    5      0.195D-02      0.388D-03      -337.94164678    701.915258    0.00000    0.00000    0.00000    4
    6      0.700D-03      0.127D-03      -337.94170721    701.940881    0.00000    0.00000    0.00000    5
    7      0.302D-03      0.563D-04      -337.94171803    701.932113    0.00000    0.00000    0.00000    6
    8      0.149D-03      0.167D-04      -337.94171896    701.937569    0.00000    0.00000    0.00000    7
    9      0.462D-04      0.503D-05      -337.94171903    701.935116    0.00000    0.00000    0.00000    8
   10      0.123D-04      0.175D-05      -337.94171904    701.935663    0.00000    0.00000    0.00000    7
   11      0.515D-05      0.420D-06      -337.94171904    701.935590    0.00000    0.00000    0.00000    8
   12      0.119D-05      0.627D-07      -337.94171904    701.935596    0.00000    0.00000    0.00000    7
   13      0.183D-06      0.147D-07      -337.94171904    701.935597    0.00000    0.00000    0.00000    7
   14      0.454D-07      0.262D-08      -337.94171904    701.935597    0.00000    0.00000    0.00000    6
   15      0.648D-08      0.943D-09      -337.94171904    701.935597    0.00000    0.00000    0.00000    6
   16      0.202D-08      0.397D-09      -337.94171904    701.935597    0.00000    0.00000    0.00000    6
   17      0.707D-09      0.965D-10      -337.94171904    701.935597    0.00000    0.00000    0.00000    7
   18      0.235D-09      0.276D-10      -337.94171904    701.935597    0.00000    0.00000    0.00000    7
   19      0.743D-10      0.927D-11      -337.94171904    701.935597    0.00000    0.00000    0.00000    7
   20      0.222D-10      0.343D-11      -337.94171904    701.935597    0.00000    0.00000    0.00000    7
   21      0.928D-11      0.751D-12      -337.94171904    701.935597    0.00000    0.00000    0.00000    8
   22      0.314D-11      0.288D-12      -337.94171904    701.935597    0.00000    0.00000    0.00000    8
   23      0.160D-11      0.831D-13      -337.94171904    701.935597    0.00000    0.00000    0.00000    8
   24      0.114D-11      0.719D-13      -337.94171904    701.935597    0.00000    0.00000    0.00000    8
   25      0.675D-12      0.591D-13      -337.94171904    701.935597    0.00000    0.00000    0.00000    9
   26      0.457D-12      0.660D-13      -337.94171904    701.935597    0.00000    0.00000    0.00000    9
   27      0.379D-12      0.412D-13      -337.94171904    701.935597    0.00000    0.00000    0.00000    9
   28      0.194D-12      0.461D-13      -337.94171904    701.935597    0.00000    0.00000    0.00000    9
   29      0.137D-12      0.539D-13      -337.94171904    701.935597    0.00000    0.00000    0.00000    9
   30      0.104D-12      0.451D-13      -337.94171904    701.935597    0.00000    0.00000    0.00000    9
   31      0.163D-12      0.410D-13      -337.94171904    701.935597    0.00000    0.00000    0.00000    9
   32      0.916D-13      0.466D-13      -337.94171904    701.935597    0.00000    0.00000    0.00000    9
   33      0.971D-13      0.512D-13      -337.94171904    701.935597    0.00000    0.00000    0.00000    9
   34      0.181D-12      0.433D-13      -337.94171904    701.935597    0.00000    0.00000    0.00000    9
   35      0.931D-13      0.438D-13      -337.94171904    701.935597    0.00000    0.00000    0.00000    0

 Final occupancy:  10   2  10   2

 !RHF STATE 1.1 Energy               -337.941719037929
 Nuclear energy                       230.63928752
 One-electron energy                 -919.54880523
 Two-electron energy                  350.96779867
 Virial quotient                       -1.00173275
 !RHF STATE 1.1 Dipole moment           0.00000000     0.00000000     0.00000000
 Dipole moment /Debye                   0.00000000     0.00000000     0.00000000

 Orbital energies:

         1.1          2.1          3.1          4.1          5.1          6.1          7.1          8.1          9.1         10.1
    -20.540469   -15.589511   -11.368052    -1.388841    -1.212857    -0.861708    -0.749762    -0.645503    -0.618987    -0.454197

        11.1         12.1
      0.068730     0.093437

         1.2          2.2          3.2          4.2
     -0.573725    -0.409790     0.094022     0.154663

         1.3          2.3          3.3          4.3          5.3          6.3          7.3          8.3          9.3         10.3
    -20.540469   -15.589510   -11.368053    -1.384030    -1.219153    -0.836362    -0.740823    -0.706476    -0.593331    -0.428937

        11.3         12.3
      0.067947     0.083213

         1.4          2.4          3.4          4.4
     -0.565586    -0.420473     0.104206     0.190131


 **********************************************************************************************************************************
 DATASETS  * FILE   NREC   LENGTH (MB)   RECORD NAMES
              1      19      221.02       500      610      700      900      950      970     1000      129      960     1100   
                                          VAR    BASINP    GEOM    SYMINP    ZMAT    AOBASIS   BASIS     P2S    ABASIS      S 
                                         1400     1410     1200     1210     1080     1600     1650     1300     1700   
                                           T        V       H0       H01     AOSYM     SMH    MOLCAS    ERIS     OPER   

              2       3        0.64       700     1000     2100   
                                         GEOM     BASIS     RHF  

 PROGRAMS   *        TOTAL       RHF       INT
 CPU TIMES  *         5.36      2.34      2.98
 REAL TIME  *         6.55 SEC
 DISK USED  *       817.69 MB      
 GA USED    *         0.00 MB       (max)       0.00 MB       (current)
 **********************************************************************************************************************************


1PROGRAM * CCSD (Closed-shell coupled cluster)     Authors: C. Hampel, H.-J. Werner, 1991, M. Deegan, P.J. Knowles, 1992


 Convergence thresholds:  THRVAR = 1.00D-08  THRDEN = 1.00D-12

 CCSD(T)     terms to be evaluated (factor= 1.000)


 Number of core orbitals:           6 (   3   0   3   0 )
 Number of closed-shell orbitals:  18 (   7   2   7   2 )
 Number of external orbitals:     144 (  50  22  50  22 )

 Molecular orbitals read from record     2100.2  Type=RHF/CANONICAL (state 1.1)

 Number of N-1 electron functions:              18
 Number of N-2 electron functions:             171
 Number of singly external CSFs:               788
 Number of doubly external CSFs:            880304
 Total number of CSFs:                      881093

 Length of J-op  integral file:               0.00 MB
 Length of K-op  integral file:               0.62 MB
 Length of 3-ext integral record:             0.00 MB

 Memory could be reduced to 18.60 Mwords without degradation in triples

 Integral transformation finished. Total CPU:   0.61 sec, npass=  1  Memory used:   5.80 MW

 Reference energy:                   -337.94171904

 MP2 singlet pair energy:              -0.61948824
 MP2 triplet pair energy:              -0.40480740
 MP2 correlation energy:               -1.02429564
 MP2 total energy:                   -338.96601468

 SCS-MP2 correlation energy:           -0.99526605   (PS=  1.200000  PT=  0.333333)
 SCS-MP2 total energy:               -338.93698509

 ITER.      SQ.NORM     CORR.ENERGY   TOTAL ENERGY   ENERGY CHANGE        DEN1      VAR(S)    VAR(P)  DIIS     TIME
   1      1.31854553    -1.05300080  -338.99471984    -0.02870516     0.00238723  0.10D-01  0.60D-02  1  1     1.70
   2      1.34396255    -1.05494309  -338.99666213    -0.00194229    -0.02584907  0.22D-03  0.11D-02  2  2     2.87
   3      1.35652461    -1.05583728  -338.99755632    -0.00089419    -0.00553894  0.22D-03  0.51D-04  3  3     4.05
   4      1.36171559    -1.05557377  -338.99729280     0.00026352    -0.00168384  0.21D-04  0.93D-05  4  4     5.22
   5      1.36383838    -1.05551736  -338.99723640     0.00005640    -0.00044214  0.26D-05  0.11D-05  5  5     6.39
   6      1.36434658    -1.05548796  -338.99720699     0.00002941    -0.00004743  0.24D-06  0.17D-06  6  6     7.58
   7      1.36447408    -1.05547602  -338.99719506     0.00001194    -0.00000764  0.32D-07  0.22D-07  6  2     8.77
   8      1.36449820    -1.05547587  -338.99719491     0.00000015     0.00000000  0.59D-08  0.26D-08  6  1     9.95
   9      1.36450055    -1.05547556  -338.99719460     0.00000031     0.00000184  0.93D-09  0.46D-09  6  4    11.13
  10      1.36450464    -1.05547550  -338.99719454     0.00000006    -0.00000043  0.26D-09  0.47D-10  6  3    12.31
  11      1.36450487    -1.05547557  -338.99719461    -0.00000007     0.00000015  0.39D-10  0.11D-10  6  5    13.48
  12      1.36450467    -1.05547559  -338.99719463    -0.00000002     0.00000009  0.51D-11  0.27D-11  6  6    14.65
  13      1.36450438    -1.05547563  -338.99719467    -0.00000004     0.00000013  0.80D-12  0.34D-12  6  2    15.82
  14      1.36450422    -1.05547564  -338.99719467    -0.00000001     0.00000004  0.10D-12  0.67D-13  6  1    17.00
  15      1.36450415    -1.05547564  -338.99719468    -0.00000000     0.00000001  0.19D-13  0.13D-13  6  4    18.18
  16      1.36450412    -1.05547564  -338.99719468    -0.00000000     0.00000000  0.35D-14  0.20D-14  6  3    19.35
  17      1.36450411    -1.05547564  -338.99719468    -0.00000000    -0.00000000  0.78D-15  0.33D-15  6  5    20.53
  18      1.36450411    -1.05547564  -338.99719468    -0.00000000     0.00000000  0.99D-16  0.74D-16  6  6    21.71
  19      1.36450410    -1.05547564  -338.99719468    -0.00000000     0.00000000  0.28D-16  0.11D-16  6  2    22.89
  20      1.36450410    -1.05547564  -338.99719468    -0.00000000     0.00000000  0.40D-17  0.17D-17  6  1    24.07
  21      1.36450410    -1.05547564  -338.99719468    -0.00000000     0.00000000  0.53D-18  0.43D-18  6  4    25.24
  22      1.36450410    -1.05547564  -338.99719468    -0.00000000     0.00000000  0.20D-18  0.80D-19  6  3    26.41
  23      1.36450410    -1.05547564  -338.99719468    -0.00000000     0.00000000  0.42D-19  0.15D-19  6  5    27.59
  24      1.36450410    -1.05547564  -338.99719468    -0.00000000     0.00000000  0.96D-20  0.39D-20  6  6    28.77
  25      1.36450410    -1.05547564  -338.99719468     0.00000000    -0.00000000  0.24D-20  0.10D-20  6  2    29.95
  26      1.36450410    -1.05547564  -338.99719468    -0.00000000     0.00000000  0.47D-21  0.22D-21  6  1    31.12

 Norm of t1 vector:      0.14797369      S-energy:    -0.00000000      T1 diagnostic:  0.01743887
                                                                       D1 diagnostic:  0.05905974


 Total CPU time for triples:     29.53 sec


 RESULTS
 =======

  Reference energy                   -337.941719037930
  CCSD singlet pair energy             -0.696578168073
  CCSD triplet pair energy             -0.358897474098
  CCSD correlation energy              -1.055475642170

  Triples (T) contribution             -0.039256011815
  Total correlation energy             -1.094731653985

  CCSD total energy                  -338.997194680100
  CCSD[T] energy                     -339.039645044754
  CCSD-T energy                      -339.035354935289
 !CCSD(T) total energy               -339.036450691915

 Timing summary (sec):

 STEP                 CPU(USER)    SYS     CPU(TOT)    WALL
 Transformation          0.62      0.10      0.72      0.74
 CCSD iterations        30.50      1.58     32.08     32.18
 Triples                29.53      1.10     30.63     30.64

 Program statistics:

 Available memory in ccsd:               999998604
 Min. memory needed in ccsd:               2290072
 Max. memory used in ccsd:                 3105212
 Max. memory used in cckext:               2925398 (26 integral passes)



 **********************************************************************************************************************************
 DATASETS  * FILE   NREC   LENGTH (MB)   RECORD NAMES
              1      20      294.07       500      610      700      900      950      970     1000      129      960     1100   
                                          VAR    BASINP    GEOM    SYMINP    ZMAT    AOBASIS   BASIS     P2S    ABASIS      S 
                                         1400     1410     1200     1210     1080     1600     1650     1300     1700     1380   
                                           T        V       H0       H01     AOSYM     SMH    MOLCAS    ERIS     OPER     JKOP   

              2       3        0.64       700     1000     2100   
                                         GEOM     BASIS     RHF  

 PROGRAMS   *        TOTAL   CCSD(T)       RHF       INT
 CPU TIMES  *        66.03     60.67      2.34      2.98
 REAL TIME  *        70.14 SEC
 DISK USED  *       817.69 MB      
 GA USED    *         0.00 MB       (max)       0.00 MB       (current)
 **********************************************************************************************************************************

        CCSD(T)         RHF-SCF 
   -339.03645069   -337.94171904
 **********************************************************************************************************************************
 Variable memory released
