
 Primary working directories    : /tmp/917005.356.gen4.q
 Secondary working directories  : /tmp/917005.356.gen4.q
 Wavefunction directory         : /home/vulcan/lo21740/wfu/
 Main file repository           : /tmp/917005.356.gen4.q/

 ARCHNAME  : Linux/x86_64
 FC        : /opt/intel/compilers_and_libraries_2016.1.150/linux/bin/intel64/ifort
 FCVERSION : 16.0.1
 BLASLIB   : -mkl
 id        : ccgc

 Nodes     nprocs
 n033         1
 ga_uses_ma=false, calling ma_init with nominal heap.
 GA-space will be limited to   8.0 MW (determined by -G option)

 Using customized tuning parameters: mindgm=10; mindgv=16; mindgc=4; mindgr=1; noblas=0; mincuda=1000; minvec=7
 default implementation of scratch files=df  

 ***,Optimization of h2o_2
 memory,1000,m
 gthresh,energy=1.0d-12,orbital=1.0d-10,oneint=1.0d-16,twoint=1.0d-16,optgrad=1.0d-6,compress=1.0d-13
 geomtyp=xyz
 
 bohr
 geometry = {
  C    0.0003459925   -3.4239138698    0.0000619343
  H   -0.9711748772   -2.7346428009   -1.6804464054
  H   -0.9711729732   -2.7366839116    1.6814071013
  H    1.9402703226   -2.7312769773    0.0004813622
  H    0.0034472783   -5.4837230134   -0.0011886569
  C    0.0025757153    3.4239123785   -0.0017403322
  H    0.0013024455    5.4837238340   -0.0015493061
  H    0.9686146034    2.7349587141   -1.6855358664
  H    0.9637479913    2.7346431506    1.6847090360
  H   -1.9379564986    2.7330024958    0.0038011332
 }
 
 basis=VDZ
 {rhf;maxit,200}
 {ccsd(t);maxit,200}

 Variables initialized (661), CPU time= 0.00 sec
 Commands  initialized (458), CPU time= 0.01 sec, 486 directives.
 Default parameters read. Elapsed time= 0.06 sec

 Checking input...
 Passed
1


                                         ***  PROGRAM SYSTEM MOLPRO  ***
                         Copyright, University College Cardiff Consultants Limited, 2008

                                    Version 2010.1 linked May 16 2016 07:17:05


 **********************************************************************************************************************************
 LABEL *   Optimization of h2o_2                                                         
 Linux-4.4.3/n033(x86_64) 64 bit mpp version                                             DATE: 19-Jul-23          TIME: 16:16:57  
 **********************************************************************************************************************************

 SHA1:             9e8077add272b0f3cad6f7df79ec5211205f459d
 **********************************************************************************************************************************

 THRESHOLDS:

 ZERO    =  1.00D-12  ONEINT  =  1.00D-16  TWOINT  =  1.00D-16  PREFAC  =  1.00D-14  LOCALI  =  1.00D-09  EORDER  =  1.00D-04
 ENERGY  =  1.00D-12  ETEST   =  0.00D+00  EDENS   =  0.00D+00  THRDEDEF=  1.00D-06  GRADIENT=  1.00D-02  STEP    =  1.00D-03
 ORBITAL =  1.00D-10  CIVEC   =  1.00D-05  COEFF   =  1.00D-04  PRINTCI =  5.00D-02  PUNCHCI =  9.90D+01  OPTGRAD =  1.00D-06
 OPTENERG=  1.00D-06  OPTSTEP =  3.00D-04  THRGRAD =  1.00D-10  COMPRESS=  1.00D-13  VARMIN  =  1.00D-07  VARMAX  =  1.00D-03
 THRDOUB =  0.00D+00  THRDIV  =  1.00D-05  THRRED  =  1.00D-07  THRPSP  =  1.00D+00  THRDC   =  1.00D-10  THRCS   =  1.00D-10
 THRNRM  =  1.00D-08  THREQ   =  0.00D+00  THRDE   =  1.00D+00  THRREF  =  1.00D-05  SPARFAC =  1.00D+00  THRDLP  =  1.00D-07
 THRDIA  =  1.00D-10  THRDLS  =  1.00D-07  THRGPS  =  0.00D+00  THRKEX  =  0.00D+00  THRDIS  =  2.00D-01  THRVAR  =  1.00D-10
 THRLOC  =  1.00D-06  THRGAP  =  1.00D-06  THRLOCT = -1.00D+00  THRGAPT = -1.00D+00  THRORB  =  1.00D-06  THRMLTP =  0.00D+00
 THRCPQCI=  1.00D-10  KEXTA   =  0.00D+00  THRCOARS=  0.00D+00  SYMTOL  =  1.00D-06  GRADTOL =  1.00D-06  THROVL  =  1.00D-08
 THRORTH =  1.00D-08  GRID    =  1.00D-06  GRIDMAX =  1.00D-03  DTMAX   =  0.00D+00

 SETTING GEOMTYP        =    XYZ
 ZUNIT=BOHR
 

 Variable memory set to 1000000000 words,  buffer space   230000 words

 SETTING BASIS          =    VDZ


 Recomputing integrals since basis changed


 Using spherical harmonics

 Library entry C      S cc-pVDZ              selected for orbital group  1
 Library entry C      P cc-pVDZ              selected for orbital group  1
 Library entry C      D cc-pVDZ              selected for orbital group  1
 Library entry H      S cc-pVDZ              selected for orbital group  2
 Library entry H      P cc-pVDZ              selected for orbital group  2

1PROGRAM * SEWARD (Integral evaluation for generally contracted gaussian basis sets)     Author: Roland Lindh, 1990

 Geometry written to block  1 of record 700


 Point group  C1  



 ATOMIC COORDINATES

 NR  ATOM    CHARGE       X              Y              Z

   1  C       6.00    0.000345992   -3.423913870    0.000061934
   2  H       1.00   -0.971174877   -2.734642801   -1.680446405
   3  H       1.00   -0.971172973   -2.736683912    1.681407101
   4  H       1.00    1.940270323   -2.731276977    0.000481362
   5  H       1.00    0.003447278   -5.483723013   -0.001188657
   6  C       6.00    0.002575715    3.423912378   -0.001740332
   7  H       1.00    0.001302445    5.483723834   -0.001549306
   8  H       1.00    0.968614603    2.734958714   -1.685535866
   9  H       1.00    0.963747991    2.734643151    1.684709036
  10  H       1.00   -1.937956499    2.733002496    0.003801133

 Bond lengths in Bohr (Angstrom)

 1-2  2.059867881  1-3  2.059867881  1-4  2.059867095  1-5  2.059811858  6-7  2.059811858
     ( 1.090035136)     ( 1.090035136)     ( 1.090034720)     ( 1.090005490)     ( 1.090005490)

  6- 8  2.059867881   6- 9  2.059867880   6-10  2.059867095
       ( 1.090035136)       ( 1.090035136)       ( 1.090034720)

 Bond angles

  2-1-3  109.37992579   2-1-4  109.37980975   2-1-5  109.56240831   3-1-4  109.37980975

  3-1-5  109.56240831   4-1-5  109.56250040   7-6-8  109.56223837   7-6-9  109.56223838

  7- 6-10  109.56233047   8- 6- 9  109.78489821   8- 6-10  109.37963982   9- 6-10  108.97449748

 NUCLEAR CHARGE:                   20
 NUMBER OF PRIMITIVE AOS:         110
 NUMBER OF SYMMETRY AOS:          108
 NUMBER OF CONTRACTIONS:           68   (  68A   )
 NUMBER OF CORE ORBITALS:           2   (   2A   )
 NUMBER OF VALENCE ORBITALS:       16   (  16A   )


 NUCLEAR REPULSION ENERGY   41.33306573


 Eigenvalues of metric

         1 0.113E-01 0.127E-01 0.348E-01 0.349E-01 0.356E-01 0.375E-01 0.383E-01 0.384E-01


 Contracted 2-electron integrals neglected if value below      1.0D-16
 AO integral compression algorithm  1   Integral accuracy      1.0D-16

     21.496 MB (compressed) written to integral file ( 87.6%)

     Node minimum: 21.496 MB, node maximum: 21.496 MB


 NUMBER OF SORTED TWO-ELECTRON INTEGRALS:    2753031.     BUFFER LENGTH:  32768
 NUMBER OF SEGMENTS:   1  SEGMENT LENGTH:    2753031      RECORD LENGTH: 524288

 Memory used in sort:       3.31 MW

 SORT1 READ     3104305. AND WROTE     2685168. INTEGRALS IN      8 RECORDS. CPU TIME:     0.03 SEC, REAL TIME:     0.05 SEC
 SORT2 READ     2685168. AND WROTE     2753031. INTEGRALS IN     82 RECORDS. CPU TIME:     0.05 SEC, REAL TIME:     0.06 SEC

 FILE SIZES:   FILE 1:    21.5 MBYTE,  FILE 4:    33.6 MBYTE,   TOTAL:     55.1 MBYTE

 OPERATOR DM      FOR CENTER  0  COORDINATES:    0.000000    0.000000    0.000000


 **********************************************************************************************************************************
 DATASETS  * FILE   NREC   LENGTH (MB)   RECORD NAMES
              1      19       21.55       500      610      700      900      950      970     1000      129      960     1100   
                                          VAR    BASINP    GEOM    SYMINP    ZMAT    AOBASIS   BASIS     P2S    ABASIS      S 
                                         1400     1410     1200     1210     1080     1600     1650     1300     1700   
                                           T        V       H0       H01     AOSYM     SMH    MOLCAS    ERIS     OPER   

 PROGRAMS   *        TOTAL       INT
 CPU TIMES  *         0.63      0.57
 REAL TIME  *         0.84 SEC
 DISK USED  *        77.35 MB      
 GA USED    *         0.00 MB       (max)       0.00 MB       (current)
 **********************************************************************************************************************************

1PROGRAM * RHF-SCF (CLOSED SHELL)       Authors: W. Meyer, H.-J. Werner


 NUMBER OF ELECTRONS:      10+   10-    SPACE SYMMETRY=1    SPIN SYMMETRY: Singlet 
 CONVERGENCE THRESHOLDS:    1.00E-10 (Density)    1.00E-13 (Energy)
 MAX. NUMBER OF ITERATIONS:      200
 INTERPOLATION TYPE:            DIIS
 INTERPOLATION STEPS:              2 (START)      1 (STEP)
 LEVEL SHIFTS:                  0.00 (CLOSED)  0.00 (OPEN) 



 Orbital guess generated from atomic densities. Full valence occupancy:   18

 Molecular orbital dump at record        2100.2

 ITERATION    DDIFF          GRAD             ENERGY        2-EL.EN.            DIPOLE MOMENTS         DIIS
    1      0.000D+00      0.000D+00       -80.35963297    134.811306   -0.00241   -0.00001    0.00139    0
    2      0.000D+00      0.637D-02       -80.39229948    132.531898   -0.00072   -0.00000    0.00041    1
    3      0.132D-01      0.234D-02       -80.39616101    133.333263   -0.00095   -0.00000    0.00054    2
    4      0.460D-02      0.630D-03       -80.39668965    133.196465   -0.00079   -0.00000    0.00045    3
    5      0.165D-02      0.664D-04       -80.39669417    133.202489   -0.00077   -0.00000    0.00044    4
    6      0.233D-03      0.392D-05       -80.39669420    133.202351   -0.00077   -0.00000    0.00044    5
    7      0.205D-04      0.233D-06       -80.39669420    133.202349   -0.00077   -0.00000    0.00044    5
    8      0.745D-06      0.410D-07       -80.39669420    133.202351   -0.00077   -0.00000    0.00044    4
    9      0.110D-06      0.112D-07       -80.39669420    133.202351   -0.00077   -0.00000    0.00044    4
   10      0.378D-07      0.227D-08       -80.39669420    133.202351   -0.00077   -0.00000    0.00044    5
   11      0.766D-08      0.275D-09       -80.39669420    133.202351   -0.00077   -0.00000    0.00044    5
   12      0.708D-09      0.784D-10       -80.39669420    133.202351   -0.00077   -0.00000    0.00044    6
   13      0.194D-09      0.272D-10       -80.39669420    133.202351   -0.00077   -0.00000    0.00044    6
   14      0.731D-10      0.431D-11       -80.39669420    133.202351   -0.00077   -0.00000    0.00044    6
   15      0.214D-10      0.411D-12       -80.39669420    133.202351   -0.00077   -0.00000    0.00044    6
   16      0.140D-11      0.101D-12       -80.39669420    133.202351   -0.00077   -0.00000    0.00044    0

 Final occupancy:  10

 !RHF STATE 1.1 Energy                -80.396694195918
 Nuclear energy                        41.33306573
 One-electron energy                 -188.33093552
 Two-electron energy                   66.60117560
 Virial quotient                       -1.00229971
 !RHF STATE 1.1 Dipole moment          -0.00077120    -0.00000317     0.00044035
 Dipole moment /Debye                  -0.00196006    -0.00000805     0.00111918

 Orbital energies:

         1.1          2.1          3.1          4.1          5.1          6.1          7.1          8.1          9.1         10.1
    -11.215309   -11.215306    -0.944250    -0.938410    -0.549677    -0.545816    -0.544922    -0.538490    -0.537569    -0.534544

        11.1         12.1
      0.172419     0.229242


 **********************************************************************************************************************************
 DATASETS  * FILE   NREC   LENGTH (MB)   RECORD NAMES
              1      19       21.55       500      610      700      900      950      970     1000      129      960     1100   
                                          VAR    BASINP    GEOM    SYMINP    ZMAT    AOBASIS   BASIS     P2S    ABASIS      S 
                                         1400     1410     1200     1210     1080     1600     1650     1300     1700   
                                           T        V       H0       H01     AOSYM     SMH    MOLCAS    ERIS     OPER   

              2       3        0.51       700     1000     2100   
                                         GEOM     BASIS     RHF  

 PROGRAMS   *        TOTAL       RHF       INT
 CPU TIMES  *         1.01      0.38      0.57
 REAL TIME  *         1.27 SEC
 DISK USED  *        77.35 MB      
 GA USED    *         0.00 MB       (max)       0.00 MB       (current)
 **********************************************************************************************************************************


1PROGRAM * CCSD (Closed-shell coupled cluster)     Authors: C. Hampel, H.-J. Werner, 1991, M. Deegan, P.J. Knowles, 1992


 Convergence thresholds:  THRVAR = 1.00D-08  THRDEN = 1.00D-12

 CCSD(T)     terms to be evaluated (factor= 1.000)


 Number of core orbitals:           2 (   2 )
 Number of closed-shell orbitals:   8 (   8 )
 Number of external orbitals:      58 (  58 )

 Molecular orbitals read from record     2100.2  Type=RHF/CANONICAL (state 1.1)

 Number of N-1 electron functions:               8
 Number of N-2 electron functions:              36
 Number of singly external CSFs:               464
 Number of doubly external CSFs:            107880
 Total number of CSFs:                      108345

 Length of J-op  integral file:               0.00 MB
 Length of K-op  integral file:               0.35 MB
 Length of 3-ext integral record:             0.00 MB

 Memory could be reduced to 2.66 Mwords without degradation in triples

 Integral transformation finished. Total CPU:   0.09 sec, npass=  1  Memory used:   1.86 MW

 Reference energy:                    -80.39669420

 MP2 singlet pair energy:              -0.23207614
 MP2 triplet pair energy:              -0.09154663
 MP2 correlation energy:               -0.32362278
 MP2 total energy:                    -80.72031697

 SCS-MP2 correlation energy:           -0.33545372   (PS=  1.200000  PT=  0.333333)
 SCS-MP2 total energy:                -80.73214792

 ITER.      SQ.NORM     CORR.ENERGY   TOTAL ENERGY   ENERGY CHANGE        DEN1      VAR(S)    VAR(P)  DIIS     TIME
   1      1.13420947    -0.36752459   -80.76421878    -0.04390181    -0.03297796  0.50D-03  0.24D-02  1  1     0.28
   2      1.14681842    -0.37032200   -80.76701619    -0.00279741    -0.01276557  0.15D-04  0.96D-04  2  2     0.47
   3      1.14861005    -0.37049303   -80.76718723    -0.00017103    -0.00095493  0.17D-05  0.56D-05  3  3     0.67
   4      1.14897768    -0.37051334   -80.76720753    -0.00002031    -0.00016574  0.25D-07  0.35D-06  4  4     0.85
   5      1.14902363    -0.37051086   -80.76720505     0.00000248    -0.00002394  0.18D-08  0.18D-07  5  5     1.04
   6      1.14902495    -0.37051080   -80.76720499     0.00000006    -0.00000011  0.19D-09  0.12D-08  6  6     1.23
   7      1.14902505    -0.37051106   -80.76720525    -0.00000026     0.00000013  0.13D-10  0.71D-10  6  1     1.42
   8      1.14902522    -0.37051105   -80.76720525     0.00000001    -0.00000013  0.15D-11  0.41D-11  6  2     1.61
   9      1.14902525    -0.37051104   -80.76720523     0.00000001    -0.00000003  0.15D-12  0.26D-12  6  3     1.80
  10      1.14902524    -0.37051104   -80.76720523     0.00000000     0.00000001  0.11D-13  0.23D-13  6  4     2.00
  11      1.14902523    -0.37051104   -80.76720523    -0.00000000     0.00000001  0.80D-15  0.19D-14  6  5     2.19
  12      1.14902523    -0.37051104   -80.76720523    -0.00000000     0.00000000  0.43D-16  0.23D-15  6  6     2.38
  13      1.14902523    -0.37051104   -80.76720523    -0.00000000     0.00000000  0.34D-17  0.28D-16  6  1     2.57
  14      1.14902523    -0.37051104   -80.76720523     0.00000000     0.00000000  0.59D-18  0.37D-17  6  2     2.76
  15      1.14902523    -0.37051104   -80.76720523     0.00000000     0.00000000  0.71D-19  0.37D-18  6  3     2.95
  16      1.14902523    -0.37051104   -80.76720523    -0.00000000     0.00000000  0.15D-20  0.20D-19  6  5     3.14
  17      1.14902523    -0.37051104   -80.76720523    -0.00000000     0.00000000  0.18D-21  0.56D-21  6  4     3.33
  18      1.14902523    -0.37051104   -80.76720523     0.00000000    -0.00000000  0.45D-22  0.51D-22  6  6     3.53

 Norm of t1 vector:      0.03062483      S-energy:     0.00000000      T1 diagnostic:  0.00541376
                                                                       D1 diagnostic:  0.00878441


 Total CPU time for triples:      1.32 sec


 RESULTS
 =======

  Reference energy                    -80.396694195918
  CCSD singlet pair energy             -0.281839934900
  CCSD triplet pair energy             -0.088671103457
  CCSD correlation energy              -0.370511038357

  Triples (T) contribution             -0.007535226155
  Total correlation energy             -0.378046264512

  CCSD total energy                   -80.767205234274
  CCSD[T] energy                      -80.774916642747
  CCSD-T energy                       -80.774646027928
 !CCSD(T) total energy                -80.774740460429

 Timing summary (sec):

 STEP                 CPU(USER)    SYS     CPU(TOT)    WALL
 Transformation          0.10      0.02      0.12      0.12
 CCSD iterations         3.43      0.13      3.56      3.60
 Triples                 1.32      0.02      1.34      1.34

 Program statistics:

 Available memory in ccsd:               999999644
 Min. memory needed in ccsd:                356281
 Max. memory used in ccsd:                  442401
 Max. memory used in cckext:                403930 (18 integral passes)



 **********************************************************************************************************************************
 DATASETS  * FILE   NREC   LENGTH (MB)   RECORD NAMES
              1      20       30.01       500      610      700      900      950      970     1000      129      960     1100   
                                          VAR    BASINP    GEOM    SYMINP    ZMAT    AOBASIS   BASIS     P2S    ABASIS      S 
                                         1400     1410     1200     1210     1080     1600     1650     1300     1700     1380   
                                           T        V       H0       H01     AOSYM     SMH    MOLCAS    ERIS     OPER     JKOP   

              2       3        0.51       700     1000     2100   
                                         GEOM     BASIS     RHF  

 PROGRAMS   *        TOTAL   CCSD(T)       RHF       INT
 CPU TIMES  *         5.87      4.86      0.38      0.57
 REAL TIME  *         6.35 SEC
 DISK USED  *        77.35 MB      
 GA USED    *         0.00 MB       (max)       0.00 MB       (current)
 **********************************************************************************************************************************

        CCSD(T)         RHF-SCF 
    -80.77474046    -80.39669420
 **********************************************************************************************************************************
 Variable memory released
