
 Primary working directories    : /tmp/1049102.823.gen5.q
 Secondary working directories  : /tmp/1049102.823.gen5.q
 Wavefunction directory         : /home/vulcan/mel64643/wfu/
 Main file repository           : /tmp/1049102.823.gen5.q/

 ARCHNAME  : Linux/x86_64
 FC        : /opt/intel/compilers_and_libraries_2016.1.150/linux/bin/intel64/ifort
 FCVERSION : 16.0.1
 BLASLIB   : -mkl
 id        : ccgc

 Nodes     nprocs
 n070         1
 ga_uses_ma=false, calling ma_init with nominal heap.
 GA-space will be limited to   8.0 MW (determined by -G option)

 Using customized tuning parameters: mindgm=10; mindgv=16; mindgc=4; mindgr=1; noblas=0; mincuda=1000; minvec=7
 default implementation of scratch files=df  

 ***,Optimization of h2o_3
 memory,1000,m
 gthresh,energy=1.0d-12,orbital=1.0d-10,oneint=1.0d-16,twoint=1.0d-16,optgrad=1.0d-6,compress=1.0d-13
 geomtyp=xyz
 
 
 
 bohr
 geometry = {
  C    0.9153426053    1.4055618732   -2.2729641041
  C    0.7396024668    2.7093425361    0.0185367352
  C    0.9983856750    1.4059625264    2.3025407895
  C    1.4313108483   -1.2012504117    2.2950453050
  C    1.6077782762   -2.5045395887    0.0035866131
  C    1.3490535417   -1.2009359314   -2.2802133172
  H    0.7056686260    2.4147746341   -4.0427518498
  H    0.3894268064    4.7219452028    0.0243763002
  H    0.8565890595    2.4184284770    4.0832012675
  H    1.6292528116   -2.2115249968    4.0659932455
  H    1.9404904770   -4.5205821460   -0.0022443745
  H    1.4837408494   -2.2140180722   -4.0613613875
  N   -5.4421789859   -0.3575908845   -0.0741652032
  H   -5.5871193474   -1.5658797968   -1.5483565313
  H   -6.0743329819   -1.3178474603    1.4707013549
  H   -3.5620788612   -0.0736355593    0.1981528338
 }
 
 basis=aug-cc-pvdz, H=cc-pvdz
 {rhf;maxit,200}
 {ccsd(t)}

 Variables initialized (661), CPU time= 0.00 sec
 Commands  initialized (458), CPU time= 0.02 sec, 486 directives.
 Default parameters read. Elapsed time= 0.11 sec

 Checking input...
 Passed
1


                                         ***  PROGRAM SYSTEM MOLPRO  ***
                         Copyright, University College Cardiff Consultants Limited, 2008

                                    Version 2010.1 linked May 16 2016 07:17:05


 **********************************************************************************************************************************
 LABEL *   Optimization of h2o_3                                                         
 Linux-4.4.3/n070(x86_64) 64 bit mpp version                                             DATE: 19-Mar-24          TIME: 23:20:40  
 **********************************************************************************************************************************

 SHA1:             9e8077add272b0f3cad6f7df79ec5211205f459d
 **********************************************************************************************************************************

 THRESHOLDS:

 ZERO    =  1.00D-12  ONEINT  =  1.00D-16  TWOINT  =  1.00D-16  PREFAC  =  1.00D-14  LOCALI  =  1.00D-09  EORDER  =  1.00D-04
 ENERGY  =  1.00D-12  ETEST   =  0.00D+00  EDENS   =  0.00D+00  THRDEDEF=  1.00D-06  GRADIENT=  1.00D-02  STEP    =  1.00D-03
 ORBITAL =  1.00D-10  CIVEC   =  1.00D-05  COEFF   =  1.00D-04  PRINTCI =  5.00D-02  PUNCHCI =  9.90D+01  OPTGRAD =  1.00D-06
 OPTENERG=  1.00D-06  OPTSTEP =  3.00D-04  THRGRAD =  1.00D-10  COMPRESS=  1.00D-13  VARMIN  =  1.00D-07  VARMAX  =  1.00D-03
 THRDOUB =  0.00D+00  THRDIV  =  1.00D-05  THRRED  =  1.00D-07  THRPSP  =  1.00D+00  THRDC   =  1.00D-10  THRCS   =  1.00D-10
 THRNRM  =  1.00D-08  THREQ   =  0.00D+00  THRDE   =  1.00D+00  THRREF  =  1.00D-05  SPARFAC =  1.00D+00  THRDLP  =  1.00D-07
 THRDIA  =  1.00D-10  THRDLS  =  1.00D-07  THRGPS  =  0.00D+00  THRKEX  =  0.00D+00  THRDIS  =  2.00D-01  THRVAR  =  1.00D-10
 THRLOC  =  1.00D-06  THRGAP  =  1.00D-06  THRLOCT = -1.00D+00  THRGAPT = -1.00D+00  THRORB  =  1.00D-06  THRMLTP =  0.00D+00
 THRCPQCI=  1.00D-10  KEXTA   =  0.00D+00  THRCOARS=  0.00D+00  SYMTOL  =  1.00D-06  GRADTOL =  1.00D-06  THROVL  =  1.00D-08
 THRORTH =  1.00D-08  GRID    =  1.00D-06  GRIDMAX =  1.00D-03  DTMAX   =  0.00D+00

 SETTING GEOMTYP        =    XYZ
 ZUNIT=BOHR
 

 Variable memory set to 1000000000 words,  buffer space   230000 words

 SETTING BASIS          =    AUG-CC-PVDZ,H=CC-PVDZ


 Recomputing integrals since basis changed


 Using spherical harmonics

 Library entry C      S aug-cc-pVDZ          selected for orbital group  1
 Library entry C      P aug-cc-pVDZ          selected for orbital group  1
 Library entry C      D aug-cc-pVDZ          selected for orbital group  1
 Library entry H      S cc-pVDZ              selected for orbital group  2
 Library entry H      P cc-pVDZ              selected for orbital group  2
 Library entry N      S aug-cc-pVDZ          selected for orbital group  3
 Library entry N      P aug-cc-pVDZ          selected for orbital group  3
 Library entry N      D aug-cc-pVDZ          selected for orbital group  3

1PROGRAM * SEWARD (Integral evaluation for generally contracted gaussian basis sets)     Author: Roland Lindh, 1990

 Geometry written to block  1 of record 700


 Point group  C1  



 ATOMIC COORDINATES

 NR  ATOM    CHARGE       X              Y              Z

   1  C       6.00    0.915342605    1.405561873   -2.272964104
   2  C       6.00    0.739602467    2.709342536    0.018536735
   3  C       6.00    0.998385675    1.405962526    2.302540790
   4  C       6.00    1.431310848   -1.201250412    2.295045305
   5  C       6.00    1.607778276   -2.504539589    0.003586613
   6  C       6.00    1.349053542   -1.200935931   -2.280213317
   7  H       1.00    0.705668626    2.414774634   -4.042751850
   8  H       1.00    0.389426806    4.721945203    0.024376300
   9  H       1.00    0.856589059    2.418428477    4.083201267
  10  H       1.00    1.629252812   -2.211524997    4.065993245
  11  H       1.00    1.940490477   -4.520582146   -0.002244375
  12  H       1.00    1.483740849   -2.214018072   -4.061361387
  13  N       7.00   -5.442178986   -0.357590884   -0.074165203
  14  H       1.00   -5.587119347   -1.565879797   -1.548356531
  15  H       1.00   -6.074332982   -1.317847460    1.470701355
  16  H       1.00   -3.562078861   -0.073635559    0.198152834

 Bond lengths in Bohr (Angstrom)

 1-2  2.642291564  1-6  2.642345271  1-7  2.048077694  2-3  2.642431214  2-8  2.042847666
     ( 1.398240475)     ( 1.398268896)     ( 1.083796038)     ( 1.398314375)     ( 1.081028426)

  3- 4  2.642922567   3- 9  2.053276727   4- 5  2.642061008   4-10  2.048436566   5- 6  2.642359382
       ( 1.398574387)       ( 1.086547248)       ( 1.398118470)       ( 1.083985945)       ( 1.398276363)

  5-11  2.043320582   6-12  2.053524907  13-14  1.911598775  13-15  1.925700924  13-16  1.920823839
       ( 1.081278683)       ( 1.086678579)       ( 1.011574504)       ( 1.019037040)       ( 1.016456198)

 Bond angles

  1- 2- 3  119.98067262   1- 2- 8  120.00017341   1- 6- 5  120.02353239   1- 6-12  119.98613465

  2-1-6  120.00199114   2-1-7  119.96358318   2-3-4  120.01167878   2-3-9  119.97429906

  3- 2- 8  120.01747696   3- 4- 5  120.00136303   3- 4-10  119.99378370   4- 3- 9  120.01369043

  4- 5- 6  119.98073411   4- 5-11  120.00333293   5- 4-10  120.00484855   5- 6-12  119.99031842

  6- 1- 7  120.03368579   6- 5-11  120.01581896  14-13-15  106.17607632  14-13-16  106.08043157

 15-13-16  106.33745471

 NUCLEAR CHARGE:                   52
 NUMBER OF PRIMITIVE AOS:         322
 NUMBER OF SYMMETRY AOS:          308
 NUMBER OF CONTRACTIONS:          206   ( 206A   )
 NUMBER OF CORE ORBITALS:           7   (   7A   )
 NUMBER OF VALENCE ORBITALS:       37   (  37A   )


 NUCLEAR REPULSION ENERGY  273.71346855


 Eigenvalues of metric

         1 0.861E-05 0.184E-04 0.228E-04 0.532E-04 0.643E-04 0.644E-04 0.107E-03 0.107E-03


 Contracted 2-electron integrals neglected if value below      1.0D-16
 AO integral compression algorithm  1   Integral accuracy      1.0D-16

     1892.155 MB (compressed) written to integral file ( 94.5%)

     Node minimum: 1892.155 MB, node maximum: 1892.155 MB


 NUMBER OF SORTED TWO-ELECTRON INTEGRALS:  227303181.     BUFFER LENGTH:  32768
 NUMBER OF SEGMENTS:  15  SEGMENT LENGTH:   15999503      RECORD LENGTH: 524288

 Memory used in sort:      16.56 MW

 SORT1 READ   250230481. AND WROTE   226407645. INTEGRALS IN    654 RECORDS. CPU TIME:     2.47 SEC, REAL TIME:     3.89 SEC
 SORT2 READ   226407645. AND WROTE   227303181. INTEGRALS IN   7218 RECORDS. CPU TIME:     1.52 SEC, REAL TIME:     2.59 SEC

 FILE SIZES:   FILE 1:  1743.2 MBYTE,  FILE 4:  2743.1 MBYTE,   TOTAL:   4486.3 MBYTE

 OPERATOR DM      FOR CENTER  0  COORDINATES:    0.000000    0.000000    0.000000


 **********************************************************************************************************************************
 DATASETS  * FILE   NREC   LENGTH (MB)   RECORD NAMES
              1      19     1743.67       500      610      700      900      950      970     1000      129      960     1100   
                                          VAR    BASINP    GEOM    SYMINP    ZMAT    AOBASIS   BASIS     P2S    ABASIS      S 
                                         1400     1410     1200     1210     1080     1600     1650     1300     1700   
                                           T        V       H0       H01     AOSYM     SMH    MOLCAS    ERIS     OPER   

 PROGRAMS   *        TOTAL       INT
 CPU TIMES  *        15.37     15.24
 REAL TIME  *        19.41 SEC
 DISK USED  *         6.38 GB      
 GA USED    *         0.01 MB       (max)       0.00 MB       (current)
 **********************************************************************************************************************************

1PROGRAM * RHF-SCF (CLOSED SHELL)       Authors: W. Meyer, H.-J. Werner


 NUMBER OF ELECTRONS:      26+   26-    SPACE SYMMETRY=1    SPIN SYMMETRY: Singlet 
 CONVERGENCE THRESHOLDS:    1.00E-10 (Density)    1.00E-13 (Energy)
 MAX. NUMBER OF ITERATIONS:      200
 INTERPOLATION TYPE:            DIIS
 INTERPOLATION STEPS:              2 (START)      1 (STEP)
 LEVEL SHIFTS:                  0.00 (CLOSED)  0.00 (OPEN) 



 Orbital guess generated from atomic densities. Full valence occupancy:   44

 Molecular orbital dump at record        2100.2

 ITERATION    DDIFF          GRAD             ENERGY        2-EL.EN.            DIPOLE MOMENTS         DIIS
    1      0.000D+00      0.000D+00      -286.85319683    740.890133    0.51841   -0.76736    0.14298    0
    2      0.000D+00      0.322D-02      -286.92076005    735.098282    0.43487   -0.38428    0.06280    1
    3      0.826D-02      0.133D-02      -286.93009060    737.730498    0.45138   -0.52265    0.09449    2
    4      0.218D-02      0.381D-03      -286.93130886    737.210685    0.45006   -0.49594    0.08592    3
    5      0.783D-03      0.526D-04      -286.93133269    737.199416    0.45590   -0.50604    0.09003    4
    6      0.135D-03      0.177D-04      -286.93133512    737.214311    0.45476   -0.50055    0.08784    5
    7      0.511D-04      0.554D-05      -286.93133540    737.211235    0.45541   -0.50275    0.08861    6
    8      0.149D-04      0.129D-05      -286.93133542    737.210229    0.45557   -0.50240    0.08847    7
    9      0.417D-05      0.542D-06      -286.93133542    737.210688    0.45560   -0.50249    0.08850    7
   10      0.148D-05      0.143D-06      -286.93133542    737.210636    0.45560   -0.50250    0.08850    7
   11      0.516D-06      0.409D-07      -286.93133542    737.210622    0.45561   -0.50249    0.08850    7
   12      0.141D-06      0.174D-07      -286.93133542    737.210636    0.45561   -0.50250    0.08850    8
   13      0.608D-07      0.758D-08      -286.93133542    737.210631    0.45561   -0.50250    0.08850    8
   14      0.335D-07      0.361D-08      -286.93133542    737.210633    0.45561   -0.50250    0.08850    8
   15      0.201D-07      0.138D-08      -286.93133542    737.210632    0.45561   -0.50249    0.08850    8
   16      0.711D-08      0.454D-09      -286.93133542    737.210632    0.45561   -0.50250    0.08850    9
   17      0.212D-08      0.124D-09      -286.93133542    737.210632    0.45561   -0.50250    0.08850    9
   18      0.422D-09      0.380D-10      -286.93133542    737.210632    0.45561   -0.50250    0.08850    8
   19      0.255D-09      0.139D-10      -286.93133542    737.210632    0.45561   -0.50250    0.08850    8
   20      0.198D-09      0.642D-11      -286.93133542    737.210632    0.45561   -0.50250    0.08850    8
   21      0.229D-09      0.298D-11      -286.93133542    737.210632    0.45561   -0.50250    0.08850    9
   22      0.142D-09      0.115D-11      -286.93133542    737.210632    0.45561   -0.50250    0.08850    9
   23      0.152D-09      0.757D-12      -286.93133542    737.210632    0.45561   -0.50250    0.08850    9
   24      0.900D-10      0.558D-12      -286.93133542    737.210632    0.45561   -0.50250    0.08850    9
   25      0.669D-10      0.688D-12      -286.93133542    737.210632    0.45561   -0.50250    0.08850    0

 Final occupancy:  26

 !RHF STATE 1.1 Energy               -286.931335423593
 Nuclear energy                       273.71346855
 One-electron energy                 -929.25012000
 Two-electron energy                  368.60531603
 Virial quotient                       -1.00146471
 !RHF STATE 1.1 Dipole moment           0.45561056    -0.50249505     0.08849604
 Dipole moment /Debye                   1.15797070    -1.27713137     0.22491976

 Orbital energies:

         1.1          2.1          3.1          4.1          5.1          6.1          7.1          8.1          9.1         10.1
    -15.535004   -11.250628   -11.250183   -11.249639   -11.248790   -11.248667   -11.247723    -1.157504    -1.125570    -1.022136

        11.1         12.1         13.1         14.1         15.1         16.1         17.1         18.1         19.1         20.1
     -1.021873    -0.830860    -0.830319    -0.714503    -0.650461    -0.623922    -0.611591    -0.609912    -0.593820    -0.593211

        21.1         22.1         23.1         24.1         25.1         26.1         27.1         28.1
     -0.504897    -0.500313    -0.499815    -0.413437    -0.342969    -0.341997     0.063887     0.066440


 **********************************************************************************************************************************
 DATASETS  * FILE   NREC   LENGTH (MB)   RECORD NAMES
              1      19     1743.67       500      610      700      900      950      970     1000      129      960     1100   
                                          VAR    BASINP    GEOM    SYMINP    ZMAT    AOBASIS   BASIS     P2S    ABASIS      S 
                                         1400     1410     1200     1210     1080     1600     1650     1300     1700   
                                           T        V       H0       H01     AOSYM     SMH    MOLCAS    ERIS     OPER   

              2       3        1.40       700     1000     2100   
                                         GEOM     BASIS     RHF  

 PROGRAMS   *        TOTAL       RHF       INT
 CPU TIMES  *        59.98     44.61     15.24
 REAL TIME  *        69.50 SEC
 DISK USED  *         6.38 GB      
 GA USED    *         0.01 MB       (max)       0.00 MB       (current)
 **********************************************************************************************************************************


1PROGRAM * CCSD (Closed-shell coupled cluster)     Authors: C. Hampel, H.-J. Werner, 1991, M. Deegan, P.J. Knowles, 1992


 Convergence thresholds:  THRVAR = 1.00D-08  THRDEN = 1.00D-12

 CCSD(T)     terms to be evaluated (factor= 1.000)


 Number of core orbitals:           7 (   7 )
 Number of closed-shell orbitals:  19 (  19 )
 Number of external orbitals:     180 ( 180 )

 Molecular orbitals read from record     2100.2  Type=RHF/CANONICAL (state 1.1)

 Number of N-1 electron functions:              19
 Number of N-2 electron functions:             190
 Number of singly external CSFs:              3420
 Number of doubly external CSFs:           5849910
 Total number of CSFs:                     5853331

 Length of J-op  integral file:               0.00 MB
 Length of K-op  integral file:               2.96 MB
 Length of 3-ext integral record:             0.00 MB

 Memory could be reduced to 140.12 Mwords without degradation in triples

 Integral transformation finished. Total CPU:  14.54 sec, npass=  1  Memory used: 101.90 MW

 Reference energy:                   -286.93133542

 MP2 singlet pair energy:              -0.62063174
 MP2 triplet pair energy:              -0.38983373
 MP2 correlation energy:               -1.01046546
 MP2 total energy:                   -287.94180089

 SCS-MP2 correlation energy:           -0.98732129   (PS=  1.200000  PT=  0.333333)
 SCS-MP2 total energy:               -287.91865672

 ITER.      SQ.NORM     CORR.ENERGY   TOTAL ENERGY   ENERGY CHANGE        DEN1      VAR(S)    VAR(P)  DIIS     TIME
   1      1.38488299    -1.05475776  -287.98609318    -0.04429230    -0.01721357  0.36D-02  0.80D-02  1  1    50.45
   2      1.41439615    -1.06062047  -287.99195590    -0.00586271    -0.02705307  0.63D-04  0.10D-02  2  2    86.87
   3      1.42352746    -1.06071621  -287.99205163    -0.00009574    -0.00464355  0.27D-04  0.84D-04  3  3   123.29
   4      1.42746474    -1.06088496  -287.99222038    -0.00016875    -0.00121413  0.22D-05  0.11D-04  4  4   159.74
   5      1.42867829    -1.06091591  -287.99225133    -0.00003095    -0.00027319  0.27D-06  0.13D-05  5  5   196.19
   6      1.42898086    -1.06090567  -287.99224110     0.00001023    -0.00004348  0.23D-07  0.79D-07  6  6   232.65
   7      1.42902161    -1.06090730  -287.99224273    -0.00000163    -0.00000103  0.35D-08  0.82D-08  6  2   269.07
   8      1.42903079    -1.06090716  -287.99224259     0.00000014    -0.00000117  0.75D-09  0.76D-09  6  1   305.55
   9      1.42903062    -1.06090730  -287.99224272    -0.00000014     0.00000123  0.21D-09  0.92D-10  6  4   341.99
  10      1.42903182    -1.06090731  -287.99224273    -0.00000001    -0.00000018  0.57D-10  0.15D-10  6  3   378.46
  11      1.42903176    -1.06090733  -287.99224275    -0.00000002     0.00000013  0.14D-10  0.37D-11  6  5   414.91
  12      1.42903172    -1.06090733  -287.99224275    -0.00000000     0.00000003  0.15D-11  0.10D-11  6  6   451.35
  13      1.42903155    -1.06090733  -287.99224276    -0.00000000     0.00000006  0.69D-13  0.20D-12  6  2   487.95
  14      1.42903145    -1.06090733  -287.99224276    -0.00000000     0.00000002  0.81D-14  0.40D-13  6  1   524.47
  15      1.42903139    -1.06090733  -287.99224276    -0.00000000     0.00000001  0.89D-15  0.53D-14  6  3   561.00
  16      1.42903137    -1.06090733  -287.99224276    -0.00000000     0.00000000  0.12D-15  0.37D-15  6  4   597.44
  17      1.42903136    -1.06090733  -287.99224276    -0.00000000     0.00000000  0.31D-16  0.44D-16  6  5   633.85
  18      1.42903136    -1.06090733  -287.99224276    -0.00000000     0.00000000  0.82D-17  0.71D-17  6  6   670.32
  19      1.42903136    -1.06090733  -287.99224276    -0.00000000     0.00000000  0.24D-17  0.78D-18  6  2   706.82
  20      1.42903136    -1.06090733  -287.99224276    -0.00000000     0.00000000  0.78D-18  0.19D-18  6  1   743.29
  21      1.42903136    -1.06090733  -287.99224276    -0.00000000     0.00000000  0.29D-18  0.77D-19  6  3   779.76
  22      1.42903136    -1.06090733  -287.99224276    -0.00000000     0.00000000  0.12D-18  0.36D-19  6  4   816.21
  23      1.42903136    -1.06090733  -287.99224276    -0.00000000     0.00000000  0.53D-19  0.21D-19  6  6   852.67

 Norm of t1 vector:      0.08385735      S-energy:    -0.00000000      T1 diagnostic:  0.00961910
                                                                       D1 diagnostic:  0.02619700

 Doubles amplitudes (print threshold =  0.500E-01):

         I         J         SYM. A    SYM. B    A         B      T(IJ, AB)

        18        18         1         1         6         6     -0.05113189
        19        19         1         1         7         7     -0.05452803


 Total CPU time for triples:    760.75 sec


 RESULTS
 =======

  Reference energy                   -286.931335423594
  CCSD singlet pair energy             -0.711156153071
  CCSD triplet pair energy             -0.349751180024
  CCSD correlation energy              -1.060907333095

  Triples (T) contribution             -0.045602767828
  Total correlation energy             -1.106510100923

  CCSD total energy                  -287.992242756689
  CCSD[T] energy                     -288.038715746238
  CCSD-T energy                      -288.037456976663
 !CCSD(T) total energy               -288.037845524517

 Timing summary (sec):

 STEP                 CPU(USER)    SYS     CPU(TOT)    WALL
 Transformation         14.96      0.97     15.93     15.93
 CCSD iterations       837.73     13.69    851.42    851.64
 Triples               760.75     12.54    773.29    773.27

 Program statistics:

 Available memory in ccsd:               999998456
 Min. memory needed in ccsd:              14392275
 Max. memory used in ccsd:                19775697
 Max. memory used in cckext:              16737545 (23 integral passes)



 **********************************************************************************************************************************
 DATASETS  * FILE   NREC   LENGTH (MB)   RECORD NAMES
              1      20     2287.27       500      610      700      900      950      970     1000      129      960     1100   
                                          VAR    BASINP    GEOM    SYMINP    ZMAT    AOBASIS   BASIS     P2S    ABASIS      S 
                                         1400     1410     1200     1210     1080     1600     1650     1300     1700     1380   
                                           T        V       H0       H01     AOSYM     SMH    MOLCAS    ERIS     OPER     JKOP   

              2       3        1.40       700     1000     2100   
                                         GEOM     BASIS     RHF  

 PROGRAMS   *        TOTAL   CCSD(T)       RHF       INT
 CPU TIMES  *      1673.44   1613.46     44.61     15.24
 REAL TIME  *      1710.46 SEC
 DISK USED  *         6.38 GB      
 GA USED    *         0.01 MB       (max)       0.00 MB       (current)
 **********************************************************************************************************************************

        CCSD(T)         RHF-SCF 
   -288.03784552   -286.93133542
 **********************************************************************************************************************************
 Variable memory released
