
    -----------------------------------------------------------------------
          Psi4: An Open-Source Ab Initio Electronic Structure Package
                               Psi4 1.4a2.dev629 

                         Git: Rev {master} 2938fc2 dirty


    D. G. A. Smith, L. A. Burns, A. C. Simmonett, R. M. Parrish,
    M. C. Schieber, R. Galvelis, P. Kraus, H. Kruse, R. Di Remigio,
    A. Alenaizan, A. M. James, S. Lehtola, J. P. Misiewicz, M. Scheurer,
    R. A. Shaw, J. B. Schriber, Y. Xie, Z. L. Glick, D. A. Sirianni,
    J. S. O'Brien, J. M. Waldrop, A. Kumar, E. G. Hohenstein,
    B. P. Pritchard, B. R. Brooks, H. F. Schaefer III, A. Yu. Sokolov,
    K. Patkowski, A. E. DePrince III, U. Bozkaya, R. A. King,
    F. A. Evangelista, J. M. Turney, T. D. Crawford, C. D. Sherrill,
    J. Chem. Phys. 152(18) 184108 (2020). https://doi.org/10.1063/5.0006002

                            Additional Code Authors
    E. T. Seidl, C. L. Janssen, E. F. Valeev, M. L. Leininger,
    J. F. Gonthier, R. M. Richard, H. R. McAlexander, M. Saitow, X. Wang,
    P. Verma, and M. H. Lechner

             Previous Authors, Complete List of Code Contributors,
                       and Citations for Specific Modules
    https://github.com/psi4/psi4/blob/master/codemeta.json
    https://github.com/psi4/psi4/graphs/contributors
    http://psicode.org/psi4manual/master/introduction.html#citing-psifour

    -----------------------------------------------------------------------


    Psi4 started on: Sunday, 31 October 2021 03:35PM

    Process ID: 3161
    Host:       n065
    PSIDATADIR: /opt/psi/4/master/share/psi4
    Memory:     500.0 MiB
    Threads:    1
    
  ==> Input File <==

--------------------------------------------------------------------------
import os
memory 14 GB 
 
molecule {
 C   -0.2261755827    0.8517301933    0.0000000000
 F    2.0245580691   -0.3358286830   -0.0000000000
 H   -0.0343847407    2.8923702325    0.0000000000
 C   -2.4052577601   -0.4116795546   -0.0000000000
 H   -2.4515394779   -2.4528930842    0.0000000000
 H   -4.1625718977    0.6276662959   -0.0000000000
units bohr
}

basis {

assign 6-31g_2dfp_

[ 6-31g_2dfp_ ]

spherical

!----------------------------------------------------------------------
! Basis Set Exchange
! Version v0.8.13
! https://www.basissetexchange.org
!----------------------------------------------------------------------
!   Basis set: 6-31G(2df,p)
! Description: 6-31G(2df,p)
!        Role: orbital
!     Version: 0  (Data from the original Basis Set Exchange)
!----------------------------------------------------------------------


****
H     0
S    3   1.00
     18.7311370              0.03349460
      2.8253937              0.23472695
      0.6401217              0.81375733
S    1   1.00
      0.1612778              1.00000000
P    1   1.00
      1.5000000              1.0000000
P    1   1.00
      0.3750000              1.0000000
****
B     0
S    6   1.00
   2068.8823000              0.0018663
    310.6495700              0.0142515
     70.6830330              0.0695516
     19.8610800              0.2325729
      6.2993048              0.4670787
      2.1270270              0.3634314
SP   3   1.00
      4.7279710             -0.1303938              0.0745976
      1.1903377             -0.1307889              0.3078467
      0.3594117              1.1309444              0.7434568
SP   1   1.00
      0.1267512              1.0000000              1.0000000
D    1   1.00
      0.8020000              1.0000000
D    1   1.00
      0.2005000              1.0000000
F    1   1.00
      0.5000000              1.0000000
****
C     0
S    6   1.00
   3047.5249000              0.0018347
    457.3695100              0.0140373
    103.9486900              0.0688426
     29.2101550              0.2321844
      9.2866630              0.4679413
      3.1639270              0.3623120
SP   3   1.00
      7.8682724             -0.1193324              0.0689991
      1.8812885             -0.1608542              0.3164240
      0.5442493              1.1434564              0.7443083
SP   1   1.00
      0.1687144              1.0000000              1.0000000
D    1   1.00
      1.2520000              1.0000000
D    1   1.00
      0.3130000              1.0000000
F    1   1.00
      0.8000000              1.0000000
****
N     0
S    6   1.00
   4173.5110000              0.0018348
    627.4579000              0.0139950
    142.9021000              0.0685870
     40.2343300              0.2322410
     12.8202100              0.4690700
      4.3904370              0.3604550
SP   3   1.00
     11.6263580             -0.1149610              0.0675800
      2.7162800             -0.1691180              0.3239070
      0.7722180              1.1458520              0.7408950
SP   1   1.00
      0.2120313              1.0000000              1.0000000
D    1   1.00
      1.8260000              1.0000000
D    1   1.00
      0.4565000              1.0000000
F    1   1.00
      1.0000000              1.0000000
****
O     0
S    6   1.00
   5484.6717000              0.0018311
    825.2349500              0.0139501
    188.0469600              0.0684451
     52.9645000              0.2327143
     16.8975700              0.4701930
      5.7996353              0.3585209
SP   3   1.00
     15.5396160             -0.1107775              0.0708743
      3.5999336             -0.1480263              0.3397528
      1.0137618              1.1307670              0.7271586
SP   1   1.00
      0.2700058              1.0000000              1.0000000
D    1   1.00
      2.5840000              1.0000000
D    1   1.00
      0.6460000              1.0000000
F    1   1.00
      1.4000000              1.0000000
****
F     0
S    6   1.00
   7001.7130900              0.0018196169
   1051.3660900              0.0139160796
    239.2856900              0.0684053245
     67.3974453              0.233185760
     21.5199573              0.471267439
      7.40310130             0.356618546
SP   3   1.00
     20.8479528             -0.108506975            0.0716287243
      4.80830834            -0.146451658            0.3459121030
      1.34406986             1.128688580            0.7224699570
SP   1   1.00
      0.358151393            1.0000000              1.0000000
D    1   1.00
      3.5000000              1.0000000
D    1   1.00
      0.8750000              1.0000000
F    1   1.00
      1.8500000              1.0000000
****
Al     0
S    6   1.00
  13983.1000000              0.00194267
   2098.7500000              0.0148599
    477.7050000              0.0728494
    134.3600000              0.2468300
     42.8709000              0.4872580
     14.5189000              0.3234960
SP   6   1.00
    239.6680000             -0.00292619             0.00460285
     57.4419000             -0.0374080              0.0331990
     18.2859000             -0.1144870              0.1362820
      6.5991400              0.1156350              0.3304760
      2.4904900              0.6125950              0.4491460
      0.9445400              0.3937990              0.2657040
SP   3   1.00
      1.2779000             -0.2276060             -0.0175130
      0.3975900              0.00144583             0.2445330
      0.1600950              1.0927900              0.8049340
SP   1   1.00
      0.0556577              1.0000000              1.0000000
D    1   1.00
      0.6500000              1.0000000
D    1   1.00
      0.1625000              1.0000000
F    1   1.00
      0.2500000              1.0000000
****
Si     0
S    6   1.00
  16115.9000000              0.00195948
   2425.5800000              0.01492880
    553.8670000              0.07284780
    156.3400000              0.24613000
     50.0683000              0.48591400
     17.0178000              0.32500200
SP   6   1.00
    292.7180000             -0.00278094             0.00443826
     69.8731000             -0.03571460             0.03266790
     22.3363000             -0.11498500             0.13472100
      8.1503900              0.09356340             0.32867800
      3.1345800              0.60301700             0.44964000
      1.2254300              0.41895900             0.26137200
SP   3   1.00
      1.7273800             -0.24463000            -0.01779510
      0.5729220              0.00431572             0.25353900
      0.2221920              1.09818000             0.80066900
SP   1   1.00
      0.0778369              1.00000000             1.00000000
D    1   1.00
      0.9000000              1.0000000
D    1   1.00
      0.2250000              1.0000000
F    1   1.00
      0.3200000              1.0000000
****
P     0
S    6   1.00
  19413.3000000              0.0018516
   2909.4200000              0.0142062
    661.3640000              0.0699995
    185.7590000              0.2400790
     59.1943000              0.4847620
     20.0310000              0.3352000
SP   6   1.00
    339.4780000             -0.00278217             0.00456462
     81.0101000             -0.0360499              0.03369360
     25.8780000             -0.1166310              0.13975500
      9.4522100              0.0968328              0.33936200
      3.6656600              0.6144180              0.45092100
      1.4674600              0.4037980              0.23858600
SP   3   1.00
      2.1562300             -0.2529230             -0.01776530
      0.7489970              0.0328517              0.27405800
      0.2831450              1.0812500              0.78542100
SP   1   1.00
      0.0998317              1.0000000              1.00000000
D    1   1.00
      1.1000000              1.0000000
D    1   1.00
      0.2750000              1.0000000
F    1   1.00
      0.4500000              1.0000000
****
S     0
S    6   1.00
  21917.1000000              0.0018690
   3301.4900000              0.0142300
    754.1460000              0.0696960
    212.7110000              0.2384870
     67.9896000              0.4833070
     23.0515000              0.3380740
SP   6   1.00
    423.7350000             -0.0023767              0.0040610
    100.7100000             -0.0316930              0.0306810
     32.1599000             -0.1133170              0.1304520
     11.8079000              0.0560900              0.3272050
      4.6311000              0.5922550              0.4528510
      1.8702500              0.4550060              0.2560420
SP   3   1.00
      2.6158400             -0.2503740             -0.0145110
      0.9221670              0.0669570              0.3102630
      0.3412870              1.0545100              0.7544830
SP   1   1.00
      0.1171670              1.0000000              1.0000000
D    1   1.00
      1.3000000              1.0000000
D    1   1.00
      0.3250000              1.0000000
F    1   1.00
      0.5500000              1.0000000
****
Cl     0
S    6   1.00
  25180.1000000              0.0018330
   3780.3500000              0.0140340
    860.4740000              0.0690970
    242.1450000              0.2374520
     77.3349000              0.4830340
     26.2470000              0.3398560
SP   6   1.00
    491.7650000             -0.0022974              0.0039894
    116.9840000             -0.0307140              0.0303180
     37.4153000             -0.1125280              0.1298800
     13.7834000              0.0450160              0.3279510
      5.4521500              0.5893530              0.4535270
      2.2258800              0.4652060              0.2521540
SP   3   1.00
      3.1864900             -0.2518300             -0.0142990
      1.1442700              0.0615890              0.3235720
      0.4203770              1.0601800              0.7435070
SP   1   1.00
      0.1426570              1.0000000              1.0000000
D    1   1.00
      1.5000000              1.0000000
D    1   1.00
      0.3750000              1.0000000
F    1   1.00
      0.7000000              1.0000000
****
}


set {
reference rhf                          
freeze_core true
e_convergence 10                       
d_convergence 10                      
dft_spherical_points 1202
dft_radial_points 99
}

e = energy('b3lyp')

print_out('Grab this energy {0}'.format(e))
--------------------------------------------------------------------------

  Memory set to  13.039 GiB by Python driver.

Scratch directory: /tmp/

*** tstart() called on n065
*** at Sun Oct 31 15:35:47 2021

   => Loading Basis Set <=

    Name: ANONYMOUS6505E4DD
    Role: ORBITAL
    Keyword: BASIS
    atoms 1, 4   entry C          line    48 inputblock 6-31g_2dfp_ 
    atoms 2      entry F          line   111 inputblock 6-31g_2dfp_ 
    atoms 3, 5-6 entry H          line    15 inputblock 6-31g_2dfp_ 


         ---------------------------------------------------------
                                   SCF
               by Justin Turney, Rob Parrish, Andy Simmonett
                          and Daniel G. A. Smith
                              RKS Reference
                        1 Threads,  13351 MiB Core
         ---------------------------------------------------------

  ==> Geometry <==

    Molecular point group: cs
    Full point group: Cs

    Geometry (in Bohr), charge = 0, multiplicity = 1:

       Center              X                  Y                   Z               Mass       
    ------------   -----------------  -----------------  -----------------  -----------------
         C           -0.230209522727     0.852254013138     0.000000000000    12.000000000000
         F            2.020524129073    -0.335304863162     0.000000000000    18.998403162730
         H           -0.038418680727     2.892894052338     0.000000000000     1.007825032230
         C           -2.409291700127    -0.411155734762     0.000000000000    12.000000000000
         H           -2.455573417927    -2.452369264362     0.000000000000     1.007825032230
         H           -4.166605837727     0.628190115738     0.000000000000     1.007825032230

  Running in cs symmetry.

  Rotational constants: A =      2.16750  B =      0.35117  C =      0.30220 [cm^-1]
  Rotational constants: A =  64979.95184  B =  10527.66267  C =   9059.84142 [MHz]
  Nuclear repulsion =   67.280256556382994

  Charge       = 0
  Multiplicity = 1
  Electrons    = 24
  Nalpha       = 12
  Nbeta        = 12

  ==> Algorithm <==

  SCF Algorithm Type is DF.
  DIIS enabled.
  MOM disabled.
  Fractional occupation disabled.
  Guess Type is SAD.
  Energy threshold   = 1.00e-10
  Density threshold  = 1.00e-10
  Integral threshold = 0.00e+00

  ==> Primary Basis <==

  Basis Set: ANONYMOUS6505E4DD
    Blend: 6-31G_2DFP_
    Number of shells: 36
    Number of basis function: 102
    Number of Cartesian functions: 117
    Spherical Harmonics?: true
    Max angular momentum: 3

  ==> DFT Potential <==

   => Composite Functional: B3LYP <= 

    B3LYP Hyb-GGA Exchange-Correlation Functional

    P. J. Stephens, F. J. Devlin, C. F. Chabalowski, and M. J. Frisch, J. Phys. Chem. 98, 11623 (1994)

    Deriv               =              1
    GGA                 =           TRUE
    Meta                =          FALSE

    Exchange Hybrid     =           TRUE
    MP2 Hybrid          =          FALSE

   => Exchange Functionals <=

    0.0800   Slater exchange
    0.7200         Becke 88

   => Exact (HF) Exchange <=

    0.2000               HF 

   => Correlation Functionals <=

    0.1900   Vosko, Wilk & Nusair (VWN5_RPA)
    0.8100   Lee, Yang & Parr

   => Molecular Quadrature <=

    Radial Scheme          =       TREUTLER
    Pruning Scheme         =           NONE
    Nuclear Scheme         =       TREUTLER

    BS radius alpha        =              1
    Pruning alpha          =              1
    Radial Points          =             99
    Spherical Points       =           1202
    Total Points           =         676455
    Total Blocks           =           4781
    Max Points             =            256
    Max Functions          =            102
    Weights Tolerance      =       1.00E-15

   => Loading Basis Set <=

    Name: (ANONYMOUS6505E4DD AUX)
    Role: JKFIT
    Keyword: DF_BASIS_SCF
    atoms 1, 4   entry C          line   198 file /opt/psi/4/master/share/psi4/basis/def2-universal-jkfit.gbs 
    atoms 2      entry F          line   378 file /opt/psi/4/master/share/psi4/basis/def2-universal-jkfit.gbs 
    atoms 3, 5-6 entry H          line    18 file /opt/psi/4/master/share/psi4/basis/def2-universal-jkfit.gbs 

  ==> Integral Setup <==

  DFHelper Memory: AOs need 0.024 GiB; user supplied 8.119 GiB. Using in-core AOs.

  ==> MemDFJK: Density-Fitted J/K Matrices <==

    J tasked:                   Yes
    K tasked:                   Yes
    wK tasked:                   No
    OpenMP threads:               1
    Memory [MiB]:              8314
    Algorithm:                 Core
    Schwarz Cutoff:           1E-12
    Mask sparsity (%):       0.8266
    Fitting Condition:        1E-10

   => Auxiliary Basis Set <=

  Basis Set: (ANONYMOUS6505E4DD AUX)
    Blend: DEF2-UNIVERSAL-JKFIT
    Number of shells: 93
    Number of basis function: 281
    Number of Cartesian functions: 331
    Spherical Harmonics?: true
    Max angular momentum: 4

  Cached 100.0% of DFT collocation blocks in 1.659 [GiB].

  Minimum eigenvalue in the overlap matrix is 1.1571900000E-03.
  Reciprocal condition number of the overlap matrix is 2.3828412976E-04.
    Using symmetric orthogonalization.

  ==> Pre-Iterations <==

  SCF Guess: Superposition of Atomic Densities via on-the-fly atomic UHF (no occupation information).

   -------------------------
    Irrep   Nso     Nmo    
   -------------------------
     A'        69      69 
     A"        33      33 
   -------------------------
    Total     102     102
   -------------------------

  ==> Iterations <==

                           Total Energy        Delta E     RMS |[F,P]|

   @DF-RKS iter SAD:  -177.34785875822485   -1.77348e+02   0.00000e+00 
   @DF-RKS iter   1:  -177.67426732738608   -3.26409e-01   7.17115e-03 DIIS
   @DF-RKS iter   2:  -177.62053214392492    5.37352e-02   7.82584e-03 DIIS
   @DF-RKS iter   3:  -177.81754783674606   -1.97016e-01   2.04551e-03 DIIS
   @DF-RKS iter   4:  -177.82997161411615   -1.24238e-02   3.17809e-04 DIIS
   @DF-RKS iter   5:  -177.83022551243306   -2.53898e-04   4.31757e-05 DIIS
   @DF-RKS iter   6:  -177.83022978481162   -4.27238e-06   1.03012e-05 DIIS
   @DF-RKS iter   7:  -177.83022996653472   -1.81723e-07   6.14039e-06 DIIS
   @DF-RKS iter   8:  -177.83023004873175   -8.21970e-08   1.14263e-06 DIIS
   @DF-RKS iter   9:  -177.83023005175704   -3.02529e-09   1.56104e-07 DIIS
   @DF-RKS iter  10:  -177.83023005182534   -6.82974e-11   2.64333e-08 DIIS
   @DF-RKS iter  11:  -177.83023005182741   -2.07478e-12   1.62282e-09 DIIS
   @DF-RKS iter  12:  -177.83023005182753   -1.13687e-13   2.36034e-10 DIIS
   @DF-RKS iter  13:  -177.83023005182758   -5.68434e-14   2.82122e-11 DIIS
  Energy and wave function converged.


  ==> Post-Iterations <==

    Orbital Energies [Eh]
    ---------------------

    Doubly Occupied:                                                      

       1Ap   -24.698047     2Ap   -10.265268     3Ap   -10.180014  
       4Ap    -1.212883     5Ap    -0.763928     6Ap    -0.603334  
       7Ap    -0.521678     8Ap    -0.476902     1App   -0.450798  
       9Ap    -0.406635    10Ap    -0.366934     2App   -0.260330  

    Virtual:                                                              

       3App    0.017117    11Ap     0.110192    12Ap     0.121232  
      13Ap     0.139503    14Ap     0.214707    15Ap     0.307544  
      16Ap     0.423732    17Ap     0.462796     4App    0.477058  
      18Ap     0.484621     5App    0.521346    19Ap     0.531608  
       6App    0.588851    20Ap     0.621449    21Ap     0.653258  
       7App    0.656027    22Ap     0.658337    23Ap     0.747865  
       8App    0.776421    24Ap     0.879259    25Ap     0.928902  
       9App    0.982299    10App    1.012315    26Ap     1.024102  
      27Ap     1.048038    11App    1.159896    28Ap     1.168064  
      29Ap     1.181805    12App    1.305921    13App    1.329008  
      30Ap     1.355558    31Ap     1.366813    32Ap     1.491686  
      33Ap     1.546381    34Ap     1.647140    35Ap     1.667812  
      36Ap     1.787425    37Ap     2.054894    14App    2.078616  
      38Ap     2.117201    15App    2.232253    39Ap     2.263931  
      40Ap     2.382048    41Ap     2.567449    16App    2.681643  
      42Ap     2.729055    17App    2.829183    43Ap     2.864916  
      18App    2.970715    44Ap     3.028396    45Ap     3.054623  
      19App    3.101945    46Ap     3.115894    20App    3.117096  
      21App    3.139293    47Ap     3.177373    48Ap     3.286133  
      49Ap     3.348309    50Ap     3.389173    22App    3.427351  
      51Ap     3.554336    23App    3.599653    52Ap     3.656580  
      24App    3.742561    53Ap     3.946025    54Ap     4.005184  
      25App    4.043521    26App    4.108616    55Ap     4.197338  
      27App    4.260155    56Ap     4.340967    28App    4.371508  
      57Ap     4.470725    58Ap     4.533201    59Ap     4.833130  
      60Ap     5.084568    61Ap     5.298698    62Ap     5.447526  
      29App    6.643003    63Ap     6.650509    30App    6.753771  
      64Ap     6.773092    31App    7.025911    65Ap     7.113158  
      66Ap     7.224643    32App    9.106559    67Ap     9.114221  
      33App    9.445577    68Ap     9.587491    69Ap     9.629492  

    Final Occupation by Irrep:
             Ap   App 
    DOCC [    10,    2 ]

  @DF-RKS Final Energy:  -177.83023005182758

   => Energetics <=

    Nuclear Repulsion Energy =             67.2802565563829944
    One-Electron Energy =                -376.7876930050968554
    Two-Electron Energy =                 149.8040598859132899
    DFT Exchange-Correlation Energy =     -18.1268534890270132
    Empirical Dispersion Energy =           0.0000000000000000
    VV10 Nonlocal Energy =                  0.0000000000000000
    Total Energy =                       -177.8302300518275842

Computation Completed


Properties will be evaluated at   0.000000,   0.000000,   0.000000 [a0]

Properties computed using the SCF density matrix

  Nuclear Dipole Moment: [e a0]
     X:    -4.3129      Y:     0.6976      Z:     0.0000

  Electronic Dipole Moment: [e a0]
     X:     3.9309      Y:    -0.4456      Z:     0.0000

  Dipole Moment: [e a0]
     X:    -0.3820      Y:     0.2520      Z:     0.0000     Total:     0.4576

  Dipole Moment: [D]
     X:    -0.9710      Y:     0.6405      Z:     0.0000     Total:     1.1632


*** tstop() called on n065 at Sun Oct 31 15:36:17 2021
Module time:
	user time   =      28.76 seconds =       0.48 minutes
	system time =       0.51 seconds =       0.01 minutes
	total time  =         30 seconds =       0.50 minutes
Total time:
	user time   =      28.76 seconds =       0.48 minutes
	system time =       0.51 seconds =       0.01 minutes
	total time  =         30 seconds =       0.50 minutes
Grab this energy -177.83023005182758
    Psi4 stopped on: Sunday, 31 October 2021 03:36PM
    Psi4 wall time for execution: 0:00:29.32

*** Psi4 exiting successfully. Buy a developer a beer!
