
 Primary working directories    : /tmp/1049502.339.gen4.q
 Secondary working directories  : /tmp/1049502.339.gen4.q
 Wavefunction directory         : /home/vulcan/jj04645/wfu/
 Main file repository           : /tmp/1049502.339.gen4.q/

 ARCHNAME  : Linux/x86_64
 FC        : /opt/intel/compilers_and_libraries_2016.1.150/linux/bin/intel64/ifort
 FCVERSION : 16.0.1
 BLASLIB   : -mkl
 id        : ccgc

 Nodes     nprocs
 n065         1
 ga_uses_ma=false, calling ma_init with nominal heap.
 GA-space will be limited to   8.0 MW (determined by -G option)

 Using customized tuning parameters: mindgm=10; mindgv=16; mindgc=4; mindgr=1; noblas=0; mincuda=1000; minvec=7
 default implementation of scratch files=df  

 ***,Optimization of neopentane
 memory,1000,m
 gthresh,energy=1.0d-12,orbital=1.0d-10,oneint=1.0d-16,twoint=1.0d-16,optgrad=1.0d-6,compress=1.0d-13
 geomtyp=xyz
 
 bohr
 geometry = {
  C   -0.0010108330   -0.0010095927   -0.0027169420
  C    2.3599671658   -0.0006286517   -1.6729893616
  C   -0.0006282525   -2.3709160775    1.6722491992
  C   -0.0006281290    2.3681324990    1.6733302142
  C   -2.3627514792   -0.0006287746   -1.6719108152
  H    2.4059666249    1.6753664913   -2.8821561863
  H   -1.6703448732   -2.4117449753    2.8902555569
  H    1.6753673357    2.4141322798    2.8824965809
  H   -2.4035807009   -1.6703457194   -2.8899167178
  H    4.0765043229    0.0019688174   -0.5211848985
  H    0.0019728685   -4.0869272503    0.5196612553
  H    0.0019690337    4.0846693497    0.5215252939
  H   -4.0787623455    0.0019726528   -0.5193224155
  H    2.4045340998   -1.6746469111   -2.8849451093
  H    1.6710817069   -2.4131747541    2.8874693829
  H   -1.6746460659    2.4126997553    2.8852863955
  H   -2.4050104792    1.6710808614   -2.8871314324
 }
 
 basis=VDZ
 {rhf;maxit,200}
 {ccsd(t);maxit,200}

 Variables initialized (661), CPU time= 0.01 sec
 Commands  initialized (458), CPU time= 0.00 sec, 486 directives.
 Default parameters read. Elapsed time= 0.05 sec

 Checking input...
 Passed
1


                                         ***  PROGRAM SYSTEM MOLPRO  ***
                         Copyright, University College Cardiff Consultants Limited, 2008

                                    Version 2010.1 linked May 16 2016 07:17:05


 **********************************************************************************************************************************
 LABEL *   Optimization of neopentane                                                    
 Linux-4.4.3/n065(x86_64) 64 bit mpp version                                             DATE: 30-Mar-24          TIME: 19:52:22  
 **********************************************************************************************************************************

 SHA1:             9e8077add272b0f3cad6f7df79ec5211205f459d
 **********************************************************************************************************************************

 THRESHOLDS:

 ZERO    =  1.00D-12  ONEINT  =  1.00D-16  TWOINT  =  1.00D-16  PREFAC  =  1.00D-14  LOCALI  =  1.00D-09  EORDER  =  1.00D-04
 ENERGY  =  1.00D-12  ETEST   =  0.00D+00  EDENS   =  0.00D+00  THRDEDEF=  1.00D-06  GRADIENT=  1.00D-02  STEP    =  1.00D-03
 ORBITAL =  1.00D-10  CIVEC   =  1.00D-05  COEFF   =  1.00D-04  PRINTCI =  5.00D-02  PUNCHCI =  9.90D+01  OPTGRAD =  1.00D-06
 OPTENERG=  1.00D-06  OPTSTEP =  3.00D-04  THRGRAD =  1.00D-10  COMPRESS=  1.00D-13  VARMIN  =  1.00D-07  VARMAX  =  1.00D-03
 THRDOUB =  0.00D+00  THRDIV  =  1.00D-05  THRRED  =  1.00D-07  THRPSP  =  1.00D+00  THRDC   =  1.00D-10  THRCS   =  1.00D-10
 THRNRM  =  1.00D-08  THREQ   =  0.00D+00  THRDE   =  1.00D+00  THRREF  =  1.00D-05  SPARFAC =  1.00D+00  THRDLP  =  1.00D-07
 THRDIA  =  1.00D-10  THRDLS  =  1.00D-07  THRGPS  =  0.00D+00  THRKEX  =  0.00D+00  THRDIS  =  2.00D-01  THRVAR  =  1.00D-10
 THRLOC  =  1.00D-06  THRGAP  =  1.00D-06  THRLOCT = -1.00D+00  THRGAPT = -1.00D+00  THRORB  =  1.00D-06  THRMLTP =  0.00D+00
 THRCPQCI=  1.00D-10  KEXTA   =  0.00D+00  THRCOARS=  0.00D+00  SYMTOL  =  1.00D-06  GRADTOL =  1.00D-06  THROVL  =  1.00D-08
 THRORTH =  1.00D-08  GRID    =  1.00D-06  GRIDMAX =  1.00D-03  DTMAX   =  0.00D+00

 SETTING GEOMTYP        =    XYZ
 ZUNIT=BOHR
 

 Variable memory set to 1000000000 words,  buffer space   230000 words

 SETTING BASIS          =    VDZ


 Recomputing integrals since basis changed


 Using spherical harmonics

 Library entry C      S cc-pVDZ              selected for orbital group  1
 Library entry C      P cc-pVDZ              selected for orbital group  1
 Library entry C      D cc-pVDZ              selected for orbital group  1
 Library entry H      S cc-pVDZ              selected for orbital group  2
 Library entry H      P cc-pVDZ              selected for orbital group  2

1PROGRAM * SEWARD (Integral evaluation for generally contracted gaussian basis sets)     Author: Roland Lindh, 1990

 Geometry written to block  1 of record 700


 Point group  C1  



 ATOMIC COORDINATES

 NR  ATOM    CHARGE       X              Y              Z

   1  C       6.00   -0.001010833   -0.001009593   -0.002716942
   2  C       6.00    2.359967166   -0.000628652   -1.672989362
   3  C       6.00   -0.000628252   -2.370916077    1.672249199
   4  C       6.00   -0.000628129    2.368132499    1.673330214
   5  C       6.00   -2.362751479   -0.000628775   -1.671910815
   6  H       1.00    2.405966625    1.675366491   -2.882156186
   7  H       1.00   -1.670344873   -2.411744975    2.890255557
   8  H       1.00    1.675367336    2.414132280    2.882496581
   9  H       1.00   -2.403580701   -1.670345719   -2.889916718
  10  H       1.00    4.076504323    0.001968817   -0.521184899
  11  H       1.00    0.001972869   -4.086927250    0.519661255
  12  H       1.00    0.001969034    4.084669350    0.521525294
  13  H       1.00   -4.078762346    0.001972653   -0.519322416
  14  H       1.00    2.404534100   -1.674646911   -2.884945109
  15  H       1.00    1.671081707   -2.413174754    2.887469383
  16  H       1.00   -1.674646066    2.412699755    2.885286396
  17  H       1.00   -2.405010479    1.671080861   -2.887131432

 Bond lengths in Bohr (Angstrom)

 1-2  2.892062795  1-3  2.902062795  1-4  2.902062795  1-5  2.892062795  2-6  2.067162325
     ( 1.530413718)     ( 1.535705490)     ( 1.535705490)     ( 1.530413718)     ( 1.093895190)

  2-10  2.067162325   2-14  2.067162325   3- 7  2.067162325   3-11  2.067162325   3-15  2.067162325
       ( 1.093895190)       ( 1.093895190)       ( 1.093895190)       ( 1.093895190)       ( 1.093895190)

  4- 8  2.067162325   4-12  2.067162325   4-16  2.067162325   5- 9  2.067162325   5-13  2.067162325
       ( 1.093895190)       ( 1.093895190)       ( 1.093895190)       ( 1.093895190)       ( 1.093895190)

  5-17  2.067162325
       ( 1.093895190)

 Bond angles

  1- 2- 6  110.86072216   1- 2-10  110.86072277   1- 2-14  110.86072158   1- 3- 7  110.86072216

  1- 3-11  110.86072158   1- 3-15  110.86072277   1- 4- 8  110.86072216   1- 4-12  110.86072278

  1- 4-16  110.86072158   1- 5- 9  110.86072216   1- 5-13  110.86072158   1- 5-17  110.86072278

  2-1-3  109.47122063   2-1-4  109.47122064   2-1-5  109.47122063   3-1-4  109.47122063

  3- 1- 5  109.47122064   4- 1- 5  109.47122063   6- 2-10  107.84402210   6- 2-14  108.24916218

  7- 3-11  108.24916218   7- 3-15  107.84402211   8- 4-12  107.84402210   8- 4-16  108.24916218

  9- 5-13  108.24916217   9- 5-17  107.84402211  10- 2-14  108.04659217  11- 3-15  108.04659217

 12- 4-16  108.04659217  13- 5-17  108.04659217

 NUCLEAR CHARGE:                   42
 NUMBER OF PRIMITIVE AOS:         219
 NUMBER OF SYMMETRY AOS:          214
 NUMBER OF CONTRACTIONS:          130   ( 130A   )
 NUMBER OF CORE ORBITALS:           5   (   5A   )
 NUMBER OF VALENCE ORBITALS:       32   (  32A   )


 NUCLEAR REPULSION ENERGY  198.59927825


 Eigenvalues of metric

         1 0.280E-02 0.502E-02 0.504E-02 0.506E-02 0.171E-01 0.189E-01 0.189E-01 0.190E-01


 Contracted 2-electron integrals neglected if value below      1.0D-16
 AO integral compression algorithm  1   Integral accuracy      1.0D-16

     302.514 MB (compressed) written to integral file ( 97.0%)

     Node minimum: 302.514 MB, node maximum: 302.514 MB


 NUMBER OF SORTED TWO-ELECTRON INTEGRALS:   36256870.     BUFFER LENGTH:  32768
 NUMBER OF SEGMENTS:   3  SEGMENT LENGTH:   15998004      RECORD LENGTH: 524288

 Memory used in sort:      16.56 MW

 SORT1 READ    38982483. AND WROTE    36204609. INTEGRALS IN    105 RECORDS. CPU TIME:     0.39 SEC, REAL TIME:     0.60 SEC
 SORT2 READ    36204609. AND WROTE    36256870. INTEGRALS IN   1154 RECORDS. CPU TIME:     0.30 SEC, REAL TIME:     0.45 SEC

 FILE SIZES:   FILE 1:   283.0 MBYTE,  FILE 4:   440.4 MBYTE,   TOTAL:    723.4 MBYTE

 OPERATOR DM      FOR CENTER  0  COORDINATES:    0.000000    0.000000    0.000000


 **********************************************************************************************************************************
 DATASETS  * FILE   NREC   LENGTH (MB)   RECORD NAMES
              1      19      283.22       500      610      700      900      950      970     1000      129      960     1100   
                                          VAR    BASINP    GEOM    SYMINP    ZMAT    AOBASIS   BASIS     P2S    ABASIS      S 
                                         1400     1410     1200     1210     1080     1600     1650     1300     1700   
                                           T        V       H0       H01     AOSYM     SMH    MOLCAS    ERIS     OPER   

 PROGRAMS   *        TOTAL       INT
 CPU TIMES  *         4.30      4.25
 REAL TIME  *         4.96 SEC
 DISK USED  *         1.03 GB      
 GA USED    *         0.01 MB       (max)       0.00 MB       (current)
 **********************************************************************************************************************************

1PROGRAM * RHF-SCF (CLOSED SHELL)       Authors: W. Meyer, H.-J. Werner


 NUMBER OF ELECTRONS:      21+   21-    SPACE SYMMETRY=1    SPIN SYMMETRY: Singlet 
 CONVERGENCE THRESHOLDS:    1.00E-10 (Density)    1.00E-13 (Energy)
 MAX. NUMBER OF ITERATIONS:      200
 INTERPOLATION TYPE:            DIIS
 INTERPOLATION STEPS:              2 (START)      1 (STEP)
 LEVEL SHIFTS:                  0.00 (CLOSED)  0.00 (OPEN) 



 Orbital guess generated from atomic densities. Full valence occupancy:   37

 Molecular orbital dump at record        2100.2

 ITERATION    DDIFF          GRAD             ENERGY        2-EL.EN.            DIPOLE MOMENTS         DIIS
    1      0.000D+00      0.000D+00      -196.27088377    527.677549    0.00268    0.00268   -0.00149    0
    2      0.000D+00      0.467D-02      -196.33874258    521.943925    0.00064    0.00064   -0.00049    1
    3      0.930D-02      0.177D-02      -196.34653323    524.514107    0.00124    0.00124   -0.00001    2
    4      0.346D-02      0.571D-03      -196.34768002    523.812771    0.00100    0.00100   -0.00025    3
    5      0.114D-02      0.118D-03      -196.34771461    523.879277    0.00101    0.00101   -0.00020    4
    6      0.198D-03      0.238D-04      -196.34771628    523.875521    0.00101    0.00101   -0.00022    5
    7      0.659D-04      0.226D-05      -196.34771631    523.875287    0.00101    0.00101   -0.00022    6
    8      0.684D-05      0.489D-06      -196.34771631    523.875245    0.00101    0.00101   -0.00022    6
    9      0.138D-05      0.733D-07      -196.34771631    523.875237    0.00101    0.00101   -0.00022    5
   10      0.243D-06      0.159D-07      -196.34771631    523.875245    0.00101    0.00101   -0.00022    5
   11      0.394D-07      0.501D-08      -196.34771631    523.875242    0.00101    0.00101   -0.00022    6
   12      0.106D-07      0.525D-09      -196.34771631    523.875243    0.00101    0.00101   -0.00022    6
   13      0.138D-08      0.142D-09      -196.34771631    523.875243    0.00101    0.00101   -0.00022    6
   14      0.333D-09      0.263D-10      -196.34771631    523.875243    0.00101    0.00101   -0.00022    6
   15      0.689D-10      0.532D-11      -196.34771631    523.875243    0.00101    0.00101   -0.00022    6
   16      0.143D-10      0.196D-11      -196.34771631    523.875243    0.00101    0.00101   -0.00022    6
   17      0.371D-11      0.596D-12      -196.34771631    523.875243    0.00101    0.00101   -0.00022    6
   18      0.174D-11      0.143D-12      -196.34771631    523.875243    0.00101    0.00101   -0.00022    7
   19      0.433D-12      0.430D-13      -196.34771631    523.875243    0.00101    0.00101   -0.00022    7
   20      0.214D-12      0.327D-13      -196.34771631    523.875243    0.00101    0.00101   -0.00022    7
   21      0.114D-12      0.264D-13      -196.34771631    523.875243    0.00101    0.00101   -0.00022    8
   22      0.618D-13      0.270D-13      -196.34771631    523.875243    0.00101    0.00101   -0.00022    9
   23      0.501D-13      0.242D-13      -196.34771631    523.875243    0.00101    0.00101   -0.00022    9
   24      0.436D-13      0.239D-13      -196.34771631    523.875243    0.00101    0.00101   -0.00022    9
   25      0.312D-13      0.271D-13      -196.34771631    523.875243    0.00101    0.00101   -0.00022    9
   26      0.400D-13      0.241D-13      -196.34771631    523.875243    0.00101    0.00101   -0.00022    9
   27      0.194D-13      0.266D-13      -196.34771631    523.875243    0.00101    0.00101   -0.00022    9
   28      0.528D-14      0.281D-13      -196.34771631    523.875243    0.00101    0.00101   -0.00022    9
   29      0.156D-13      0.251D-13      -196.34771631    523.875243    0.00101    0.00101   -0.00022    9
   30      0.261D-13      0.205D-13      -196.34771631    523.875243    0.00101    0.00101   -0.00022    0

 Final occupancy:  21

 !RHF STATE 1.1 Energy               -196.347716310824
 Nuclear energy                       198.59927825
 One-electron energy                 -656.88461590
 Two-electron energy                  261.93762134
 Virial quotient                       -1.00118100
 !RHF STATE 1.1 Dipole moment           0.00101062     0.00101146    -0.00022219
 Dipole moment /Debye                   0.00256857     0.00257072    -0.00056472

 Orbital energies:

         1.1          2.1          3.1          4.1          5.1          6.1          7.1          8.1          9.1         10.1
    -11.230714   -11.214282   -11.214246   -11.213937   -11.213899    -1.103755    -0.927737    -0.927560    -0.927386    -0.728612

        11.1         12.1         13.1         14.1         15.1         16.1         17.1         18.1         19.1         20.1
     -0.609454    -0.609079    -0.608699    -0.550491    -0.550484    -0.508202    -0.507784    -0.507375    -0.451039    -0.450329

        21.1         22.1         23.1
     -0.449621     0.170676     0.231097


 **********************************************************************************************************************************
 DATASETS  * FILE   NREC   LENGTH (MB)   RECORD NAMES
              1      19      283.22       500      610      700      900      950      970     1000      129      960     1100   
                                          VAR    BASINP    GEOM    SYMINP    ZMAT    AOBASIS   BASIS     P2S    ABASIS      S 
                                         1400     1410     1200     1210     1080     1600     1650     1300     1700   
                                           T        V       H0       H01     AOSYM     SMH    MOLCAS    ERIS     OPER   

              2       3        0.89       700     1000     2100   
                                         GEOM     BASIS     RHF  

 PROGRAMS   *        TOTAL       RHF       INT
 CPU TIMES  *        12.39      8.08      4.25
 REAL TIME  *        14.03 SEC
 DISK USED  *         1.03 GB      
 GA USED    *         0.01 MB       (max)       0.00 MB       (current)
 **********************************************************************************************************************************


1PROGRAM * CCSD (Closed-shell coupled cluster)     Authors: C. Hampel, H.-J. Werner, 1991, M. Deegan, P.J. Knowles, 1992


 Convergence thresholds:  THRVAR = 1.00D-08  THRDEN = 1.00D-12

 CCSD(T)     terms to be evaluated (factor= 1.000)


 Number of core orbitals:           5 (   5 )
 Number of closed-shell orbitals:  16 (  16 )
 Number of external orbitals:     109 ( 109 )

 Molecular orbitals read from record     2100.2  Type=RHF/CANONICAL (state 1.1)

 Number of N-1 electron functions:              16
 Number of N-2 electron functions:             136
 Number of singly external CSFs:              1744
 Number of doubly external CSFs:           1521640
 Total number of CSFs:                     1523385

 Length of J-op  integral file:               0.00 MB
 Length of K-op  integral file:               1.20 MB
 Length of 3-ext integral record:             0.00 MB

 Memory could be reduced to 28.13 Mwords without degradation in triples

 Integral transformation finished. Total CPU:   1.89 sec, npass=  1  Memory used:  22.98 MW

 Reference energy:                   -196.34771631

 MP2 singlet pair energy:              -0.48845294
 MP2 triplet pair energy:              -0.25007806
 MP2 correlation energy:               -0.73853100
 MP2 total energy:                   -197.08624731

 SCS-MP2 correlation energy:           -0.74174766   (PS=  1.200000  PT=  0.333333)
 SCS-MP2 total energy:               -197.08946397

 ITER.      SQ.NORM     CORR.ENERGY   TOTAL ENERGY   ENERGY CHANGE        DEN1      VAR(S)    VAR(P)  DIIS     TIME
   1      1.28821653    -0.80655600  -197.15427231    -0.06802500    -0.04667737  0.17D-02  0.47D-02  1  1     6.92
   2      1.31153394    -0.81148940  -197.15920571    -0.00493340    -0.02354236  0.47D-04  0.32D-03  2  2    12.03
   3      1.31553880    -0.81163934  -197.15935565    -0.00014995    -0.00243044  0.53D-05  0.22D-04  3  3    17.14
   4      1.31658418    -0.81170160  -197.15941791    -0.00006225    -0.00046446  0.25D-06  0.12D-05  4  4    22.28
   5      1.31671016    -0.81170596  -197.15942228    -0.00000437    -0.00005134  0.15D-07  0.93D-07  5  5    27.40
   6      1.31672249    -0.81170355  -197.15941986     0.00000241    -0.00000838  0.68D-09  0.61D-08  6  6    32.53
   7      1.31672105    -0.81170383  -197.15942014    -0.00000028     0.00000062  0.16D-09  0.52D-09  6  1    37.66
   8      1.31672074    -0.81170397  -197.15942028    -0.00000015     0.00000028  0.78D-11  0.30D-10  6  2    42.80
   9      1.31672046    -0.81170402  -197.15942033    -0.00000005     0.00000025  0.11D-11  0.25D-11  6  3    47.94
  10      1.31672035    -0.81170403  -197.15942034    -0.00000001     0.00000009  0.90D-13  0.22D-12  6  4    53.06
  11      1.31672028    -0.81170403  -197.15942034    -0.00000000     0.00000004  0.96D-14  0.24D-13  6  5    58.19
  12      1.31672025    -0.81170403  -197.15942034    -0.00000000     0.00000002  0.92D-15  0.12D-14  6  1    63.31
  13      1.31672025    -0.81170403  -197.15942034    -0.00000000     0.00000000  0.82D-16  0.71D-16  6  6    68.43
  14      1.31672024    -0.81170403  -197.15942034    -0.00000000     0.00000000  0.16D-16  0.98D-17  6  2    73.57
  15      1.31672024    -0.81170403  -197.15942034    -0.00000000     0.00000000  0.14D-17  0.11D-17  6  3    78.70
  16      1.31672024    -0.81170403  -197.15942034     0.00000000    -0.00000000  0.80D-19  0.95D-19  6  4    83.83
  17      1.31672024    -0.81170403  -197.15942034     0.00000000    -0.00000000  0.52D-20  0.92D-20  6  5    88.95
  18      1.31672024    -0.81170403  -197.15942034     0.00000000    -0.00000000  0.79D-21  0.14D-20  6  1    94.09
  19      1.31672024    -0.81170403  -197.15942034     0.00000000    -0.00000000  0.95D-22  0.18D-21  6  6    99.22

 Norm of t1 vector:      0.05469785      S-energy:    -0.00000000      T1 diagnostic:  0.00683723
                                                                       D1 diagnostic:  0.01260769


 Total CPU time for triples:     80.95 sec


 RESULTS
 =======

  Reference energy                   -196.347716310824
  CCSD singlet pair energy             -0.577587651662
  CCSD triplet pair energy             -0.234116382344
  CCSD correlation energy              -0.811704034006

  Triples (T) contribution             -0.023942493203
  Total correlation energy             -0.835646527209

  CCSD total energy                  -197.159420344830
  CCSD[T] energy                     -197.183822183125
  CCSD-T energy                      -197.183114174346
 !CCSD(T) total energy               -197.183362838033

 Timing summary (sec):

 STEP                 CPU(USER)    SYS     CPU(TOT)    WALL
 Transformation          1.96      0.17      2.13      2.14
 CCSD iterations        97.26      2.10     99.36     99.45
 Triples                80.95      1.56     82.51     82.52

 Program statistics:

 Available memory in ccsd:               999998876
 Min. memory needed in ccsd:               3966807
 Max. memory used in ccsd:                 5311887
 Max. memory used in cckext:               4858018 (19 integral passes)



 **********************************************************************************************************************************
 DATASETS  * FILE   NREC   LENGTH (MB)   RECORD NAMES
              1      20      394.93       500      610      700      900      950      970     1000      129      960     1100   
                                          VAR    BASINP    GEOM    SYMINP    ZMAT    AOBASIS   BASIS     P2S    ABASIS      S 
                                         1400     1410     1200     1210     1080     1600     1650     1300     1700     1380   
                                           T        V       H0       H01     AOSYM     SMH    MOLCAS    ERIS     OPER     JKOP   

              2       3        0.89       700     1000     2100   
                                         GEOM     BASIS     RHF  

 PROGRAMS   *        TOTAL   CCSD(T)       RHF       INT
 CPU TIMES  *       192.57    180.18      8.08      4.25
 REAL TIME  *       198.19 SEC
 DISK USED  *         1.03 GB      
 GA USED    *         0.01 MB       (max)       0.00 MB       (current)
 **********************************************************************************************************************************

        CCSD(T)         RHF-SCF 
   -197.18336284   -196.34771631
 **********************************************************************************************************************************
 Variable memory released
