
 Primary working directories    : /tmp/880701.624.gen6.q
 Secondary working directories  : /tmp/880701.624.gen6.q
 Wavefunction directory         : /home/vulcan/lo21740/wfu/
 Main file repository           : /tmp/880701.624.gen6.q/

 ARCHNAME  : Linux/x86_64
 FC        : /opt/intel/compilers_and_libraries_2016.1.150/linux/bin/intel64/ifort
 FCVERSION : 16.0.1
 BLASLIB   : -mkl
 id        : ccgc

 Nodes     nprocs
 n074         1
 ga_uses_ma=false, calling ma_init with nominal heap.
 GA-space will be limited to   8.0 MW (determined by -G option)

 Using customized tuning parameters: mindgm=10; mindgv=16; mindgc=4; mindgr=1; noblas=0; mincuda=1000; minvec=7
 default implementation of scratch files=df  

 ***,Optimization of formamide
 memory,1000,m
 gthresh,energy=1.0d-12,orbital=1.0d-10,oneint=1.0d-16,twoint=1.0d-16,optgrad=1.0d-6,compress=1.0d-13
 geomtyp=xyz
 
 bohr
 geometry = {
  C   -3.8224827454    0.0838665347   -0.0000000000
  O   -2.7255823577    2.1348896342    0.0000000000
  N   -2.6854056937   -2.1855051329    0.0000000000
  H   -3.7487918588   -3.7631093499    0.0000000000
  H   -0.7578809635   -2.3122814100   -0.0000000000
  H   -5.9030741339   -0.0183264858   -0.0000000000
  C    3.8274354425   -0.0811416843   -0.0000000000
  O    2.7259106652   -2.1364599803   -0.0000000000
  N    2.6880093200    2.1873405860   -0.0000000000
  H    3.7480535941    3.7614529551    0.0000000000
  H    0.7537488643    2.3116305072   -0.0000000000
  H    5.9000598670    0.0176438261   -0.0000000000
 }
 
 basis=AVDZ
 {rhf;maxit,200}
 {ccsd(t);maxit,200}

 Variables initialized (661), CPU time= 0.01 sec
 Commands  initialized (458), CPU time= 0.00 sec, 486 directives.
 Default parameters read. Elapsed time= 0.04 sec

 Checking input...
 Passed
1


                                         ***  PROGRAM SYSTEM MOLPRO  ***
                         Copyright, University College Cardiff Consultants Limited, 2008

                                    Version 2010.1 linked May 16 2016 07:17:05


 **********************************************************************************************************************************
 LABEL *   Optimization of formamide                                                     
 Linux-4.4.3/n074(x86_64) 64 bit mpp version                                             DATE: 25-May-23          TIME: 01:15:23  
 **********************************************************************************************************************************

 SHA1:             9e8077add272b0f3cad6f7df79ec5211205f459d
 **********************************************************************************************************************************

 THRESHOLDS:

 ZERO    =  1.00D-12  ONEINT  =  1.00D-16  TWOINT  =  1.00D-16  PREFAC  =  1.00D-14  LOCALI  =  1.00D-09  EORDER  =  1.00D-04
 ENERGY  =  1.00D-12  ETEST   =  0.00D+00  EDENS   =  0.00D+00  THRDEDEF=  1.00D-06  GRADIENT=  1.00D-02  STEP    =  1.00D-03
 ORBITAL =  1.00D-10  CIVEC   =  1.00D-05  COEFF   =  1.00D-04  PRINTCI =  5.00D-02  PUNCHCI =  9.90D+01  OPTGRAD =  1.00D-06
 OPTENERG=  1.00D-06  OPTSTEP =  3.00D-04  THRGRAD =  1.00D-10  COMPRESS=  1.00D-13  VARMIN  =  1.00D-07  VARMAX  =  1.00D-03
 THRDOUB =  0.00D+00  THRDIV  =  1.00D-05  THRRED  =  1.00D-07  THRPSP  =  1.00D+00  THRDC   =  1.00D-10  THRCS   =  1.00D-10
 THRNRM  =  1.00D-08  THREQ   =  0.00D+00  THRDE   =  1.00D+00  THRREF  =  1.00D-05  SPARFAC =  1.00D+00  THRDLP  =  1.00D-07
 THRDIA  =  1.00D-10  THRDLS  =  1.00D-07  THRGPS  =  0.00D+00  THRKEX  =  0.00D+00  THRDIS  =  2.00D-01  THRVAR  =  1.00D-10
 THRLOC  =  1.00D-06  THRGAP  =  1.00D-06  THRLOCT = -1.00D+00  THRGAPT = -1.00D+00  THRORB  =  1.00D-06  THRMLTP =  0.00D+00
 THRCPQCI=  1.00D-10  KEXTA   =  0.00D+00  THRCOARS=  0.00D+00  SYMTOL  =  1.00D-06  GRADTOL =  1.00D-06  THROVL  =  1.00D-08
 THRORTH =  1.00D-08  GRID    =  1.00D-06  GRIDMAX =  1.00D-03  DTMAX   =  0.00D+00

 SETTING GEOMTYP        =    XYZ
 ZUNIT=BOHR
 

 Variable memory set to 1000000000 words,  buffer space   230000 words

 SETTING BASIS          =    AVDZ


 Recomputing integrals since basis changed


 Using spherical harmonics

 Library entry C      S aug-cc-pVDZ          selected for orbital group  1
 Library entry C      P aug-cc-pVDZ          selected for orbital group  1
 Library entry C      D aug-cc-pVDZ          selected for orbital group  1
 Library entry O      S aug-cc-pVDZ          selected for orbital group  2
 Library entry O      P aug-cc-pVDZ          selected for orbital group  2
 Library entry O      D aug-cc-pVDZ          selected for orbital group  2
 Library entry N      S aug-cc-pVDZ          selected for orbital group  3
 Library entry N      P aug-cc-pVDZ          selected for orbital group  3
 Library entry N      D aug-cc-pVDZ          selected for orbital group  3
 Library entry H      S aug-cc-pVDZ          selected for orbital group  4
 Library entry H      P aug-cc-pVDZ          selected for orbital group  4

1PROGRAM * SEWARD (Integral evaluation for generally contracted gaussian basis sets)     Author: Roland Lindh, 1990

 Geometry written to block  1 of record 700


 Point group  Cs  



 ATOMIC COORDINATES

 NR  ATOM    CHARGE       X              Y              Z

   1  C       6.00   -3.822482745    0.083866535    0.000000000
   2  O       8.00   -2.725582358    2.134889634    0.000000000
   3  N       7.00   -2.685405694   -2.185505133    0.000000000
   4  H       1.00   -3.748791859   -3.763109350    0.000000000
   5  H       1.00   -0.757880964   -2.312281410    0.000000000
   6  H       1.00   -5.903074134   -0.018326486    0.000000000
   7  C       6.00    3.827435443   -0.081141684    0.000000000
   8  O       8.00    2.725910665   -2.136459980    0.000000000
   9  N       7.00    2.688009320    2.187340586    0.000000000
  10  H       1.00    3.748053594    3.761452955    0.000000000
  11  H       1.00    0.753748864    2.311630507    0.000000000
  12  H       1.00    5.900059867    0.017643826    0.000000000

 Bond lengths in Bohr (Angstrom)

 1-2  2.325916210  1-3  2.538304944  1-6  2.083099599  3-4  1.902531262  3-5  1.931689367
     ( 1.230821848)     ( 1.343213126)     ( 1.102328832)     ( 1.006776183)     ( 1.022205988)

  7- 8  2.331885532   7- 9  2.538563314   7-12  2.074977249   9-10  1.897768061   9-11  1.938249596
       ( 1.233980677)       ( 1.343349849)       ( 1.098030669)       ( 1.004255606)       ( 1.025677511)

 Bond angles

  1-3-4  119.40468055   1-3-5  120.37634046   2-1-3  125.24851271   2-1-6  120.95011267

  3- 1- 6  113.80137463   4- 3- 5  120.21897899   7- 9-10  119.37302621   7- 9-11  120.34632709

  8- 7- 9  125.14169411   8- 7-12  120.91735218   9- 7-12  113.94095371  10- 9-11  120.28064671

 NUCLEAR CHARGE:                   48
 NUMBER OF PRIMITIVE AOS:         288
 NUMBER OF SYMMETRY AOS:          276
 NUMBER OF CONTRACTIONS:          192   ( 138A'  +  54A"  )
 NUMBER OF CORE ORBITALS:           6   (   6A'  +   0A"  )
 NUMBER OF VALENCE ORBITALS:       30   (  24A'  +   6A"  )


 NUCLEAR REPULSION ENERGY  230.40697323


 Eigenvalues of metric

         1 0.232E-03 0.270E-03 0.526E-03 0.529E-03 0.564E-03 0.704E-03 0.713E-03 0.715E-03
         2 0.182E-01 0.198E-01 0.283E-01 0.284E-01 0.335E-01 0.340E-01 0.417E-01 0.453E-01


 Contracted 2-electron integrals neglected if value below      1.0D-16
 AO integral compression algorithm  1   Integral accuracy      1.0D-16

     746.324 MB (compressed) written to integral file ( 93.7%)

     Node minimum: 746.324 MB, node maximum: 746.324 MB


 NUMBER OF SORTED TWO-ELECTRON INTEGRALS:   89829696.     BUFFER LENGTH:  32768
 NUMBER OF SEGMENTS:   6  SEGMENT LENGTH:   15998004      RECORD LENGTH: 524288

 Memory used in sort:      16.56 MW

 SORT1 READ    99568560. AND WROTE    89008779. INTEGRALS IN    258 RECORDS. CPU TIME:     1.00 SEC, REAL TIME:     1.51 SEC
 SORT2 READ    89008779. AND WROTE    89829696. INTEGRALS IN   2847 RECORDS. CPU TIME:     0.67 SEC, REAL TIME:     0.99 SEC

 FILE SIZES:   FILE 1:   691.8 MBYTE,  FILE 4:  1082.2 MBYTE,   TOTAL:   1774.0 MBYTE

 OPERATOR DM      FOR CENTER  0  COORDINATES:    0.000000    0.000000    0.000000


 **********************************************************************************************************************************
 DATASETS  * FILE   NREC   LENGTH (MB)   RECORD NAMES
              1      19      692.08       500      610      700      900      950      970     1000      129      960     1100   
                                          VAR    BASINP    GEOM    SYMINP    ZMAT    AOBASIS   BASIS     P2S    ABASIS      S 
                                         1400     1410     1200     1210     1080     1600     1650     1300     1700   
                                           T        V       H0       H01     AOSYM     SMH    MOLCAS    ERIS     OPER   

 PROGRAMS   *        TOTAL       INT
 CPU TIMES  *         7.09      7.05
 REAL TIME  *         8.47 SEC
 DISK USED  *         2.52 GB      
 GA USED    *         0.00 MB       (max)       0.00 MB       (current)
 **********************************************************************************************************************************

1PROGRAM * RHF-SCF (CLOSED SHELL)       Authors: W. Meyer, H.-J. Werner


 NUMBER OF ELECTRONS:      24+   24-
 CONVERGENCE THRESHOLDS:    1.00E-10 (Density)    1.00E-13 (Energy)
 MAX. NUMBER OF ITERATIONS:      200
 INTERPOLATION TYPE:            DIIS
 INTERPOLATION STEPS:              2 (START)      1 (STEP)
 LEVEL SHIFTS:                  0.00 (CLOSED)  0.00 (OPEN) 



 Orbital guess generated from atomic densities. Full valence occupancy:   30   6

 Molecular orbital dump at record        2100.2

 Initial alpha occupancy:  20   4
 Initial beta  occupancy:  20   4
 Wave function symmetry:    1

 ITERATION    DDIFF          GRAD             ENERGY        2-EL.EN.            DIPOLE MOMENTS         DIIS
    1      0.000D+00      0.000D+00      -337.80561292    704.513016   -0.00060    0.01189    0.00000    0
    2      0.000D+00      0.729D-02      -337.88299949    698.897680   -0.00187    0.00214    0.00000    1
    3      0.138D-01      0.532D-02      -337.94103158    701.639473    0.00080    0.00761    0.00000    2
    4      0.562D-02      0.701D-03      -337.94324739    701.543454    0.00073    0.00617    0.00000    3
    5      0.134D-02      0.241D-03      -337.94351571    701.476908    0.00113    0.00699    0.00000    4
    6      0.457D-03      0.794D-04      -337.94357698    701.502358    0.00105    0.00651    0.00000    5
    7      0.202D-03      0.351D-04      -337.94358797    701.493514    0.00116    0.00684    0.00000    6
    8      0.957D-04      0.105D-04      -337.94358892    701.498900    0.00107    0.00648    0.00000    7
    9      0.300D-04      0.352D-05      -337.94358900    701.496875    0.00115    0.00679    0.00000    8
   10      0.791D-05      0.144D-05      -337.94358901    701.496794    0.00111    0.00662    0.00000    8
   11      0.355D-05      0.577D-06      -337.94358902    701.497086    0.00112    0.00668    0.00000    8
   12      0.108D-05      0.152D-06      -337.94358902    701.497031    0.00112    0.00668    0.00000    8
   13      0.424D-06      0.415D-07      -337.94358902    701.497019    0.00112    0.00668    0.00000    8
   14      0.958D-07      0.178D-07      -337.94358902    701.497025    0.00112    0.00668    0.00000    8
   15      0.405D-07      0.323D-08      -337.94358902    701.497025    0.00112    0.00668    0.00000    8
   16      0.870D-08      0.821D-09      -337.94358902    701.497025    0.00112    0.00668    0.00000    8
   17      0.181D-08      0.250D-09      -337.94358902    701.497025    0.00112    0.00668    0.00000    7
   18      0.530D-09      0.726D-10      -337.94358902    701.497025    0.00112    0.00668    0.00000    7
   19      0.177D-09      0.225D-10      -337.94358902    701.497025    0.00112    0.00668    0.00000    7
   20      0.434D-10      0.132D-10      -337.94358902    701.497025    0.00112    0.00668    0.00000    8
   21      0.261D-10      0.398D-11      -337.94358902    701.497025    0.00112    0.00668    0.00000    0

 Final occupancy:  20   4

 !RHF STATE 1.1 Energy               -337.943589015777
 Nuclear energy                       230.40697323
 One-electron energy                 -919.09907468
 Two-electron energy                  350.74851244
 Virial quotient                       -1.00177097
 !RHF STATE 1.1 Dipole moment           0.00112222     0.00667623     0.00000000
 Dipole moment /Debye                   0.00285220     0.01696817     0.00000000

 Orbital energies:

         1.1          2.1          3.1          4.1          5.1          6.1          7.1          8.1          9.1         10.1
    -20.541340   -20.540842   -15.589383   -15.589066   -11.367873   -11.367759    -1.388758    -1.383493    -1.218524    -1.212272

        11.1         12.1         13.1         14.1         15.1         16.1         17.1         18.1         19.1         20.1
     -0.860788    -0.835664    -0.749781    -0.740957    -0.705517    -0.644813    -0.618997    -0.593365    -0.454332    -0.428872

        21.1         22.1
      0.033367     0.036333

         1.2          2.2          3.2          4.2          5.2          6.2
     -0.573375    -0.565235    -0.420315    -0.409703     0.092409     0.103435


 **********************************************************************************************************************************
 DATASETS  * FILE   NREC   LENGTH (MB)   RECORD NAMES
              1      19      692.08       500      610      700      900      950      970     1000      129      960     1100   
                                          VAR    BASINP    GEOM    SYMINP    ZMAT    AOBASIS   BASIS     P2S    ABASIS      S 
                                         1400     1410     1200     1210     1080     1600     1650     1300     1700   
                                           T        V       H0       H01     AOSYM     SMH    MOLCAS    ERIS     OPER   

              2       3        0.91       700     1000     2100   
                                         GEOM     BASIS     RHF  

 PROGRAMS   *        TOTAL       RHF       INT
 CPU TIMES  *        16.05      8.96      7.05
 REAL TIME  *        18.83 SEC
 DISK USED  *         2.52 GB      
 GA USED    *         0.00 MB       (max)       0.00 MB       (current)
 **********************************************************************************************************************************


1PROGRAM * CCSD (Closed-shell coupled cluster)     Authors: C. Hampel, H.-J. Werner, 1991, M. Deegan, P.J. Knowles, 1992


 Convergence thresholds:  THRVAR = 1.00D-08  THRDEN = 1.00D-12

 CCSD(T)     terms to be evaluated (factor= 1.000)


 Number of core orbitals:           6 (   6   0 )
 Number of closed-shell orbitals:  18 (  14   4 )
 Number of external orbitals:     168 ( 118  50 )

 Molecular orbitals read from record     2100.2  Type=RHF/CANONICAL (state 1.1)

 Number of N-1 electron functions:              18
 Number of N-2 electron functions:             171
 Number of singly external CSFs:              1852
 Number of doubly external CSFs:           2403256
 Total number of CSFs:                     2405109

 Length of J-op  integral file:               0.00 MB
 Length of K-op  integral file:               1.55 MB
 Length of 3-ext integral record:             0.00 MB

 Memory could be reduced to 56.93 Mwords without degradation in triples

 Integral transformation finished. Total CPU:   2.88 sec, npass=  1  Memory used:  23.60 MW

 Reference energy:                   -337.94358902

 MP2 singlet pair energy:              -0.62292592
 MP2 triplet pair energy:              -0.40627043
 MP2 correlation energy:               -1.02919635
 MP2 total energy:                   -338.97278537

 SCS-MP2 correlation energy:           -1.00030159   (PS=  1.200000  PT=  0.333333)
 SCS-MP2 total energy:               -338.94389061

 ITER.      SQ.NORM     CORR.ENERGY   TOTAL ENERGY   ENERGY CHANGE        DEN1      VAR(S)    VAR(P)  DIIS     TIME
   1      1.31956857    -1.05768587  -339.00127489    -0.02848952     0.00288014  0.10D-01  0.60D-02  1  1     9.24
   2      1.34512096    -1.05956226  -339.00315128    -0.00187639    -0.02598870  0.22D-03  0.11D-02  2  2    15.74
   3      1.35780554    -1.06046021  -339.00404923    -0.00089795    -0.00557883  0.22D-03  0.52D-04  3  3    22.26
   4      1.36304205    -1.06019492  -339.00378393     0.00026530    -0.00170104  0.22D-04  0.96D-05  4  4    28.79
   5      1.36520710    -1.06013701  -339.00372602     0.00005791    -0.00045288  0.28D-05  0.12D-05  5  5    35.30
   6      1.36573232    -1.06010816  -339.00369717     0.00002885    -0.00005003  0.28D-06  0.19D-06  6  6    41.84
   7      1.36586059    -1.06009575  -339.00368477     0.00001240    -0.00000189  0.35D-07  0.24D-07  6  1    48.35
   8      1.36589823    -1.06009453  -339.00368355     0.00000122    -0.00000706  0.76D-08  0.33D-08  6  2    54.87
   9      1.36589972    -1.06009470  -339.00368372    -0.00000017     0.00000269  0.13D-08  0.49D-09  6  3    61.42
  10      1.36590453    -1.06009414  -339.00368316     0.00000056    -0.00000111  0.32D-09  0.69D-10  6  4    67.94
  11      1.36590428    -1.06009440  -339.00368341    -0.00000025     0.00000047  0.60D-10  0.13D-10  6  5    74.46
  12      1.36590428    -1.06009437  -339.00368339     0.00000003     0.00000002  0.43D-11  0.36D-11  6  6    80.99
  13      1.36590399    -1.06009441  -339.00368343    -0.00000004     0.00000012  0.11D-11  0.38D-12  6  1    87.51
  14      1.36590390    -1.06009442  -339.00368344    -0.00000001     0.00000004  0.87D-13  0.72D-13  6  2    94.03
  15      1.36590388    -1.06009442  -339.00368344     0.00000000     0.00000001  0.18D-13  0.12D-13  6  3   100.58
  16      1.36590387    -1.06009442  -339.00368344    -0.00000000     0.00000000  0.43D-14  0.19D-14  6  4   107.10
  17      1.36590387    -1.06009442  -339.00368344     0.00000000    -0.00000000  0.59D-15  0.36D-15  6  5   113.64
  18      1.36590388    -1.06009442  -339.00368344     0.00000000    -0.00000000  0.16D-15  0.61D-16  6  6   120.18
  19      1.36590388    -1.06009442  -339.00368344    -0.00000000    -0.00000000  0.28D-16  0.12D-16  6  1   126.71
  20      1.36590388    -1.06009442  -339.00368344     0.00000000    -0.00000000  0.60D-17  0.28D-17  6  2   133.23
  21      1.36590388    -1.06009442  -339.00368344    -0.00000000     0.00000000  0.12D-17  0.55D-18  6  5   139.75
  22      1.36590388    -1.06009442  -339.00368344    -0.00000000     0.00000000  0.18D-18  0.65D-19  6  3   146.27
  23      1.36590388    -1.06009442  -339.00368344    -0.00000000     0.00000000  0.56D-19  0.17D-19  6  4   152.78
  24      1.36590388    -1.06009442  -339.00368344    -0.00000000    -0.00000000  0.12D-19  0.43D-20  6  1   159.30
  25      1.36590388    -1.06009442  -339.00368344    -0.00000000    -0.00000000  0.21D-20  0.77D-21  6  5   165.82

 Norm of t1 vector:      0.14860120      S-energy:    -0.00000000      T1 diagnostic:  0.01751282
                                                                       D1 diagnostic:  0.05925813


 Total CPU time for triples:    158.88 sec


 RESULTS
 =======

  Reference energy                   -337.943589015778
  CCSD singlet pair energy             -0.699881725302
  CCSD triplet pair energy             -0.360212695333
  CCSD correlation energy              -1.060094420635

  Triples (T) contribution             -0.039990213099
  Total correlation energy             -1.100084633734

  CCSD total energy                  -339.003683436413
  CCSD[T] energy                     -339.046908816153
  CCSD-T energy                      -339.042547456062
 !CCSD(T) total energy               -339.043673649511

 Timing summary (sec):

 STEP                 CPU(USER)    SYS     CPU(TOT)    WALL
 Transformation          2.96      0.29      3.25      3.26
 CCSD iterations       162.87      4.31    167.18    167.24
 Triples               158.88      3.72    162.60    162.63

 Program statistics:

 Available memory in ccsd:               999998604
 Min. memory needed in ccsd:               6087664
 Max. memory used in ccsd:                 8297292
 Max. memory used in cckext:               8019339 (25 integral passes)



 **********************************************************************************************************************************
 DATASETS  * FILE   NREC   LENGTH (MB)   RECORD NAMES
              1      20      912.58       500      610      700      900      950      970     1000      129      960     1100   
                                          VAR    BASINP    GEOM    SYMINP    ZMAT    AOBASIS   BASIS     P2S    ABASIS      S 
                                         1400     1410     1200     1210     1080     1600     1650     1300     1700     1380   
                                           T        V       H0       H01     AOSYM     SMH    MOLCAS    ERIS     OPER     JKOP   

              2       3        0.91       700     1000     2100   
                                         GEOM     BASIS     RHF  

 PROGRAMS   *        TOTAL   CCSD(T)       RHF       INT
 CPU TIMES  *       340.78    324.73      8.96      7.05
 REAL TIME  *       352.02 SEC
 DISK USED  *         2.52 GB      
 GA USED    *         0.00 MB       (max)       0.00 MB       (current)
 **********************************************************************************************************************************

        CCSD(T)         RHF-SCF 
   -339.04367365   -337.94358902
 **********************************************************************************************************************************
 Variable memory released
