
 Primary working directories    : /tmp/878919.929.gen5.q
 Secondary working directories  : /tmp/878919.929.gen5.q
 Wavefunction directory         : /home/vulcan/lo21740/wfu/
 Main file repository           : /tmp/878919.929.gen5.q/

 ARCHNAME  : Linux/x86_64
 FC        : /opt/intel/compilers_and_libraries_2016.1.150/linux/bin/intel64/ifort
 FCVERSION : 16.0.1
 BLASLIB   : -mkl
 id        : ccgc

 Nodes     nprocs
 n071         1
 ga_uses_ma=false, calling ma_init with nominal heap.
 GA-space will be limited to   8.0 MW (determined by -G option)

 Using customized tuning parameters: mindgm=10; mindgv=16; mindgc=4; mindgr=1; noblas=0; mincuda=1000; minvec=7
 default implementation of scratch files=df  

 ***,Optimization of formamide
 memory,1000,m
 gthresh,energy=1.0d-12,orbital=1.0d-10,oneint=1.0d-16,twoint=1.0d-16,optgrad=1.0d-6,compress=1.0d-13
 geomtyp=xyz
 
 bohr
 geometry = {
  C   -3.8243678954    0.0913948556   -0.0000000000
  O   -2.7306680679    2.1400438675   -0.0000000000
  N   -2.6780574983   -2.1749824792   -0.0000000000
  H   -3.7374837788   -3.7496309466   -0.0000000000
  H   -0.7444872022   -2.3041165545   -0.0000000000
  H   -5.9005272478   -0.0096275403   -0.0000000000
  C    3.8288734451   -0.0889476519    0.0000000000
  O    2.7386509862   -2.1443988963   -0.0000000000
  N    2.6739616901    2.1699017369    0.0000000000
  H    3.7220008950    3.7499400154    0.0000000000
  H    0.7466036601    2.2922425650    0.0000000000
  H    5.9055010140    0.0281810285   -0.0000000000
 }
 
 basis=VDZ
 {rhf;maxit,200}
 {ccsd(t);maxit,200}

 Variables initialized (661), CPU time= 0.00 sec
 Commands  initialized (458), CPU time= 0.01 sec, 486 directives.
 Default parameters read. Elapsed time= 0.09 sec

 Checking input...
 Passed
1


                                         ***  PROGRAM SYSTEM MOLPRO  ***
                         Copyright, University College Cardiff Consultants Limited, 2008

                                    Version 2010.1 linked May 16 2016 07:17:05


 **********************************************************************************************************************************
 LABEL *   Optimization of formamide                                                     
 Linux-4.4.3/n071(x86_64) 64 bit mpp version                                             DATE: 22-May-23          TIME: 22:05:59  
 **********************************************************************************************************************************

 SHA1:             9e8077add272b0f3cad6f7df79ec5211205f459d
 **********************************************************************************************************************************

 THRESHOLDS:

 ZERO    =  1.00D-12  ONEINT  =  1.00D-16  TWOINT  =  1.00D-16  PREFAC  =  1.00D-14  LOCALI  =  1.00D-09  EORDER  =  1.00D-04
 ENERGY  =  1.00D-12  ETEST   =  0.00D+00  EDENS   =  0.00D+00  THRDEDEF=  1.00D-06  GRADIENT=  1.00D-02  STEP    =  1.00D-03
 ORBITAL =  1.00D-10  CIVEC   =  1.00D-05  COEFF   =  1.00D-04  PRINTCI =  5.00D-02  PUNCHCI =  9.90D+01  OPTGRAD =  1.00D-06
 OPTENERG=  1.00D-06  OPTSTEP =  3.00D-04  THRGRAD =  1.00D-10  COMPRESS=  1.00D-13  VARMIN  =  1.00D-07  VARMAX  =  1.00D-03
 THRDOUB =  0.00D+00  THRDIV  =  1.00D-05  THRRED  =  1.00D-07  THRPSP  =  1.00D+00  THRDC   =  1.00D-10  THRCS   =  1.00D-10
 THRNRM  =  1.00D-08  THREQ   =  0.00D+00  THRDE   =  1.00D+00  THRREF  =  1.00D-05  SPARFAC =  1.00D+00  THRDLP  =  1.00D-07
 THRDIA  =  1.00D-10  THRDLS  =  1.00D-07  THRGPS  =  0.00D+00  THRKEX  =  0.00D+00  THRDIS  =  2.00D-01  THRVAR  =  1.00D-10
 THRLOC  =  1.00D-06  THRGAP  =  1.00D-06  THRLOCT = -1.00D+00  THRGAPT = -1.00D+00  THRORB  =  1.00D-06  THRMLTP =  0.00D+00
 THRCPQCI=  1.00D-10  KEXTA   =  0.00D+00  THRCOARS=  0.00D+00  SYMTOL  =  1.00D-06  GRADTOL =  1.00D-06  THROVL  =  1.00D-08
 THRORTH =  1.00D-08  GRID    =  1.00D-06  GRIDMAX =  1.00D-03  DTMAX   =  0.00D+00

 SETTING GEOMTYP        =    XYZ
 ZUNIT=BOHR
 

 Variable memory set to 1000000000 words,  buffer space   230000 words

 SETTING BASIS          =    VDZ


 Recomputing integrals since basis changed


 Using spherical harmonics

 Library entry C      S cc-pVDZ              selected for orbital group  1
 Library entry C      P cc-pVDZ              selected for orbital group  1
 Library entry C      D cc-pVDZ              selected for orbital group  1
 Library entry O      S cc-pVDZ              selected for orbital group  2
 Library entry O      P cc-pVDZ              selected for orbital group  2
 Library entry O      D cc-pVDZ              selected for orbital group  2
 Library entry N      S cc-pVDZ              selected for orbital group  3
 Library entry N      P cc-pVDZ              selected for orbital group  3
 Library entry N      D cc-pVDZ              selected for orbital group  3
 Library entry H      S cc-pVDZ              selected for orbital group  4
 Library entry H      P cc-pVDZ              selected for orbital group  4

1PROGRAM * SEWARD (Integral evaluation for generally contracted gaussian basis sets)     Author: Roland Lindh, 1990

 Geometry written to block  1 of record 700


 Point group  Cs  



 ATOMIC COORDINATES

 NR  ATOM    CHARGE       X              Y              Z

   1  C       6.00   -3.824367895    0.091394856    0.000000000
   2  O       8.00   -2.730668068    2.140043868    0.000000000
   3  N       7.00   -2.678057498   -2.174982479    0.000000000
   4  H       1.00   -3.737483779   -3.749630947    0.000000000
   5  H       1.00   -0.744487202   -2.304116555    0.000000000
   6  H       1.00   -5.900527248   -0.009627540    0.000000000
   7  C       6.00    3.828873445   -0.088947652    0.000000000
   8  O       8.00    2.738650986   -2.144398896    0.000000000
   9  N       7.00    2.673961690    2.169901737    0.000000000
  10  H       1.00    3.722000895    3.749940015    0.000000000
  11  H       1.00    0.746603660    2.292242565    0.000000000
  12  H       1.00    5.905501014    0.028181029    0.000000000

 Bond lengths in Bohr (Angstrom)

 1-2  2.322313951  1-3  2.539782225  1-6  2.078615689  3-4  1.897867709  3-5  1.937877628
     ( 1.228915615)     ( 1.343994869)     ( 1.099956049)     ( 1.004308337)     ( 1.025480674)

  7- 8  2.326685374   7- 9  2.536970974   7-12  2.079928169   9-10  1.896024034   9-11  1.931236975
       ( 1.231228872)       ( 1.342507219)       ( 1.100650583)       ( 1.003332706)       ( 1.021966592)

 Bond angles

  1-3-4  119.23744592   1-3-5  120.65066011   2-1-3  125.07403127   2-1-6  120.88186901

  3- 1- 6  114.04409972   4- 3- 5  120.11189397   7- 9-10  119.36379034   7- 9-11  120.71192724

  8- 7- 9  124.97838138   8- 7-12  121.16997245   9- 7-12  113.85164617  10- 9-11  119.92428242

 NUCLEAR CHARGE:                   48
 NUMBER OF PRIMITIVE AOS:         204
 NUMBER OF SYMMETRY AOS:          198
 NUMBER OF CONTRACTIONS:          114   (  84A'  +  30A"  )
 NUMBER OF CORE ORBITALS:           6   (   6A'  +   0A"  )
 NUMBER OF VALENCE ORBITALS:       30   (  24A'  +   6A"  )


 NUCLEAR REPULSION ENERGY  230.60209435


 Eigenvalues of metric

         1 0.554E-02 0.571E-02 0.108E-01 0.113E-01 0.153E-01 0.154E-01 0.238E-01 0.241E-01
         2 0.105E+00 0.106E+00 0.169E+00 0.173E+00 0.192E+00 0.196E+00 0.400E+00 0.408E+00


 Contracted 2-electron integrals neglected if value below      1.0D-16
 AO integral compression algorithm  1   Integral accuracy      1.0D-16

     84.935 MB (compressed) written to integral file ( 86.0%)

     Node minimum: 84.935 MB, node maximum: 84.935 MB


 NUMBER OF SORTED TWO-ELECTRON INTEGRALS:   11462730.     BUFFER LENGTH:  32768
 NUMBER OF SEGMENTS:   1  SEGMENT LENGTH:   11462730      RECORD LENGTH: 524288

 Memory used in sort:      12.02 MW

 SORT1 READ    12321942. AND WROTE    11137095. INTEGRALS IN     32 RECORDS. CPU TIME:     0.16 SEC, REAL TIME:     0.22 SEC
 SORT2 READ    11137095. AND WROTE    11462730. INTEGRALS IN    324 RECORDS. CPU TIME:     0.13 SEC, REAL TIME:     0.19 SEC

 FILE SIZES:   FILE 1:    81.1 MBYTE,  FILE 4:   134.3 MBYTE,   TOTAL:    215.3 MBYTE

 OPERATOR DM      FOR CENTER  0  COORDINATES:    0.000000    0.000000    0.000000


 **********************************************************************************************************************************
 DATASETS  * FILE   NREC   LENGTH (MB)   RECORD NAMES
              1      19       81.18       500      610      700      900      950      970     1000      129      960     1100   
                                          VAR    BASINP    GEOM    SYMINP    ZMAT    AOBASIS   BASIS     P2S    ABASIS      S 
                                         1400     1410     1200     1210     1080     1600     1650     1300     1700   
                                           T        V       H0       H01     AOSYM     SMH    MOLCAS    ERIS     OPER   

 PROGRAMS   *        TOTAL       INT
 CPU TIMES  *         3.31      3.19
 REAL TIME  *         4.02 SEC
 DISK USED  *       301.13 MB      
 GA USED    *         0.00 MB       (max)       0.00 MB       (current)
 **********************************************************************************************************************************

1PROGRAM * RHF-SCF (CLOSED SHELL)       Authors: W. Meyer, H.-J. Werner


 NUMBER OF ELECTRONS:      24+   24-
 CONVERGENCE THRESHOLDS:    1.00E-10 (Density)    1.00E-13 (Energy)
 MAX. NUMBER OF ITERATIONS:      200
 INTERPOLATION TYPE:            DIIS
 INTERPOLATION STEPS:              2 (START)      1 (STEP)
 LEVEL SHIFTS:                  0.00 (CLOSED)  0.00 (OPEN) 



 Orbital guess generated from atomic densities. Full valence occupancy:   30   6

 Molecular orbital dump at record        2100.2

 Initial alpha occupancy:  20   4
 Initial beta  occupancy:  20   4
 Wave function symmetry:    1

 ITERATION    DDIFF          GRAD             ENERGY        2-EL.EN.            DIPOLE MOMENTS         DIIS
    1      0.000D+00      0.000D+00      -337.77967225    705.592980   -0.00272    0.01221    0.00000    0
    2      0.000D+00      0.121D-01      -337.85827967    700.396685   -0.00285    0.00746    0.00000    1
    3      0.242D-01      0.861D-02      -337.91366236    702.871814   -0.00247    0.01067    0.00000    2
    4      0.927D-02      0.114D-02      -337.91575884    702.857430   -0.00256    0.00990    0.00000    3
    5      0.204D-02      0.400D-03      -337.91602563    702.785905   -0.00245    0.01045    0.00000    4
    6      0.735D-03      0.133D-03      -337.91609333    702.804991   -0.00250    0.01021    0.00000    5
    7      0.341D-03      0.597D-04      -337.91610468    702.800541   -0.00243    0.01044    0.00000    6
    8      0.173D-03      0.157D-04      -337.91610537    702.801024   -0.00249    0.01021    0.00000    7
    9      0.440D-04      0.439D-05      -337.91610542    702.800731   -0.00241    0.01050    0.00000    7
   10      0.109D-04      0.224D-05      -337.91610543    702.800768   -0.00246    0.01033    0.00000    8
   11      0.430D-05      0.499D-06      -337.91610543    702.800829   -0.00245    0.01035    0.00000    8
   12      0.119D-05      0.868D-07      -337.91610543    702.800801   -0.00245    0.01035    0.00000    8
   13      0.231D-06      0.332D-07      -337.91610543    702.800808   -0.00245    0.01035    0.00000    8
   14      0.716D-07      0.113D-07      -337.91610543    702.800810   -0.00245    0.01035    0.00000    7
   15      0.308D-07      0.308D-08      -337.91610543    702.800809   -0.00245    0.01035    0.00000    7
   16      0.578D-08      0.695D-09      -337.91610543    702.800809   -0.00245    0.01035    0.00000    7
   17      0.150D-08      0.317D-09      -337.91610543    702.800809   -0.00245    0.01035    0.00000    7
   18      0.696D-09      0.109D-09      -337.91610543    702.800809   -0.00245    0.01035    0.00000    7
   19      0.288D-09      0.374D-10      -337.91610543    702.800809   -0.00245    0.01035    0.00000    8
   20      0.828D-10      0.181D-10      -337.91610543    702.800809   -0.00245    0.01035    0.00000    8
   21      0.392D-10      0.506D-11      -337.91610543    702.800809   -0.00245    0.01035    0.00000    8
   22      0.107D-10      0.202D-11      -337.91610543    702.800809   -0.00245    0.01035    0.00000    8
   23      0.488D-11      0.684D-12      -337.91610543    702.800809   -0.00245    0.01035    0.00000    8
   24      0.199D-11      0.272D-12      -337.91610543    702.800809   -0.00245    0.01035    0.00000    9
   25      0.741D-12      0.678D-13      -337.91610543    702.800809   -0.00245    0.01035    0.00000    9
   26      0.186D-12      0.324D-13      -337.91610543    702.800809   -0.00245    0.01035    0.00000    9
   27      0.945D-13      0.209D-13      -337.91610543    702.800809   -0.00245    0.01035    0.00000    9
   28      0.581D-13      0.180D-13      -337.91610543    702.800809   -0.00245    0.01035    0.00000    9
   29      0.394D-13      0.167D-13      -337.91610543    702.800809   -0.00245    0.01035    0.00000    9
   30      0.275D-13      0.135D-13      -337.91610543    702.800809   -0.00245    0.01035    0.00000    0

 Final occupancy:  20   4

 !RHF STATE 1.1 Energy               -337.916105431151
 Nuclear energy                       230.60209435
 One-electron energy                 -919.91860441
 Two-electron energy                  351.40040463
 Virial quotient                       -1.00140671
 !RHF STATE 1.1 Dipole moment          -0.00245405     0.01035217     0.00000000
 Dipole moment /Debye                  -0.00623716     0.02631087     0.00000000

 Orbital energies:

         1.1          2.1          3.1          4.1          5.1          6.1          7.1          8.1          9.1         10.1
    -20.525479   -20.525264   -15.577044   -15.577019   -11.359279   -11.359007    -1.378977    -1.374031    -1.208349    -1.202138

        11.1         12.1         13.1         14.1         15.1         16.1         17.1         18.1         19.1         20.1
     -0.851957    -0.826781    -0.740495    -0.731375    -0.695899    -0.634388    -0.610380    -0.583922    -0.443564    -0.418661

        21.1         22.1
      0.186358     0.188325

         1.2          2.2          3.2          4.2          5.2          6.2
     -0.565372    -0.557895    -0.410584    -0.401038     0.194620     0.201548


 **********************************************************************************************************************************
 DATASETS  * FILE   NREC   LENGTH (MB)   RECORD NAMES
              1      19       81.18       500      610      700      900      950      970     1000      129      960     1100   
                                          VAR    BASINP    GEOM    SYMINP    ZMAT    AOBASIS   BASIS     P2S    ABASIS      S 
                                         1400     1410     1200     1210     1080     1600     1650     1300     1700   
                                           T        V       H0       H01     AOSYM     SMH    MOLCAS    ERIS     OPER   

              2       3        0.62       700     1000     2100   
                                         GEOM     BASIS     RHF  

 PROGRAMS   *        TOTAL       RHF       INT
 CPU TIMES  *         5.48      2.17      3.19
 REAL TIME  *         6.54 SEC
 DISK USED  *       301.13 MB      
 GA USED    *         0.00 MB       (max)       0.00 MB       (current)
 **********************************************************************************************************************************


1PROGRAM * CCSD (Closed-shell coupled cluster)     Authors: C. Hampel, H.-J. Werner, 1991, M. Deegan, P.J. Knowles, 1992


 Convergence thresholds:  THRVAR = 1.00D-08  THRDEN = 1.00D-12

 CCSD(T)     terms to be evaluated (factor= 1.000)


 Number of core orbitals:           6 (   6   0 )
 Number of closed-shell orbitals:  18 (  14   4 )
 Number of external orbitals:      90 (  64  26 )

 Molecular orbitals read from record     2100.2  Type=RHF/CANONICAL (state 1.1)

 Number of N-1 electron functions:              18
 Number of N-2 electron functions:             171
 Number of singly external CSFs:              1000
 Number of doubly external CSFs:            693010
 Total number of CSFs:                      694011

 Length of J-op  integral file:               0.00 MB
 Length of K-op  integral file:               0.59 MB
 Length of 3-ext integral record:             0.00 MB

 Memory could be reduced to 9.94 Mwords without degradation in triples

 Integral transformation finished. Total CPU:   0.48 sec, npass=  1  Memory used:   5.91 MW

 Reference energy:                   -337.91610543

 MP2 singlet pair energy:              -0.58945146
 MP2 triplet pair energy:              -0.38303400
 MP2 correlation energy:               -0.97248546
 MP2 total energy:                   -338.88859089

 SCS-MP2 correlation energy:           -0.94567402   (PS=  1.200000  PT=  0.333333)
 SCS-MP2 total energy:               -338.86177945

 ITER.      SQ.NORM     CORR.ENERGY   TOTAL ENERGY   ENERGY CHANGE        DEN1      VAR(S)    VAR(P)  DIIS     TIME
   1      1.29747668    -1.00448079  -338.92058623    -0.03199533    -0.00239345  0.96D-02  0.55D-02  1  1     1.87
   2      1.32234257    -1.00712640  -338.92323183    -0.00264561    -0.02512241  0.22D-03  0.10D-02  2  2     3.25
   3      1.33495529    -1.00809685  -338.92420228    -0.00097044    -0.00559184  0.21D-03  0.47D-04  3  3     4.64
   4      1.34030401    -1.00786853  -338.92397396     0.00022832    -0.00169268  0.20D-04  0.80D-05  4  4     6.02
   5      1.34240584    -1.00780502  -338.92391046     0.00006350    -0.00043374  0.19D-05  0.10D-05  5  5     7.47
   6      1.34287153    -1.00777439  -338.92387982     0.00003064    -0.00004128  0.15D-06  0.13D-06  6  6     8.85
   7      1.34297618    -1.00776477  -338.92387020     0.00000962    -0.00000524  0.14D-07  0.15D-07  6  2    10.24
   8      1.34299402    -1.00776486  -338.92387030    -0.00000010     0.00000000  0.17D-08  0.17D-08  6  1    11.63
   9      1.34299550    -1.00776456  -338.92386999     0.00000031     0.00000149  0.29D-09  0.21D-09  6  4    13.02
  10      1.34299851    -1.00776452  -338.92386995     0.00000004    -0.00000043  0.76D-10  0.20D-10  6  3    14.40
  11      1.34299841    -1.00776459  -338.92387002    -0.00000007     0.00000017  0.15D-10  0.50D-11  6  5    15.86
  12      1.34299821    -1.00776461  -338.92387004    -0.00000002     0.00000008  0.32D-11  0.13D-11  6  6    17.24
  13      1.34299797    -1.00776464  -338.92387007    -0.00000003     0.00000010  0.42D-12  0.20D-12  6  2    18.63
  14      1.34299787    -1.00776465  -338.92387008    -0.00000001     0.00000003  0.88D-13  0.31D-13  6  1    20.01
  15      1.34299784    -1.00776465  -338.92387008    -0.00000000     0.00000000  0.13D-13  0.78D-14  6  4    21.40
  16      1.34299783    -1.00776465  -338.92387008    -0.00000000    -0.00000000  0.34D-14  0.13D-14  6  3    22.79
  17      1.34299783    -1.00776465  -338.92387008    -0.00000000    -0.00000000  0.84D-15  0.19D-15  6  5    24.17
  18      1.34299783    -1.00776465  -338.92387008    -0.00000000     0.00000000  0.61D-16  0.57D-16  6  6    25.55
  19      1.34299783    -1.00776465  -338.92387008    -0.00000000     0.00000000  0.28D-16  0.55D-17  6  4    26.94
  20      1.34299783    -1.00776465  -338.92387008    -0.00000000     0.00000000  0.16D-17  0.86D-18  6  2    28.32
  21      1.34299783    -1.00776465  -338.92387008    -0.00000000     0.00000000  0.35D-18  0.15D-18  6  1    29.71
  22      1.34299783    -1.00776465  -338.92387008     0.00000000    -0.00000000  0.82D-19  0.19D-19  6  3    31.11
  23      1.34299783    -1.00776465  -338.92387008     0.00000000    -0.00000000  0.12D-19  0.62D-20  6  5    32.50
  24      1.34299783    -1.00776465  -338.92387008     0.00000000    -0.00000000  0.17D-20  0.69D-21  6  6    33.87
  25      1.34299783    -1.00776465  -338.92387008     0.00000000     0.00000000  0.30D-21  0.15D-21  6  4    35.26
  26      1.34299783    -1.00776465  -338.92387008     0.00000000     0.00000000  0.83D-22  0.23D-22  6  2    36.65

 Norm of t1 vector:      0.14879825      S-energy:     0.00000000      T1 diagnostic:  0.01753604
                                                                       D1 diagnostic:  0.06215754

 Singles amplitudes (print threshold =  0.500E-01):

         I         SYM. A    A   T(IA)

        15         2         1      0.05754051
        16         2         2     -0.05847522


 Total CPU time for triples:     21.01 sec


 RESULTS
 =======

  Reference energy                   -337.916105431151
  CCSD singlet pair energy             -0.667695134764
  CCSD triplet pair energy             -0.340069517872
  CCSD correlation energy              -1.007764652636

  Triples (T) contribution             -0.032206841226
  Total correlation energy             -1.039971493862

  CCSD total energy                  -338.923870083787
  CCSD[T] energy                     -338.959063523614
  CCSD-T energy                      -338.955100896682
 !CCSD(T) total energy               -338.956076925013

 Timing summary (sec):

 STEP                 CPU(USER)    SYS     CPU(TOT)    WALL
 Transformation          0.51      0.07      0.58      0.59
 CCSD iterations        36.14      1.21     37.35     37.45
 Triples                21.01      0.48     21.49     21.50

 Program statistics:

 Available memory in ccsd:               999998604
 Min. memory needed in ccsd:               1904590
 Max. memory used in ccsd:                 2522532
 Max. memory used in cckext:               2734922 (26 integral passes)



 **********************************************************************************************************************************
 DATASETS  * FILE   NREC   LENGTH (MB)   RECORD NAMES
              1      20      123.98       500      610      700      900      950      970     1000      129      960     1100   
                                          VAR    BASINP    GEOM    SYMINP    ZMAT    AOBASIS   BASIS     P2S    ABASIS      S 
                                         1400     1410     1200     1210     1080     1600     1650     1300     1700     1380   
                                           T        V       H0       H01     AOSYM     SMH    MOLCAS    ERIS     OPER     JKOP   

              2       3        0.62       700     1000     2100   
                                         GEOM     BASIS     RHF  

 PROGRAMS   *        TOTAL   CCSD(T)       RHF       INT
 CPU TIMES  *        63.16     57.68      2.17      3.19
 REAL TIME  *        66.11 SEC
 DISK USED  *       332.25 MB      
 GA USED    *         0.00 MB       (max)       0.00 MB       (current)
 **********************************************************************************************************************************

        CCSD(T)         RHF-SCF 
   -338.95607693   -337.91610543
 **********************************************************************************************************************************
 Variable memory released
