
 Primary working directories    : /tmp/1011018.22.gen4.q
 Secondary working directories  : /tmp/1011018.22.gen4.q
 Wavefunction directory         : /home/vulcan/mel64643/wfu/
 Main file repository           : /tmp/1011018.22.gen4.q/

 ARCHNAME  : Linux/x86_64
 FC        : /opt/intel/compilers_and_libraries_2016.1.150/linux/bin/intel64/ifort
 FCVERSION : 16.0.1
 BLASLIB   : -mkl
 id        : ccgc

 Nodes     nprocs
 n065         1
 ga_uses_ma=false, calling ma_init with nominal heap.
 GA-space will be limited to   8.0 MW (determined by -G option)

 Using customized tuning parameters: mindgm=10; mindgv=16; mindgc=4; mindgr=1; noblas=0; mincuda=1000; minvec=7
 default implementation of scratch files=df  

 ***,Optimization of ethene_ethyne
 memory,1000,m
 gthresh,energy=1.0d-12,orbital=1.0d-10,oneint=1.0d-16,twoint=1.0d-16,optgrad=1.0d-6,compress=1.0d-13
 geomtyp=xyz
 
 
 
 bohr
 geometry = {
  C    0.0000003320   -1.2729391408   -3.9714488581
  C    0.0000003316    1.2668225556   -3.9722474157
  H    1.7509541275   -2.3363308588   -3.9727774168
  H   -1.7509534683   -2.3363308576   -3.9727720973
  H   -1.7447848176    2.3403045746   -3.9742581958
  H    1.7447854753    2.3403045735   -3.9742634965
  C   -0.0000006102   -0.0000956980    5.4004224668
  C   -0.0000003802   -0.0008190636    3.1120302052
  H   -0.0000001777   -0.0014561290    1.0966518339
  H   -0.0000008124    0.0005400441    7.4116144254
  X    2.0000000000    0.0000000000    5.4004221540
  X    0.0000000000    2.0000000000    5.4004221540
  X    2.0000000000    0.0000000000    3.1120297780
  X    0.0000000000    2.0000000000    3.1120297780
 }
 
 basis=aug-cc-pvdz, H=cc-pvdz
 {rhf;maxit,200}
 {mp2}

 Variables initialized (661), CPU time= 0.01 sec
 Commands  initialized (458), CPU time= 0.00 sec, 486 directives.
 Default parameters read. Elapsed time= 0.04 sec

 Checking input...
 Passed
1


                                         ***  PROGRAM SYSTEM MOLPRO  ***
                         Copyright, University College Cardiff Consultants Limited, 2008

                                    Version 2010.1 linked May 16 2016 07:17:05


 **********************************************************************************************************************************
 LABEL *   Optimization of ethene_ethyne                                                 
 Linux-4.4.3/n065(x86_64) 64 bit mpp version                                             DATE: 25-Feb-24          TIME: 03:04:21  
 **********************************************************************************************************************************

 SHA1:             9e8077add272b0f3cad6f7df79ec5211205f459d
 **********************************************************************************************************************************

 THRESHOLDS:

 ZERO    =  1.00D-12  ONEINT  =  1.00D-16  TWOINT  =  1.00D-16  PREFAC  =  1.00D-14  LOCALI  =  1.00D-09  EORDER  =  1.00D-04
 ENERGY  =  1.00D-12  ETEST   =  0.00D+00  EDENS   =  0.00D+00  THRDEDEF=  1.00D-06  GRADIENT=  1.00D-02  STEP    =  1.00D-03
 ORBITAL =  1.00D-10  CIVEC   =  1.00D-05  COEFF   =  1.00D-04  PRINTCI =  5.00D-02  PUNCHCI =  9.90D+01  OPTGRAD =  1.00D-06
 OPTENERG=  1.00D-06  OPTSTEP =  3.00D-04  THRGRAD =  1.00D-10  COMPRESS=  1.00D-13  VARMIN  =  1.00D-07  VARMAX  =  1.00D-03
 THRDOUB =  0.00D+00  THRDIV  =  1.00D-05  THRRED  =  1.00D-07  THRPSP  =  1.00D+00  THRDC   =  1.00D-10  THRCS   =  1.00D-10
 THRNRM  =  1.00D-08  THREQ   =  0.00D+00  THRDE   =  1.00D+00  THRREF  =  1.00D-05  SPARFAC =  1.00D+00  THRDLP  =  1.00D-07
 THRDIA  =  1.00D-10  THRDLS  =  1.00D-07  THRGPS  =  0.00D+00  THRKEX  =  0.00D+00  THRDIS  =  2.00D-01  THRVAR  =  1.00D-10
 THRLOC  =  1.00D-06  THRGAP  =  1.00D-06  THRLOCT = -1.00D+00  THRGAPT = -1.00D+00  THRORB  =  1.00D-06  THRMLTP =  0.00D+00
 THRCPQCI=  1.00D-10  KEXTA   =  0.00D+00  THRCOARS=  0.00D+00  SYMTOL  =  1.00D-06  GRADTOL =  1.00D-06  THROVL  =  1.00D-08
 THRORTH =  1.00D-08  GRID    =  1.00D-06  GRIDMAX =  1.00D-03  DTMAX   =  0.00D+00

 SETTING GEOMTYP        =    XYZ
 ZUNIT=BOHR
 

 Variable memory set to 1000000000 words,  buffer space   230000 words

 SETTING BASIS          =    AUG-CC-PVDZ,H=CC-PVDZ


 Recomputing integrals since basis changed


 Using spherical harmonics

 Library entry C      S aug-cc-pVDZ          selected for orbital group  1
 Library entry C      P aug-cc-pVDZ          selected for orbital group  1
 Library entry C      D aug-cc-pVDZ          selected for orbital group  1
 Library entry H      S cc-pVDZ              selected for orbital group  2
 Library entry H      P cc-pVDZ              selected for orbital group  2

1PROGRAM * SEWARD (Integral evaluation for generally contracted gaussian basis sets)     Author: Roland Lindh, 1990

 Geometry written to block  1 of record 700


 Point group  C1  



 ATOMIC COORDINATES

 NR  ATOM    CHARGE       X              Y              Z

   1  C       6.00    0.000000332   -1.272939141   -3.971448858
   2  C       6.00    0.000000332    1.266822556   -3.972247416
   3  H       1.00    1.750954128   -2.336330859   -3.972777417
   4  H       1.00   -1.750953468   -2.336330858   -3.972772097
   5  H       1.00   -1.744784818    2.340304575   -3.974258196
   6  H       1.00    1.744785475    2.340304574   -3.974263496
   7  C       6.00   -0.000000610   -0.000095698    5.400422467
   8  C       6.00   -0.000000380   -0.000819064    3.112030205
   9  H       1.00   -0.000000178   -0.001456129    1.096651834
  10  H       1.00   -0.000000812    0.000540044    7.411614425

 Bond lengths in Bohr (Angstrom)

 1-2  2.539761822  1-3  2.048570942  1-4  2.048570942  2-5  2.048570942  2-6  2.048570942
     ( 1.343984072)     ( 1.084057054)     ( 1.084057054)     ( 1.084057054)     ( 1.084057054)

  7- 8  2.288392376   7-10  2.011192059   8- 9  2.015378472
       ( 1.210965091)       ( 1.064277001)       ( 1.066492355)

 Bond angles

  1-2-5  121.60198004   1-2-6  121.60198004   2-1-3  121.27118307   2-1-4  121.27118307

  3- 1- 4  117.45754903   5- 2- 6  116.79595400   7- 8- 9  180.00000000   8- 7-10  179.99999809

 NUCLEAR CHARGE:                   30
 NUMBER OF PRIMITIVE AOS:         190
 NUMBER OF SYMMETRY AOS:          182
 NUMBER OF CONTRACTIONS:          122   ( 122A   )
 NUMBER OF CORE ORBITALS:           4   (   4A   )
 NUMBER OF VALENCE ORBITALS:       22   (  22A   )


 NUCLEAR REPULSION ENERGY   85.42008648


 Eigenvalues of metric

         1 0.820E-04 0.175E-03 0.227E-03 0.272E-03 0.292E-02 0.484E-02 0.499E-02 0.575E-02


 Contracted 2-electron integrals neglected if value below      1.0D-16
 AO integral compression algorithm  1   Integral accuracy      1.0D-16

     194.511 MB (compressed) written to integral file ( 74.1%)

     Node minimum: 194.511 MB, node maximum: 194.511 MB


 NUMBER OF SORTED TWO-ELECTRON INTEGRALS:   28151256.     BUFFER LENGTH:  32768
 NUMBER OF SEGMENTS:   2  SEGMENT LENGTH:   15997996      RECORD LENGTH: 524288

 Memory used in sort:      16.56 MW

 SORT1 READ    32800823. AND WROTE    26949088. INTEGRALS IN     78 RECORDS. CPU TIME:     0.34 SEC, REAL TIME:     0.50 SEC
 SORT2 READ    26949088. AND WROTE    28151256. INTEGRALS IN    742 RECORDS. CPU TIME:     0.30 SEC, REAL TIME:     0.41 SEC

 FILE SIZES:   FILE 1:   171.1 MBYTE,  FILE 4:   327.2 MBYTE,   TOTAL:    498.2 MBYTE

 OPERATOR DM      FOR CENTER  0  COORDINATES:    0.000000    0.000000    0.000000


 **********************************************************************************************************************************
 DATASETS  * FILE   NREC   LENGTH (MB)   RECORD NAMES
              1      19      171.24       500      610      700      900      950      970     1000      129      960     1100   
                                          VAR    BASINP    GEOM    SYMINP    ZMAT    AOBASIS   BASIS     P2S    ABASIS      S 
                                         1400     1410     1200     1210     1080     1600     1650     1300     1700   
                                           T        V       H0       H01     AOSYM     SMH    MOLCAS    ERIS     OPER   

 PROGRAMS   *        TOTAL       INT
 CPU TIMES  *         2.18      2.14
 REAL TIME  *         2.71 SEC
 DISK USED  *       693.68 MB      
 GA USED    *         0.00 MB       (max)       0.00 MB       (current)
 **********************************************************************************************************************************

1PROGRAM * RHF-SCF (CLOSED SHELL)       Authors: W. Meyer, H.-J. Werner


 NUMBER OF ELECTRONS:      15+   15-    SPACE SYMMETRY=1    SPIN SYMMETRY: Singlet 
 CONVERGENCE THRESHOLDS:    1.00E-10 (Density)    1.00E-13 (Energy)
 MAX. NUMBER OF ITERATIONS:      200
 INTERPOLATION TYPE:            DIIS
 INTERPOLATION STEPS:              2 (START)      1 (STEP)
 LEVEL SHIFTS:                  0.00 (CLOSED)  0.00 (OPEN) 



 Orbital guess generated from atomic densities. Full valence occupancy:   26

 Molecular orbital dump at record        2100.2

 ITERATION    DDIFF          GRAD             ENERGY        2-EL.EN.            DIPOLE MOMENTS         DIIS
    1      0.000D+00      0.000D+00      -154.83506274    273.214101    0.00000    0.00157   -0.05937    0
    2      0.000D+00      0.345D-02      -154.86697345    270.896231    0.00000    0.00130   -0.14670    1
    3      0.838D-02      0.107D-02      -154.86988592    271.783770    0.00000    0.00121   -0.12275    2
    4      0.209D-02      0.310D-03      -154.87027415    271.572034    0.00000    0.00133   -0.14274    3
    5      0.867D-03      0.645D-04      -154.87028643    271.589084    0.00000    0.00127   -0.13542    4
    6      0.155D-03      0.291D-04      -154.87028852    271.589595    0.00000    0.00130   -0.14048    5
    7      0.495D-04      0.631D-05      -154.87028866    271.588981    0.00000    0.00131   -0.14021    6
    8      0.154D-04      0.146D-05      -154.87028867    271.588907    0.00000    0.00131   -0.14042    7
    9      0.391D-05      0.356D-06      -154.87028867    271.588944    0.00000    0.00132   -0.14046    7
   10      0.121D-05      0.525D-07      -154.87028867    271.588942    0.00000    0.00132   -0.14047    7
   11      0.215D-06      0.140D-07      -154.87028867    271.588944    0.00000    0.00132   -0.14047    7
   12      0.410D-07      0.796D-08      -154.87028867    271.588944    0.00000    0.00132   -0.14047    6
   13      0.169D-07      0.406D-08      -154.87028867    271.588944    0.00000    0.00132   -0.14047    7
   14      0.159D-07      0.177D-08      -154.87028867    271.588944    0.00000    0.00132   -0.14047    7
   15      0.805D-08      0.659D-09      -154.87028867    271.588944    0.00000    0.00132   -0.14047    8
   16      0.326D-08      0.190D-09      -154.87028867    271.588944    0.00000    0.00132   -0.14047    8
   17      0.424D-09      0.723D-10      -154.87028867    271.588944    0.00000    0.00132   -0.14047    9
   18      0.180D-09      0.269D-10      -154.87028867    271.588944    0.00000    0.00132   -0.14047    9
   19      0.871D-10      0.963D-11      -154.87028867    271.588944    0.00000    0.00132   -0.14047    0

 Final occupancy:  15

 !RHF STATE 1.1 Energy               -154.870288671038
 Nuclear energy                        85.42008648
 One-electron energy                 -376.08484718
 Two-electron energy                  135.79447203
 Virial quotient                       -1.00231667
 !RHF STATE 1.1 Dipole moment           0.00000006     0.00131949    -0.14046835
 Dipole moment /Debye                   0.00000015     0.00335360    -0.35701156

 Orbital energies:

         1.1          2.1          3.1          4.1          5.1          6.1          7.1          8.1          9.1         10.1
    -11.251360   -11.249786   -11.248249   -11.244605    -1.042982    -1.024239    -0.803440    -0.760377    -0.671683    -0.650864

        11.1         12.1         13.1         14.1         15.1         16.1         17.1
     -0.594332    -0.516745    -0.402007    -0.402003    -0.385278     0.065106     0.065114


 **********************************************************************************************************************************
 DATASETS  * FILE   NREC   LENGTH (MB)   RECORD NAMES
              1      19      171.24       500      610      700      900      950      970     1000      129      960     1100   
                                          VAR    BASINP    GEOM    SYMINP    ZMAT    AOBASIS   BASIS     P2S    ABASIS      S 
                                         1400     1410     1200     1210     1080     1600     1650     1300     1700   
                                           T        V       H0       H01     AOSYM     SMH    MOLCAS    ERIS     OPER   

              2       3        0.79       700     1000     2100   
                                         GEOM     BASIS     RHF  

 PROGRAMS   *        TOTAL       RHF       INT
 CPU TIMES  *         6.95      4.77      2.14
 REAL TIME  *         7.88 SEC
 DISK USED  *       693.68 MB      
 GA USED    *         0.00 MB       (max)       0.00 MB       (current)
 **********************************************************************************************************************************


1PROGRAM * MP2 (Closed-shell)     Authors: C. Hampel, H.-J. Werner, 1991, M. Deegan, P.J. Knowles, 1992


 Convergence thresholds:  THRVAR = 1.00D-08  THRDEN = 1.00D-12

 Number of core orbitals:           4 (   4 )
 Number of closed-shell orbitals:  11 (  11 )
 Number of external orbitals:     107 ( 107 )

 Molecular orbitals read from record     2100.2  Type=RHF/CANONICAL (state 1.1)

 Number of N-1 electron functions:              11
 Number of N-2 electron functions:              66
 Number of singly external CSFs:              1177
 Number of doubly external CSFs:            693253
 Total number of CSFs:                      694431

 Length of J-op  integral file:               0.00 MB
 Length of K-op  integral file:               1.06 MB

 Integral transformation finished. Total CPU:   0.49 sec, npass=  1  Memory used:   1.98 MW

 Memory needed for MP2:                      0.07 MW

 SCS-MP2 correlation energy:           -0.548355631704   (PS=  1.200000  PT=  0.333333)
 SCS-MP2 total energy:               -155.418644302742


  Reference energy                   -154.870288671038
  MP2 singlet pair energy              -0.358058273333
  MP2 triplet pair energy              -0.190744880953
  MP2 correlation energy               -0.548803154286

 !MP2 total energy                   -155.419091825324


 **********************************************************************************************************************************
 DATASETS  * FILE   NREC   LENGTH (MB)   RECORD NAMES
              1      20      183.36       500      610      700      900      950      970     1000      129      960     1100   
                                          VAR    BASINP    GEOM    SYMINP    ZMAT    AOBASIS   BASIS     P2S    ABASIS      S 
                                         1400     1410     1200     1210     1080     1600     1650     1300     1700     1380   
                                           T        V       H0       H01     AOSYM     SMH    MOLCAS    ERIS     OPER     JKOP   

              2       3        0.79       700     1000     2100   
                                         GEOM     BASIS     RHF  

 PROGRAMS   *        TOTAL       MP2       RHF       INT
 CPU TIMES  *         7.49      0.54      4.77      2.14
 REAL TIME  *         8.47 SEC
 DISK USED  *       693.68 MB      
 GA USED    *         0.00 MB       (max)       0.00 MB       (current)
 **********************************************************************************************************************************

        MP2             RHF-SCF 
   -155.41909183   -154.87028867
 **********************************************************************************************************************************
 Variable memory released
