
 Primary working directories    : /tmp/985636.1694.gen4.q
 Secondary working directories  : /tmp/985636.1694.gen4.q
 Wavefunction directory         : /home/vulcan/jj04645/wfu/
 Main file repository           : /tmp/985636.1694.gen4.q/

 ARCHNAME  : Linux/x86_64
 FC        : /opt/intel/compilers_and_libraries_2016.1.150/linux/bin/intel64/ifort
 FCVERSION : 16.0.1
 BLASLIB   : -mkl
 id        : ccgc

 Nodes     nprocs
 n049         1
 ga_uses_ma=false, calling ma_init with nominal heap.
 GA-space will be limited to   8.0 MW (determined by -G option)

 Using customized tuning parameters: mindgm=10; mindgv=16; mindgc=4; mindgr=1; noblas=0; mincuda=1000; minvec=7
 default implementation of scratch files=df  

 ***,Optimization of tetrahydrothiopyran
 memory,1000,m
 gthresh,energy=1.0d-12,orbital=1.0d-10,oneint=1.0d-16,twoint=1.0d-16,optgrad=1.0d-6,compress=1.0d-13
 geomtyp=xyz
 
 bohr
 geometry = {
  S    0.3477020848    2.6998856534   -0.0032244703
  C   -0.3312214670   -3.3655729593   -0.0019786813
  C   -0.6655990995    0.6656791087   -2.5825139503
  C   -0.6583220281    0.6694365866    2.5818677899
  C    0.4773212802   -1.9813080605   -2.4133749303
  C    0.4703256576   -1.9836925349    2.4131178694
  H   -2.7315645085    0.5616723713   -2.5838364105
  H   -2.7246918782    0.5746641788    2.5947540591
  H   -0.0807749835    1.6212282246   -4.3141439706
  H   -0.0607771025    1.6243435241    4.3095045254
  H    2.5390508085   -1.8264115661   -2.4664989815
  H    2.5325285667   -1.8394914501    2.4769061251
  H   -0.1197817448   -3.0750707631   -4.0655054883
  H   -0.1397480915   -3.0755408367    4.0617723385
  H    0.4609054708   -5.2737333799   -0.0017732631
  H   -2.3940879816   -3.5759095138   -0.0050725611
 }
 
 basis=VDZ
 {rhf;maxit,200}
 {ccsd(t);maxit,200}

 Variables initialized (661), CPU time= 0.00 sec
 Commands  initialized (458), CPU time= 0.00 sec, 486 directives.
 Default parameters read. Elapsed time= 0.05 sec

 Checking input...
 Passed
1


                                         ***  PROGRAM SYSTEM MOLPRO  ***
                         Copyright, University College Cardiff Consultants Limited, 2008

                                    Version 2010.1 linked May 16 2016 07:17:05


 **********************************************************************************************************************************
 LABEL *   Optimization of tetrahydrothiopyran                                           
 Linux-4.4.3/n049(x86_64) 64 bit mpp version                                             DATE: 26-Jan-24          TIME: 19:16:15  
 **********************************************************************************************************************************

 SHA1:             9e8077add272b0f3cad6f7df79ec5211205f459d
 **********************************************************************************************************************************

 THRESHOLDS:

 ZERO    =  1.00D-12  ONEINT  =  1.00D-16  TWOINT  =  1.00D-16  PREFAC  =  1.00D-14  LOCALI  =  1.00D-09  EORDER  =  1.00D-04
 ENERGY  =  1.00D-12  ETEST   =  0.00D+00  EDENS   =  0.00D+00  THRDEDEF=  1.00D-06  GRADIENT=  1.00D-02  STEP    =  1.00D-03
 ORBITAL =  1.00D-10  CIVEC   =  1.00D-05  COEFF   =  1.00D-04  PRINTCI =  5.00D-02  PUNCHCI =  9.90D+01  OPTGRAD =  1.00D-06
 OPTENERG=  1.00D-06  OPTSTEP =  3.00D-04  THRGRAD =  1.00D-10  COMPRESS=  1.00D-13  VARMIN  =  1.00D-07  VARMAX  =  1.00D-03
 THRDOUB =  0.00D+00  THRDIV  =  1.00D-05  THRRED  =  1.00D-07  THRPSP  =  1.00D+00  THRDC   =  1.00D-10  THRCS   =  1.00D-10
 THRNRM  =  1.00D-08  THREQ   =  0.00D+00  THRDE   =  1.00D+00  THRREF  =  1.00D-05  SPARFAC =  1.00D+00  THRDLP  =  1.00D-07
 THRDIA  =  1.00D-10  THRDLS  =  1.00D-07  THRGPS  =  0.00D+00  THRKEX  =  0.00D+00  THRDIS  =  2.00D-01  THRVAR  =  1.00D-10
 THRLOC  =  1.00D-06  THRGAP  =  1.00D-06  THRLOCT = -1.00D+00  THRGAPT = -1.00D+00  THRORB  =  1.00D-06  THRMLTP =  0.00D+00
 THRCPQCI=  1.00D-10  KEXTA   =  0.00D+00  THRCOARS=  0.00D+00  SYMTOL  =  1.00D-06  GRADTOL =  1.00D-06  THROVL  =  1.00D-08
 THRORTH =  1.00D-08  GRID    =  1.00D-06  GRIDMAX =  1.00D-03  DTMAX   =  0.00D+00

 SETTING GEOMTYP        =    XYZ
 ZUNIT=BOHR
 

 Variable memory set to 1000000000 words,  buffer space   230000 words

 SETTING BASIS          =    VDZ


 Recomputing integrals since basis changed


 Using spherical harmonics

 Library entry S      S cc-pVDZ              selected for orbital group  1
 Library entry S      P cc-pVDZ              selected for orbital group  1
 Library entry S      D cc-pVDZ              selected for orbital group  1
 Library entry C      S cc-pVDZ              selected for orbital group  2
 Library entry C      P cc-pVDZ              selected for orbital group  2
 Library entry C      D cc-pVDZ              selected for orbital group  2
 Library entry H      S cc-pVDZ              selected for orbital group  3
 Library entry H      P cc-pVDZ              selected for orbital group  3

1PROGRAM * SEWARD (Integral evaluation for generally contracted gaussian basis sets)     Author: Roland Lindh, 1990

 Geometry written to block  1 of record 700


 Point group  C1  



 ATOMIC COORDINATES

 NR  ATOM    CHARGE       X              Y              Z

   1  S      16.00    0.347702085    2.699885653   -0.003224470
   2  C       6.00   -0.331221467   -3.365572959   -0.001978681
   3  C       6.00   -0.665599099    0.665679109   -2.582513950
   4  C       6.00   -0.658322028    0.669436587    2.581867790
   5  C       6.00    0.477321280   -1.981308060   -2.413374930
   6  C       6.00    0.470325658   -1.983692535    2.413117869
   7  H       1.00   -2.731564508    0.561672371   -2.583836411
   8  H       1.00   -2.724691878    0.574664179    2.594754059
   9  H       1.00   -0.080774983    1.621228225   -4.314143971
  10  H       1.00   -0.060777102    1.624343524    4.309504525
  11  H       1.00    2.539050808   -1.826411566   -2.466498982
  12  H       1.00    2.532528567   -1.839491450    2.476906125
  13  H       1.00   -0.119781745   -3.075070763   -4.065505488
  14  H       1.00   -0.139748092   -3.075540837    4.061772338
  15  H       1.00    0.460905471   -5.273733380   -0.001773263
  16  H       1.00   -2.394087982   -3.575909514   -0.005072561

 Bond lengths in Bohr (Angstrom)

  1- 3  3.437660509   1- 4  3.437660530   2- 5  2.895645447   2- 6  2.895645463   2-15  2.066044849
       ( 1.819131594)       ( 1.819131605)       ( 1.532309576)       ( 1.532309585)       ( 1.093303847)

  2-16  2.073564394   3- 5  2.888150979   3- 7  2.068582177   3- 9  2.062434456   4- 6  2.888151012
       ( 1.097283019)       ( 1.528343674)       ( 1.094646543)       ( 1.091393309)       ( 1.528343692)

  4- 8  2.068582177   4-10  2.062434456   5-11  2.068222362   5-13  2.069392242   6-12  2.068222361
       ( 1.094646543)       ( 1.091393309)       ( 1.094456137)       ( 1.095075211)       ( 1.094456136)

  6-14  2.069392242
       ( 1.095075211)

 Bond angles

  1-3-5  112.44174511   1-3-7  108.94278902   1-3-9  105.79609187   1-4-6  112.59933223

  1- 4- 8  108.90985286   1- 4-10  105.76315575   2- 5- 3  112.11113697   2- 5-11  109.60560640

  2- 5-13  109.36671417   2- 6- 4  112.26871860   2- 6-12  109.57269331   2- 6-14  109.33380110

  3- 1- 4   97.37995434   3- 5-11  108.92565193   3- 5-13  108.87296853   4- 6-12  108.89273888

  4- 6-14  108.84005547   5- 2- 6  112.90051287   5- 2-15  109.54486919   5- 2-16  108.96776283

  5- 3- 7  110.43737280   5- 3- 9  111.19736040   6- 2-15  109.54486920   6- 2-16  108.96776283

  6- 4- 8  110.40443667   6- 4-10  111.16442426   7- 3- 9  107.81590292   8- 4-10  107.78296678

 11- 5-13  107.86120527  12- 6-14  107.82829229  15- 2-16  106.72265330

 NUCLEAR CHARGE:                   56
 NUMBER OF PRIMITIVE AOS:         247
 NUMBER OF SYMMETRY AOS:          241
 NUMBER OF CONTRACTIONS:          138   ( 138A   )
 NUMBER OF CORE ORBITALS:          10   (  10A   )
 NUMBER OF VALENCE ORBITALS:       34   (  34A   )


 NUCLEAR REPULSION ENERGY  312.14127200


 Eigenvalues of metric

         1 0.285E-02 0.305E-02 0.426E-02 0.634E-02 0.705E-02 0.151E-01 0.157E-01 0.196E-01


 Contracted 2-electron integrals neglected if value below      1.0D-16
 AO integral compression algorithm  1   Integral accuracy      1.0D-16

     374.342 MB (compressed) written to integral file ( 94.1%)

     Node minimum: 374.342 MB, node maximum: 374.342 MB


 NUMBER OF SORTED TWO-ELECTRON INTEGRALS:   45998436.     BUFFER LENGTH:  32768
 NUMBER OF SEGMENTS:   3  SEGMENT LENGTH:   15998004      RECORD LENGTH: 524288

 Memory used in sort:      16.56 MW

 SORT1 READ    49670349. AND WROTE    45798861. INTEGRALS IN    132 RECORDS. CPU TIME:     0.50 SEC, REAL TIME:     0.75 SEC
 SORT2 READ    45798861. AND WROTE    45998436. INTEGRALS IN   1428 RECORDS. CPU TIME:     0.37 SEC, REAL TIME:     0.55 SEC

 FILE SIZES:   FILE 1:   349.6 MBYTE,  FILE 4:   553.7 MBYTE,   TOTAL:    903.3 MBYTE

 OPERATOR DM      FOR CENTER  0  COORDINATES:    0.000000    0.000000    0.000000


 **********************************************************************************************************************************
 DATASETS  * FILE   NREC   LENGTH (MB)   RECORD NAMES
              1      19      349.85       500      610      700      900      950      970     1000      129      960     1100   
                                          VAR    BASINP    GEOM    SYMINP    ZMAT    AOBASIS   BASIS     P2S    ABASIS      S 
                                         1400     1410     1200     1210     1080     1600     1650     1300     1700   
                                           T        V       H0       H01     AOSYM     SMH    MOLCAS    ERIS     OPER   

 PROGRAMS   *        TOTAL       INT
 CPU TIMES  *         5.23      5.19
 REAL TIME  *         6.02 SEC
 DISK USED  *         1.28 GB      
 GA USED    *         0.01 MB       (max)       0.00 MB       (current)
 **********************************************************************************************************************************

1PROGRAM * RHF-SCF (CLOSED SHELL)       Authors: W. Meyer, H.-J. Werner


 NUMBER OF ELECTRONS:      28+   28-    SPACE SYMMETRY=1    SPIN SYMMETRY: Singlet 
 CONVERGENCE THRESHOLDS:    1.00E-10 (Density)    1.00E-13 (Energy)
 MAX. NUMBER OF ITERATIONS:      200
 INTERPOLATION TYPE:            DIIS
 INTERPOLATION STEPS:              2 (START)      1 (STEP)
 LEVEL SHIFTS:                  0.00 (CLOSED)  0.00 (OPEN) 



 Orbital guess generated from atomic densities. Full valence occupancy:   44

 Molecular orbital dump at record        2100.2

 ITERATION    DDIFF          GRAD             ENERGY        2-EL.EN.            DIPOLE MOMENTS         DIIS
    1      0.000D+00      0.000D+00      -592.64386213   1056.848928   -0.40806   -0.80495    0.00180    0
    2      0.000D+00      0.396D-02      -592.70489841   1054.265898   -0.20760   -0.73998    0.00080    1
    3      0.778D-02      0.132D-02      -592.71083366   1055.699312   -0.28006   -0.67741    0.00092    2
    4      0.269D-02      0.539D-03      -592.71184203   1055.081927   -0.25266   -0.71058    0.00081    3
    5      0.930D-03      0.773D-04      -592.71186773   1055.144732   -0.24878   -0.70212    0.00078    4
    6      0.180D-03      0.266D-04      -592.71187025   1055.113888   -0.25049   -0.70240    0.00078    5
    7      0.503D-04      0.619D-05      -592.71187045   1055.117063   -0.24982   -0.70229    0.00078    6
    8      0.164D-04      0.174D-05      -592.71187047   1055.116199   -0.24981   -0.70215    0.00078    7
    9      0.538D-05      0.452D-06      -592.71187047   1055.116082   -0.24979   -0.70211    0.00078    7
   10      0.127D-05      0.162D-06      -592.71187047   1055.116120   -0.24978   -0.70211    0.00078    7
   11      0.480D-06      0.344D-07      -592.71187047   1055.116106   -0.24979   -0.70211    0.00078    7
   12      0.114D-06      0.689D-08      -592.71187047   1055.116111   -0.24978   -0.70211    0.00078    7
   13      0.183D-07      0.288D-08      -592.71187047   1055.116108   -0.24978   -0.70211    0.00078    7
   14      0.633D-08      0.848D-09      -592.71187047   1055.116109   -0.24978   -0.70211    0.00078    7
   15      0.226D-08      0.276D-09      -592.71187047   1055.116109   -0.24978   -0.70211    0.00078    7
   16      0.663D-09      0.866D-10      -592.71187047   1055.116109   -0.24978   -0.70211    0.00078    8
   17      0.209D-09      0.203D-10      -592.71187047   1055.116109   -0.24978   -0.70211    0.00078    7
   18      0.542D-10      0.706D-11      -592.71187047   1055.116109   -0.24978   -0.70211    0.00078    7
   19      0.224D-10      0.270D-11      -592.71187047   1055.116109   -0.24978   -0.70211    0.00078    8
   20      0.841D-11      0.982D-12      -592.71187047   1055.116109   -0.24978   -0.70211    0.00078    8
   21      0.346D-11      0.305D-12      -592.71187047   1055.116109   -0.24978   -0.70211    0.00078    0

 Final occupancy:  28

 !RHF STATE 1.1 Energy               -592.711870474185
 Nuclear energy                       312.14127200
 One-electron energy                -1432.41119704
 Two-electron energy                  527.55805456
 Virial quotient                       -1.00019464
 !RHF STATE 1.1 Dipole moment          -0.24978494    -0.70210677     0.00077722
 Dipole moment /Debye                  -0.63484842    -1.78446053     0.00197536

 Orbital energies:

         1.1          2.1          3.1          4.1          5.1          6.1          7.1          8.1          9.1         10.1
    -91.929757   -11.254954   -11.254936   -11.231077   -11.230976   -11.229068    -8.933646    -6.615542    -6.614108    -6.611908

        11.1         12.1         13.1         14.1         15.1         16.1         17.1         18.1         19.1         20.1
     -1.119622    -1.020005    -1.006495    -0.842312    -0.835809    -0.755638    -0.646547    -0.614652    -0.610021    -0.578407

        21.1         22.1         23.1         24.1         25.1         26.1         27.1         28.1         29.1         30.1
     -0.547036    -0.523660    -0.497759    -0.495562    -0.473134    -0.434583    -0.411633    -0.328695     0.176943     0.190375


 **********************************************************************************************************************************
 DATASETS  * FILE   NREC   LENGTH (MB)   RECORD NAMES
              1      19      349.85       500      610      700      900      950      970     1000      129      960     1100   
                                          VAR    BASINP    GEOM    SYMINP    ZMAT    AOBASIS   BASIS     P2S    ABASIS      S 
                                         1400     1410     1200     1210     1080     1600     1650     1300     1700   
                                           T        V       H0       H01     AOSYM     SMH    MOLCAS    ERIS     OPER   

              2       3        0.92       700     1000     2100   
                                         GEOM     BASIS     RHF  

 PROGRAMS   *        TOTAL       RHF       INT
 CPU TIMES  *        12.75      7.52      5.19
 REAL TIME  *        14.39 SEC
 DISK USED  *         1.28 GB      
 GA USED    *         0.01 MB       (max)       0.00 MB       (current)
 **********************************************************************************************************************************


1PROGRAM * CCSD (Closed-shell coupled cluster)     Authors: C. Hampel, H.-J. Werner, 1991, M. Deegan, P.J. Knowles, 1992


 Convergence thresholds:  THRVAR = 1.00D-08  THRDEN = 1.00D-12

 CCSD(T)     terms to be evaluated (factor= 1.000)


 Number of core orbitals:          10 (  10 )
 Number of closed-shell orbitals:  18 (  18 )
 Number of external orbitals:     110 ( 110 )

 Molecular orbitals read from record     2100.2  Type=RHF/CANONICAL (state 1.1)

 Number of N-1 electron functions:              18
 Number of N-2 electron functions:             171
 Number of singly external CSFs:              1980
 Number of doubly external CSFs:           1961190
 Total number of CSFs:                     1963171

 Length of J-op  integral file:               0.00 MB
 Length of K-op  integral file:               1.35 MB
 Length of 3-ext integral record:             0.00 MB

 Memory could be reduced to 32.58 Mwords without degradation in triples

 Integral transformation finished. Total CPU:   2.64 sec, npass=  1  Memory used:  30.89 MW

 Reference energy:                   -592.71187047

 MP2 singlet pair energy:              -0.53946252
 MP2 triplet pair energy:              -0.30437040
 MP2 correlation energy:               -0.84383292
 MP2 total energy:                   -593.55570339

 SCS-MP2 correlation energy:           -0.83674105   (PS=  1.200000  PT=  0.333333)
 SCS-MP2 total energy:               -593.54861152

 ITER.      SQ.NORM     CORR.ENERGY   TOTAL ENERGY   ENERGY CHANGE        DEN1      VAR(S)    VAR(P)  DIIS     TIME
   1      1.33970314    -0.91080719  -593.62267766    -0.06697427    -0.04301590  0.26D-02  0.55D-02  1  1    10.64
   2      1.36669843    -0.91615508  -593.62802555    -0.00534789    -0.02577687  0.69D-04  0.46D-03  2  2    18.72
   3      1.37203178    -0.91628268  -593.62815315    -0.00012760    -0.00303779  0.16D-04  0.28D-04  3  3    26.82
   4      1.37352494    -0.91634073  -593.62821120    -0.00005805    -0.00059395  0.76D-06  0.20D-05  4  4    34.92
   5      1.37376570    -0.91634734  -593.62821782    -0.00000662    -0.00007087  0.17D-06  0.16D-06  5  5    43.02
   6      1.37381139    -0.91634289  -593.62821337     0.00000445    -0.00001394  0.30D-07  0.14D-07  6  6    51.14
   7      1.37381899    -0.91634278  -593.62821325     0.00000011     0.00000064  0.53D-08  0.23D-08  6  2    59.25
   8      1.37382508    -0.91634247  -593.62821294     0.00000031    -0.00000125  0.73D-09  0.27D-09  6  1    67.36
   9      1.37382591    -0.91634240  -593.62821288     0.00000006     0.00000051  0.66D-10  0.44D-10  6  4    75.47
  10      1.37382679    -0.91634237  -593.62821284     0.00000003    -0.00000011  0.48D-11  0.35D-11  6  3    83.58
  11      1.37382680    -0.91634237  -593.62821284    -0.00000000     0.00000004  0.12D-11  0.54D-12  6  5    91.70
  12      1.37382677    -0.91634237  -593.62821285    -0.00000000     0.00000002  0.17D-12  0.77D-13  6  6    99.83
  13      1.37382672    -0.91634237  -593.62821285    -0.00000000     0.00000002  0.24D-13  0.11D-13  6  1   107.94
  14      1.37382671    -0.91634238  -593.62821285    -0.00000000     0.00000000  0.31D-14  0.12D-14  6  2   116.07
  15      1.37382671    -0.91634237  -593.62821285     0.00000000    -0.00000000  0.68D-15  0.31D-15  6  4   124.16
  16      1.37382671    -0.91634237  -593.62821285     0.00000000    -0.00000000  0.34D-16  0.23D-16  6  5   132.28
  17      1.37382671    -0.91634237  -593.62821285     0.00000000    -0.00000000  0.63D-17  0.25D-17  6  3   140.38
  18      1.37382671    -0.91634237  -593.62821285     0.00000000    -0.00000000  0.16D-17  0.44D-18  6  5   148.50
  19      1.37382671    -0.91634237  -593.62821285     0.00000000    -0.00000000  0.22D-18  0.71D-19  6  6   156.60
  20      1.37382671    -0.91634237  -593.62821285    -0.00000000     0.00000000  0.21D-19  0.76D-20  6  1   164.72
  21      1.37382671    -0.91634237  -593.62821285    -0.00000000     0.00000000  0.44D-20  0.13D-20  6  2   172.84

 Norm of t1 vector:      0.07015792      S-energy:    -0.00000000      T1 diagnostic:  0.00826819
                                                                       D1 diagnostic:  0.02108467


 Total CPU time for triples:    123.13 sec


 RESULTS
 =======

  Reference energy                   -592.711870474187
  CCSD singlet pair energy             -0.634215393444
  CCSD triplet pair energy             -0.282126981453
  CCSD correlation energy              -0.916342374898

  Triples (T) contribution             -0.029869465935
  Total correlation energy             -0.946211840833

  CCSD total energy                  -593.628212849084
  CCSD[T] energy                     -593.658701726052
  CCSD-T energy                      -593.657771085167
 !CCSD(T) total energy               -593.658082315020

 Timing summary (sec):

 STEP                 CPU(USER)    SYS     CPU(TOT)    WALL
 Transformation          2.75      0.23      2.98      2.98
 CCSD iterations       170.09      2.91    173.00    173.10
 Triples               123.13      2.28    125.41    125.42

 Program statistics:

 Available memory in ccsd:               999998604
 Min. memory needed in ccsd:               5123362
 Max. memory used in ccsd:                 6867976
 Max. memory used in cckext:               6836871 (21 integral passes)



 **********************************************************************************************************************************
 DATASETS  * FILE   NREC   LENGTH (MB)   RECORD NAMES
              1      20      486.23       500      610      700      900      950      970     1000      129      960     1100   
                                          VAR    BASINP    GEOM    SYMINP    ZMAT    AOBASIS   BASIS     P2S    ABASIS      S 
                                         1400     1410     1200     1210     1080     1600     1650     1300     1700     1380   
                                           T        V       H0       H01     AOSYM     SMH    MOLCAS    ERIS     OPER     JKOP   

              2       3        0.92       700     1000     2100   
                                         GEOM     BASIS     RHF  

 PROGRAMS   *        TOTAL   CCSD(T)       RHF       INT
 CPU TIMES  *       308.74    295.99      7.52      5.19
 REAL TIME  *       315.95 SEC
 DISK USED  *         1.28 GB      
 GA USED    *         0.01 MB       (max)       0.00 MB       (current)
 **********************************************************************************************************************************

        CCSD(T)         RHF-SCF 
   -593.65808232   -592.71187047
 **********************************************************************************************************************************
 Variable memory released
