
 Primary working directories    : /tmp/917057.165.gen5.q
 Secondary working directories  : /tmp/917057.165.gen5.q
 Wavefunction directory         : /home/vulcan/lo21740/wfu/
 Main file repository           : /tmp/917057.165.gen5.q/

 ARCHNAME  : Linux/x86_64
 FC        : /opt/intel/compilers_and_libraries_2016.1.150/linux/bin/intel64/ifort
 FCVERSION : 16.0.1
 BLASLIB   : -mkl
 id        : ccgc

 Nodes     nprocs
 n072         1
 ga_uses_ma=false, calling ma_init with nominal heap.
 GA-space will be limited to   8.0 MW (determined by -G option)

 Using customized tuning parameters: mindgm=10; mindgv=16; mindgc=4; mindgr=1; noblas=0; mincuda=1000; minvec=7
 default implementation of scratch files=df  

 ***,Optimization of h2o_2
 memory,1000,m
 gthresh,energy=1.0d-12,orbital=1.0d-10,oneint=1.0d-16,twoint=1.0d-16,optgrad=1.0d-6,compress=1.0d-13
 geomtyp=xyz
 
 bohr
 geometry = {
  C   -0.0002509714   -3.4236214534    0.0015559420
  H   -0.9678416918   -2.7333111123   -1.6746665488
  H   -0.9643985794   -2.7315158082    1.6790216416
  H    1.9442392871   -2.7289123338    0.0051604246
  H   -0.0070354939   -5.4883938720   -0.0092529504
  C   -0.0009441060    3.4230166722   -0.0003653772
  H   -0.0026675707    5.4828269786   -0.0022149773
  H    0.9701166888    2.7326072264   -1.6806723183
  H    0.9701137489    2.7356259891    1.6811804526
  H   -1.9413313117    2.7316777133    0.0002537111
 }
 
 basis=AVDZ
 {rhf;maxit,200}
 {ccsd(t);maxit,200}

 Variables initialized (661), CPU time= 0.00 sec
 Commands  initialized (458), CPU time= 0.01 sec, 486 directives.
 Default parameters read. Elapsed time= 0.04 sec

 Checking input...
 Passed
1


                                         ***  PROGRAM SYSTEM MOLPRO  ***
                         Copyright, University College Cardiff Consultants Limited, 2008

                                    Version 2010.1 linked May 16 2016 07:17:05


 **********************************************************************************************************************************
 LABEL *   Optimization of h2o_2                                                         
 Linux-4.4.3/n072(x86_64) 64 bit mpp version                                             DATE: 20-Jul-23          TIME: 14:09:46  
 **********************************************************************************************************************************

 SHA1:             9e8077add272b0f3cad6f7df79ec5211205f459d
 **********************************************************************************************************************************

 THRESHOLDS:

 ZERO    =  1.00D-12  ONEINT  =  1.00D-16  TWOINT  =  1.00D-16  PREFAC  =  1.00D-14  LOCALI  =  1.00D-09  EORDER  =  1.00D-04
 ENERGY  =  1.00D-12  ETEST   =  0.00D+00  EDENS   =  0.00D+00  THRDEDEF=  1.00D-06  GRADIENT=  1.00D-02  STEP    =  1.00D-03
 ORBITAL =  1.00D-10  CIVEC   =  1.00D-05  COEFF   =  1.00D-04  PRINTCI =  5.00D-02  PUNCHCI =  9.90D+01  OPTGRAD =  1.00D-06
 OPTENERG=  1.00D-06  OPTSTEP =  3.00D-04  THRGRAD =  1.00D-10  COMPRESS=  1.00D-13  VARMIN  =  1.00D-07  VARMAX  =  1.00D-03
 THRDOUB =  0.00D+00  THRDIV  =  1.00D-05  THRRED  =  1.00D-07  THRPSP  =  1.00D+00  THRDC   =  1.00D-10  THRCS   =  1.00D-10
 THRNRM  =  1.00D-08  THREQ   =  0.00D+00  THRDE   =  1.00D+00  THRREF  =  1.00D-05  SPARFAC =  1.00D+00  THRDLP  =  1.00D-07
 THRDIA  =  1.00D-10  THRDLS  =  1.00D-07  THRGPS  =  0.00D+00  THRKEX  =  0.00D+00  THRDIS  =  2.00D-01  THRVAR  =  1.00D-10
 THRLOC  =  1.00D-06  THRGAP  =  1.00D-06  THRLOCT = -1.00D+00  THRGAPT = -1.00D+00  THRORB  =  1.00D-06  THRMLTP =  0.00D+00
 THRCPQCI=  1.00D-10  KEXTA   =  0.00D+00  THRCOARS=  0.00D+00  SYMTOL  =  1.00D-06  GRADTOL =  1.00D-06  THROVL  =  1.00D-08
 THRORTH =  1.00D-08  GRID    =  1.00D-06  GRIDMAX =  1.00D-03  DTMAX   =  0.00D+00

 SETTING GEOMTYP        =    XYZ
 ZUNIT=BOHR
 

 Variable memory set to 1000000000 words,  buffer space   230000 words

 SETTING BASIS          =    AVDZ


 Recomputing integrals since basis changed


 Using spherical harmonics

 Library entry C      S aug-cc-pVDZ          selected for orbital group  1
 Library entry C      P aug-cc-pVDZ          selected for orbital group  1
 Library entry C      D aug-cc-pVDZ          selected for orbital group  1
 Library entry H      S aug-cc-pVDZ          selected for orbital group  2
 Library entry H      P aug-cc-pVDZ          selected for orbital group  2

1PROGRAM * SEWARD (Integral evaluation for generally contracted gaussian basis sets)     Author: Roland Lindh, 1990

 Geometry written to block  1 of record 700


 Point group  C1  



 ATOMIC COORDINATES

 NR  ATOM    CHARGE       X              Y              Z

   1  C       6.00   -0.000250971   -3.423621453    0.001555942
   2  H       1.00   -0.967841692   -2.733311112   -1.674666549
   3  H       1.00   -0.964398579   -2.731515808    1.679021642
   4  H       1.00    1.944239287   -2.728912334    0.005160425
   5  H       1.00   -0.007035494   -5.488393872   -0.009252950
   6  C       6.00   -0.000944106    3.423016672   -0.000365377
   7  H       1.00   -0.002667571    5.482826979   -0.002214977
   8  H       1.00    0.970116689    2.732607226   -1.680672318
   9  H       1.00    0.970113749    2.735625989    1.681180453
  10  H       1.00   -1.941331312    2.731677713    0.000253711

 Bond lengths in Bohr (Angstrom)

 1-2  2.054867881  1-3  2.054867881  1-4  2.064867095  1-5  2.064811856  6-7  2.059811858
     ( 1.087389250)     ( 1.087389250)     ( 1.092680606)     ( 1.092651375)     ( 1.090005490)

  6- 8  2.059867881   6- 9  2.059867881   6-10  2.059867095
       ( 1.090035136)       ( 1.090035136)       ( 1.090034720)

 Bond angles

  2-1-3  109.37976542   2-1-4  109.37964938   2-1-5  109.27576900   3-1-4  109.09317049

  3-1-5  109.84872685   4-1-5  109.84881895   7-6-8  109.56240831   7-6-9  109.56240830

  7- 6-10  109.56250040   8- 6- 9  109.37992579   8- 6-10  109.37980975   9- 6-10  109.37980975

 NUCLEAR CHARGE:                   20
 NUMBER OF PRIMITIVE AOS:         162
 NUMBER OF SYMMETRY AOS:          158
 NUMBER OF CONTRACTIONS:          118   ( 118A   )
 NUMBER OF CORE ORBITALS:           2   (   2A   )
 NUMBER OF VALENCE ORBITALS:       16   (  16A   )


 NUCLEAR REPULSION ENERGY   41.33732388


 Eigenvalues of metric

         1 0.370E-03 0.569E-03 0.572E-03 0.613E-03 0.726E-03 0.729E-03 0.780E-03 0.101E-02


 Contracted 2-electron integrals neglected if value below      1.0D-16
 AO integral compression algorithm  1   Integral accuracy      1.0D-16

     212.599 MB (compressed) written to integral file ( 93.0%)

     Node minimum: 212.599 MB, node maximum: 212.599 MB


 NUMBER OF SORTED TWO-ELECTRON INTEGRALS:   24650731.     BUFFER LENGTH:  32768
 NUMBER OF SEGMENTS:   2  SEGMENT LENGTH:   15997996      RECORD LENGTH: 524288

 Memory used in sort:      16.56 MW

 SORT1 READ    28594353. AND WROTE    24456436. INTEGRALS IN     71 RECORDS. CPU TIME:     0.29 SEC, REAL TIME:     0.45 SEC
 SORT2 READ    24456436. AND WROTE    24650731. INTEGRALS IN    811 RECORDS. CPU TIME:     0.23 SEC, REAL TIME:     0.36 SEC

 FILE SIZES:   FILE 1:   189.5 MBYTE,  FILE 4:   297.8 MBYTE,   TOTAL:    487.4 MBYTE

 OPERATOR DM      FOR CENTER  0  COORDINATES:    0.000000    0.000000    0.000000


 **********************************************************************************************************************************
 DATASETS  * FILE   NREC   LENGTH (MB)   RECORD NAMES
              1      19      189.71       500      610      700      900      950      970     1000      129      960     1100   
                                          VAR    BASINP    GEOM    SYMINP    ZMAT    AOBASIS   BASIS     P2S    ABASIS      S 
                                         1400     1410     1200     1210     1080     1600     1650     1300     1700   
                                           T        V       H0       H01     AOSYM     SMH    MOLCAS    ERIS     OPER   

 PROGRAMS   *        TOTAL       INT
 CPU TIMES  *         1.66      1.61
 REAL TIME  *         2.28 SEC
 DISK USED  *       700.75 MB      
 GA USED    *         0.00 MB       (max)       0.00 MB       (current)
 **********************************************************************************************************************************

1PROGRAM * RHF-SCF (CLOSED SHELL)       Authors: W. Meyer, H.-J. Werner


 NUMBER OF ELECTRONS:      10+   10-    SPACE SYMMETRY=1    SPIN SYMMETRY: Singlet 
 CONVERGENCE THRESHOLDS:    1.00E-10 (Density)    1.00E-13 (Energy)
 MAX. NUMBER OF ITERATIONS:      200
 INTERPOLATION TYPE:            DIIS
 INTERPOLATION STEPS:              2 (START)      1 (STEP)
 LEVEL SHIFTS:                  0.00 (CLOSED)  0.00 (OPEN) 



 Orbital guess generated from atomic densities. Full valence occupancy:   18

 Molecular orbital dump at record        2100.2

 ITERATION    DDIFF          GRAD             ENERGY        2-EL.EN.            DIPOLE MOMENTS         DIIS
    1      0.000D+00      0.000D+00       -80.36231637    134.783925    0.00184   -0.00012   -0.00091    0
    2      0.000D+00      0.368D-02       -80.39420633    132.479098   -0.00151    0.00148   -0.00038    1
    3      0.809D-02      0.137D-02       -80.39818046    133.306349   -0.00145    0.00168   -0.00053    2
    4      0.256D-02      0.371D-03       -80.39876734    133.175565   -0.00177    0.00191   -0.00049    3
    5      0.868D-03      0.458D-04       -80.39877607    133.182453   -0.00182    0.00195   -0.00049    4
    6      0.875D-04      0.296D-05       -80.39877612    133.182291   -0.00182    0.00196   -0.00049    5
    7      0.107D-04      0.225D-06       -80.39877612    133.182272   -0.00182    0.00196   -0.00049    5
    8      0.155D-05      0.357D-07       -80.39877612    133.182272   -0.00182    0.00196   -0.00049    4
    9      0.289D-06      0.607D-08       -80.39877612    133.182273   -0.00182    0.00196   -0.00049    4
   10      0.216D-07      0.122D-08       -80.39877612    133.182273   -0.00182    0.00196   -0.00049    5
   11      0.300D-08      0.256D-09       -80.39877612    133.182273   -0.00182    0.00196   -0.00049    5
   12      0.126D-08      0.826D-10       -80.39877612    133.182273   -0.00182    0.00196   -0.00049    6
   13      0.257D-09      0.190D-10       -80.39877612    133.182273   -0.00182    0.00196   -0.00049    6
   14      0.541D-10      0.536D-11       -80.39877612    133.182273   -0.00182    0.00196   -0.00049    0

 Final occupancy:  10

 !RHF STATE 1.1 Energy                -80.398776119275
 Nuclear energy                        41.33732388
 One-electron energy                 -188.32723656
 Two-electron energy                   66.59113656
 Virial quotient                       -1.00196216
 !RHF STATE 1.1 Dipole moment          -0.00182205     0.00195937    -0.00049086
 Dipole moment /Debye                  -0.00463088     0.00497990    -0.00124756

 Orbital energies:

         1.1          2.1          3.1          4.1          5.1          6.1          7.1          8.1          9.1         10.1
    -11.214697   -11.214645    -0.945606    -0.939641    -0.550847    -0.546999    -0.546216    -0.539560    -0.538697    -0.535575

        11.1         12.1
      0.035477     0.045885


 **********************************************************************************************************************************
 DATASETS  * FILE   NREC   LENGTH (MB)   RECORD NAMES
              1      19      189.71       500      610      700      900      950      970     1000      129      960     1100   
                                          VAR    BASINP    GEOM    SYMINP    ZMAT    AOBASIS   BASIS     P2S    ABASIS      S 
                                         1400     1410     1200     1210     1080     1600     1650     1300     1700   
                                           T        V       H0       H01     AOSYM     SMH    MOLCAS    ERIS     OPER   

              2       3        0.70       700     1000     2100   
                                         GEOM     BASIS     RHF  

 PROGRAMS   *        TOTAL       RHF       INT
 CPU TIMES  *         4.42      2.76      1.61
 REAL TIME  *         5.42 SEC
 DISK USED  *       700.75 MB      
 GA USED    *         0.00 MB       (max)       0.00 MB       (current)
 **********************************************************************************************************************************


1PROGRAM * CCSD (Closed-shell coupled cluster)     Authors: C. Hampel, H.-J. Werner, 1991, M. Deegan, P.J. Knowles, 1992


 Convergence thresholds:  THRVAR = 1.00D-08  THRDEN = 1.00D-12

 CCSD(T)     terms to be evaluated (factor= 1.000)


 Number of core orbitals:           2 (   2 )
 Number of closed-shell orbitals:   8 (   8 )
 Number of external orbitals:     108 ( 108 )

 Molecular orbitals read from record     2100.2  Type=RHF/CANONICAL (state 1.1)

 Number of N-1 electron functions:               8
 Number of N-2 electron functions:              36
 Number of singly external CSFs:               864
 Number of doubly external CSFs:            373680
 Total number of CSFs:                      374545

 Length of J-op  integral file:               0.00 MB
 Length of K-op  integral file:               1.00 MB
 Length of 3-ext integral record:             0.00 MB

 Memory could be reduced to 14.62 Mwords without degradation in triples

 Integral transformation finished. Total CPU:   0.72 sec, npass=  1  Memory used:   8.61 MW

 Reference energy:                    -80.39877612

 MP2 singlet pair energy:              -0.24106533
 MP2 triplet pair energy:              -0.09675844
 MP2 correlation energy:               -0.33782378
 MP2 total energy:                    -80.73659989

 SCS-MP2 correlation energy:           -0.34948365   (PS=  1.200000  PT=  0.333333)
 SCS-MP2 total energy:                -80.74825977

 ITER.      SQ.NORM     CORR.ENERGY   TOTAL ENERGY   ENERGY CHANGE        DEN1      VAR(S)    VAR(P)  DIIS     TIME
   1      1.14044002    -0.38147567   -80.78025179    -0.04365189    -0.03251907  0.70D-03  0.24D-02  1  1     1.58
   2      1.15349055    -0.38423139   -80.78300751    -0.00275572    -0.01269509  0.16D-04  0.11D-03  2  2     2.49
   3      1.15560285    -0.38436417   -80.78314029    -0.00013278    -0.00113015  0.25D-05  0.71D-05  3  3     3.41
   4      1.15604993    -0.38438233   -80.78315845    -0.00001816    -0.00017665  0.10D-06  0.45D-06  4  4     4.34
   5      1.15612094    -0.38437902   -80.78315514     0.00000331    -0.00003210  0.39D-08  0.31D-07  5  5     5.26
   6      1.15612482    -0.38437802   -80.78315414     0.00000101    -0.00000141  0.28D-09  0.20D-08  6  6     6.19
   7      1.15612520    -0.38437824   -80.78315435    -0.00000022    -0.00000002  0.24D-10  0.13D-09  6  1     7.13
   8      1.15612527    -0.38437825   -80.78315437    -0.00000002    -0.00000007  0.24D-11  0.96D-11  6  2     8.05
   9      1.15612521    -0.38437826   -80.78315438    -0.00000000     0.00000003  0.45D-12  0.75D-12  6  3     8.97
  10      1.15612517    -0.38437826   -80.78315438    -0.00000000     0.00000002  0.36D-13  0.66D-13  6  4     9.90
  11      1.15612515    -0.38437826   -80.78315438    -0.00000000     0.00000002  0.33D-14  0.72D-14  6  5    10.83
  12      1.15612513    -0.38437826   -80.78315438    -0.00000000     0.00000001  0.28D-15  0.86D-15  6  6    11.75
  13      1.15612513    -0.38437826   -80.78315438    -0.00000000     0.00000000  0.23D-16  0.10D-15  6  1    12.67
  14      1.15612513    -0.38437826   -80.78315438    -0.00000000     0.00000000  0.26D-17  0.12D-16  6  3    13.59
  15      1.15612513    -0.38437826   -80.78315438    -0.00000000     0.00000000  0.20D-18  0.61D-18  6  2    14.52
  16      1.15612513    -0.38437826   -80.78315438    -0.00000000     0.00000000  0.27D-19  0.47D-19  6  4    15.45
  17      1.15612513    -0.38437826   -80.78315438    -0.00000000     0.00000000  0.33D-20  0.60D-20  6  5    16.37
  18      1.15612513    -0.38437826   -80.78315438    -0.00000000     0.00000000  0.39D-21  0.50D-21  6  6    17.30

 Norm of t1 vector:      0.03916545      S-energy:    -0.00000000      T1 diagnostic:  0.00692354
                                                                       D1 diagnostic:  0.01253665


 Total CPU time for triples:     10.54 sec


 RESULTS
 =======

  Reference energy                    -80.398776119274
  CCSD singlet pair energy             -0.290156934619
  CCSD triplet pair energy             -0.094221325189
  CCSD correlation energy              -0.384378259809

  Triples (T) contribution             -0.009219495612
  Total correlation energy             -0.393597755421

  CCSD total energy                   -80.783154379084
  CCSD[T] energy                      -80.792594805377
  CCSD-T energy                       -80.792256645105
 !CCSD(T) total energy                -80.792373874695

 Timing summary (sec):

 STEP                 CPU(USER)    SYS     CPU(TOT)    WALL
 Transformation          0.73      0.09      0.82      0.83
 CCSD iterations        16.57      0.85     17.42     17.47
 Triples                10.54      0.23     10.77     10.76

 Program statistics:

 Available memory in ccsd:               999999644
 Min. memory needed in ccsd:               1156281
 Max. memory used in ccsd:                 1468601
 Max. memory used in cckext:               1135046 (18 integral passes)



 **********************************************************************************************************************************
 DATASETS  * FILE   NREC   LENGTH (MB)   RECORD NAMES
              1      20      236.69       500      610      700      900      950      970     1000      129      960     1100   
                                          VAR    BASINP    GEOM    SYMINP    ZMAT    AOBASIS   BASIS     P2S    ABASIS      S 
                                         1400     1410     1200     1210     1080     1600     1650     1300     1700     1380   
                                           T        V       H0       H01     AOSYM     SMH    MOLCAS    ERIS     OPER     JKOP   

              2       3        0.70       700     1000     2100   
                                         GEOM     BASIS     RHF  

 PROGRAMS   *        TOTAL   CCSD(T)       RHF       INT
 CPU TIMES  *        32.27     27.85      2.76      1.61
 REAL TIME  *        34.52 SEC
 DISK USED  *       700.75 MB      
 GA USED    *         0.00 MB       (max)       0.00 MB       (current)
 **********************************************************************************************************************************

        CCSD(T)         RHF-SCF 
    -80.79237387    -80.39877612
 **********************************************************************************************************************************
 Variable memory released
