
 Primary working directories    : /tmp/1011203.193.gen4.q
 Secondary working directories  : /tmp/1011203.193.gen4.q
 Wavefunction directory         : /home/vulcan/mel64643/wfu/
 Main file repository           : /tmp/1011203.193.gen4.q/

 ARCHNAME  : Linux/x86_64
 FC        : /opt/intel/compilers_and_libraries_2016.1.150/linux/bin/intel64/ifort
 FCVERSION : 16.0.1
 BLASLIB   : -mkl
 id        : ccgc

 Nodes     nprocs
 n054         1
 ga_uses_ma=false, calling ma_init with nominal heap.
 GA-space will be limited to   8.0 MW (determined by -G option)

 Using customized tuning parameters: mindgm=10; mindgv=16; mindgc=4; mindgr=1; noblas=0; mincuda=1000; minvec=7
 default implementation of scratch files=df  

 ***,Optimization of c2h4_2
 memory,1000,m
 gthresh,energy=1.0d-12,orbital=1.0d-10,oneint=1.0d-16,twoint=1.0d-16,optgrad=1.0d-6,compress=1.0d-13
 geomtyp=xyz
 
 
 
 bohr
 geometry = {
  C   -1.2657360630    0.0001558160   -3.4913228412
  C    1.2635795931    0.0001557941   -3.4916552830
  H   -2.3391013791    0.0003858274   -1.7500280654
  H    2.3411146287    0.0003865821   -1.7446243436
  H   -2.3339396599   -0.0000745289   -5.2350066920
  H    2.3350170045   -0.0000753658   -5.2416504243
  C   -0.0001558160    1.2657359722    3.4913031386
  C   -0.0001557941   -1.2635795019    3.4916355796
  H   -0.0003858272    2.3391030008    1.7500098133
  H   -0.0003865819   -2.3411162551    1.7446060946
  H    0.0000745289    2.3339383282    5.2349876831
  H    0.0000753658   -2.3350156691    5.2416314163
 }
 
 basis=aug-cc-pvdz, H=cc-pvdz
 {rhf;maxit,200}
 {mp2}

 Variables initialized (661), CPU time= 0.00 sec
 Commands  initialized (458), CPU time= 0.00 sec, 486 directives.
 Default parameters read. Elapsed time= 0.05 sec

 Checking input...
 Passed
1


                                         ***  PROGRAM SYSTEM MOLPRO  ***
                         Copyright, University College Cardiff Consultants Limited, 2008

                                    Version 2010.1 linked May 16 2016 07:17:05


 **********************************************************************************************************************************
 LABEL *   Optimization of c2h4_2                                                        
 Linux-4.4.3/n054(x86_64) 64 bit mpp version                                             DATE: 25-Feb-24          TIME: 14:26:22  
 **********************************************************************************************************************************

 SHA1:             9e8077add272b0f3cad6f7df79ec5211205f459d
 **********************************************************************************************************************************

 THRESHOLDS:

 ZERO    =  1.00D-12  ONEINT  =  1.00D-16  TWOINT  =  1.00D-16  PREFAC  =  1.00D-14  LOCALI  =  1.00D-09  EORDER  =  1.00D-04
 ENERGY  =  1.00D-12  ETEST   =  0.00D+00  EDENS   =  0.00D+00  THRDEDEF=  1.00D-06  GRADIENT=  1.00D-02  STEP    =  1.00D-03
 ORBITAL =  1.00D-10  CIVEC   =  1.00D-05  COEFF   =  1.00D-04  PRINTCI =  5.00D-02  PUNCHCI =  9.90D+01  OPTGRAD =  1.00D-06
 OPTENERG=  1.00D-06  OPTSTEP =  3.00D-04  THRGRAD =  1.00D-10  COMPRESS=  1.00D-13  VARMIN  =  1.00D-07  VARMAX  =  1.00D-03
 THRDOUB =  0.00D+00  THRDIV  =  1.00D-05  THRRED  =  1.00D-07  THRPSP  =  1.00D+00  THRDC   =  1.00D-10  THRCS   =  1.00D-10
 THRNRM  =  1.00D-08  THREQ   =  0.00D+00  THRDE   =  1.00D+00  THRREF  =  1.00D-05  SPARFAC =  1.00D+00  THRDLP  =  1.00D-07
 THRDIA  =  1.00D-10  THRDLS  =  1.00D-07  THRGPS  =  0.00D+00  THRKEX  =  0.00D+00  THRDIS  =  2.00D-01  THRVAR  =  1.00D-10
 THRLOC  =  1.00D-06  THRGAP  =  1.00D-06  THRLOCT = -1.00D+00  THRGAPT = -1.00D+00  THRORB  =  1.00D-06  THRMLTP =  0.00D+00
 THRCPQCI=  1.00D-10  KEXTA   =  0.00D+00  THRCOARS=  0.00D+00  SYMTOL  =  1.00D-06  GRADTOL =  1.00D-06  THROVL  =  1.00D-08
 THRORTH =  1.00D-08  GRID    =  1.00D-06  GRIDMAX =  1.00D-03  DTMAX   =  0.00D+00

 SETTING GEOMTYP        =    XYZ
 ZUNIT=BOHR
 

 Variable memory set to 1000000000 words,  buffer space   230000 words

 SETTING BASIS          =    AUG-CC-PVDZ,H=CC-PVDZ


 Recomputing integrals since basis changed


 Using spherical harmonics

 Library entry C      S aug-cc-pVDZ          selected for orbital group  1
 Library entry C      P aug-cc-pVDZ          selected for orbital group  1
 Library entry C      D aug-cc-pVDZ          selected for orbital group  1
 Library entry H      S cc-pVDZ              selected for orbital group  2
 Library entry H      P cc-pVDZ              selected for orbital group  2

1PROGRAM * SEWARD (Integral evaluation for generally contracted gaussian basis sets)     Author: Roland Lindh, 1990

 Geometry written to block  1 of record 700


 Point group  C1  



 ATOMIC COORDINATES

 NR  ATOM    CHARGE       X              Y              Z

   1  C       6.00   -1.265736063    0.000155816   -3.491322841
   2  C       6.00    1.263579593    0.000155794   -3.491655283
   3  H       1.00   -2.339101379    0.000385827   -1.750028065
   4  H       1.00    2.341114629    0.000386582   -1.744624344
   5  H       1.00   -2.333939660   -0.000074529   -5.235006692
   6  H       1.00    2.335017005   -0.000075366   -5.241650424
   7  C       6.00   -0.000155816    1.265735972    3.491303139
   8  C       6.00   -0.000155794   -1.263579502    3.491635580
   9  H       1.00   -0.000385827    2.339103001    1.750009813
  10  H       1.00   -0.000386582   -2.341116255    1.744606095
  11  H       1.00    0.000074529    2.333938328    5.234987683
  12  H       1.00    0.000075366   -2.335015669    5.241631416

 Bond lengths in Bohr (Angstrom)

 1-2  2.529315678  1-3  2.045536764  1-5  2.044869763  2-4  2.052607831  2-6  2.051940831
     ( 1.338456211)     ( 1.082451435)     ( 1.082098474)     ( 1.086193283)     ( 1.085840322)

  7- 8  2.529315496   7- 9  2.045536427   7-11  2.044869707   8-10  2.052607495   8-12  2.051940775
       ( 1.338456115)       ( 1.082451258)       ( 1.082098444)       ( 1.086193105)       ( 1.085840292)

 Bond angles

  1-2-4  121.65795516   1-2-6  121.48465118   2-1-3  121.65795516   2-1-5  121.48465117

  3- 1- 5  116.85739367   4- 2- 6  116.85739367   7- 8-10  121.65801729   7- 8-12  121.48461139

  8- 7- 9  121.65801730   8- 7-11  121.48461139   9- 7-11  116.85737132  10- 8-12  116.85737132

 NUCLEAR CHARGE:                   32
 NUMBER OF PRIMITIVE AOS:         204
 NUMBER OF SYMMETRY AOS:          196
 NUMBER OF CONTRACTIONS:          132   ( 132A   )
 NUMBER OF CORE ORBITALS:           4   (   4A   )
 NUMBER OF VALENCE ORBITALS:       24   (  24A   )


 NUCLEAR REPULSION ENERGY  102.21197828


 Eigenvalues of metric

         1 0.173E-03 0.173E-03 0.332E-03 0.332E-03 0.550E-02 0.550E-02 0.589E-02 0.671E-02


 Contracted 2-electron integrals neglected if value below      1.0D-16
 AO integral compression algorithm  1   Integral accuracy      1.0D-16

     318.243 MB (compressed) written to integral file ( 90.6%)

     Node minimum: 318.243 MB, node maximum: 318.243 MB


 NUMBER OF SORTED TWO-ELECTRON INTEGRALS:   38531031.     BUFFER LENGTH:  32768
 NUMBER OF SEGMENTS:   3  SEGMENT LENGTH:   15998004      RECORD LENGTH: 524288

 Memory used in sort:      16.56 MW

 SORT1 READ    43892337. AND WROTE    37988003. INTEGRALS IN    110 RECORDS. CPU TIME:     0.44 SEC, REAL TIME:     1.13 SEC
 SORT2 READ    37988003. AND WROTE    38531031. INTEGRALS IN   1214 RECORDS. CPU TIME:     0.35 SEC, REAL TIME:     0.48 SEC

 FILE SIZES:   FILE 1:   284.0 MBYTE,  FILE 4:   461.4 MBYTE,   TOTAL:    745.4 MBYTE

 OPERATOR DM      FOR CENTER  0  COORDINATES:    0.000000    0.000000    0.000000


 **********************************************************************************************************************************
 DATASETS  * FILE   NREC   LENGTH (MB)   RECORD NAMES
              1      19      284.23       500      610      700      900      950      970     1000      129      960     1100   
                                          VAR    BASINP    GEOM    SYMINP    ZMAT    AOBASIS   BASIS     P2S    ABASIS      S 
                                         1400     1410     1200     1210     1080     1600     1650     1300     1700   
                                           T        V       H0       H01     AOSYM     SMH    MOLCAS    ERIS     OPER   

 PROGRAMS   *        TOTAL       INT
 CPU TIMES  *         2.93      2.89
 REAL TIME  *         4.11 SEC
 DISK USED  *         1.06 GB      
 GA USED    *         0.00 MB       (max)       0.00 MB       (current)
 **********************************************************************************************************************************

1PROGRAM * RHF-SCF (CLOSED SHELL)       Authors: W. Meyer, H.-J. Werner


 NUMBER OF ELECTRONS:      16+   16-    SPACE SYMMETRY=1    SPIN SYMMETRY: Singlet 
 CONVERGENCE THRESHOLDS:    1.00E-10 (Density)    1.00E-13 (Energy)
 MAX. NUMBER OF ITERATIONS:      200
 INTERPOLATION TYPE:            DIIS
 INTERPOLATION STEPS:              2 (START)      1 (STEP)
 LEVEL SHIFTS:                  0.00 (CLOSED)  0.00 (OPEN) 



 Orbital guess generated from atomic densities. Full valence occupancy:   28

 Molecular orbital dump at record        2100.2

 ITERATION    DDIFF          GRAD             ENERGY        2-EL.EN.            DIPOLE MOMENTS         DIIS
    1      0.000D+00      0.000D+00      -156.03859543    307.047141    0.00529   -0.00529    0.00000    0
    2      0.000D+00      0.347D-02      -156.07903815    304.314935   -0.00188    0.00188    0.00000    1
    3      0.712D-02      0.117D-02      -156.08310110    305.439265    0.00051   -0.00051    0.00000    2
    4      0.225D-02      0.355D-03      -156.08367216    305.152368   -0.00103    0.00103    0.00000    3
    5      0.797D-03      0.442D-04      -156.08368296    305.166847   -0.00055    0.00055    0.00000    4
    6      0.111D-03      0.753D-05      -156.08368338    305.165452   -0.00100    0.00100    0.00000    5
    7      0.192D-04      0.255D-05      -156.08368341    305.165301   -0.00077    0.00077    0.00000    6
    8      0.538D-05      0.941D-06      -156.08368341    305.165346   -0.00085    0.00085    0.00000    7
    9      0.211D-05      0.135D-06      -156.08368341    305.165348   -0.00085    0.00085    0.00000    6
   10      0.418D-06      0.243D-07      -156.08368341    305.165351   -0.00085    0.00085    0.00000    6
   11      0.711D-07      0.667D-08      -156.08368341    305.165351   -0.00085    0.00085    0.00000    6
   12      0.178D-07      0.271D-08      -156.08368341    305.165351   -0.00085    0.00085    0.00000    7
   13      0.845D-08      0.916D-09      -156.08368341    305.165351   -0.00085    0.00085    0.00000    7
   14      0.310D-08      0.251D-09      -156.08368341    305.165351   -0.00085    0.00085    0.00000    7
   15      0.739D-09      0.663D-10      -156.08368341    305.165351   -0.00085    0.00085    0.00000    7
   16      0.270D-09      0.174D-10      -156.08368341    305.165351   -0.00085    0.00085    0.00000    7
   17      0.585D-10      0.634D-11      -156.08368341    305.165351   -0.00085    0.00085    0.00000    8
   18      0.187D-10      0.329D-12      -156.08368341    305.165351   -0.00085    0.00085    0.00000    7
   19      0.273D-11      0.150D-12      -156.08368341    305.165351   -0.00085    0.00085    0.00000    6
   20      0.364D-11      0.821D-13      -156.08368341    305.165351   -0.00085    0.00085    0.00000    7
   21      0.212D-11      0.925D-13      -156.08368341    305.165351   -0.00085    0.00085    0.00000    7
   22      0.127D-11      0.576D-13      -156.08368341    305.165351   -0.00085    0.00085    0.00000    8
   23      0.107D-11      0.697D-13      -156.08368341    305.165351   -0.00085    0.00085    0.00000    9
   24      0.661D-12      0.613D-13      -156.08368341    305.165351   -0.00085    0.00085    0.00000    9
   25      0.374D-12      0.684D-13      -156.08368341    305.165351   -0.00085    0.00085    0.00000    0

 Final occupancy:  16

 !RHF STATE 1.1 Energy               -156.083683414240
 Nuclear energy                       102.21197828
 One-electron energy                 -410.87833727
 Two-electron energy                  152.58267557
 Virial quotient                       -1.00199935
 !RHF STATE 1.1 Dipole moment          -0.00085297     0.00085297     0.00000008
 Dipole moment /Debye                  -0.00216790     0.00216790     0.00000020

 Orbital energies:

         1.1          2.1          3.1          4.1          5.1          6.1          7.1          8.1          9.1         10.1
    -11.241918   -11.241915   -11.240129   -11.240129    -1.038523    -1.032714    -0.795070    -0.795070    -0.656304    -0.630839

        11.1         12.1         13.1         14.1         15.1         16.1         17.1         18.1
     -0.588807    -0.585530    -0.508448    -0.508447    -0.376325    -0.376325     0.068993     0.068993


 **********************************************************************************************************************************
 DATASETS  * FILE   NREC   LENGTH (MB)   RECORD NAMES
              1      19      284.23       500      610      700      900      950      970     1000      129      960     1100   
                                          VAR    BASINP    GEOM    SYMINP    ZMAT    AOBASIS   BASIS     P2S    ABASIS      S 
                                         1400     1410     1200     1210     1080     1600     1650     1300     1700   
                                           T        V       H0       H01     AOSYM     SMH    MOLCAS    ERIS     OPER   

              2       3        0.81       700     1000     2100   
                                         GEOM     BASIS     RHF  

 PROGRAMS   *        TOTAL       RHF       INT
 CPU TIMES  *        10.50      7.57      2.89
 REAL TIME  *        12.53 SEC
 DISK USED  *         1.06 GB      
 GA USED    *         0.00 MB       (max)       0.00 MB       (current)
 **********************************************************************************************************************************


1PROGRAM * MP2 (Closed-shell)     Authors: C. Hampel, H.-J. Werner, 1991, M. Deegan, P.J. Knowles, 1992


 Convergence thresholds:  THRVAR = 1.00D-08  THRDEN = 1.00D-12

 Number of core orbitals:           4 (   4 )
 Number of closed-shell orbitals:  12 (  12 )
 Number of external orbitals:     116 ( 116 )

 Molecular orbitals read from record     2100.2  Type=RHF/CANONICAL (state 1.1)

 Number of N-1 electron functions:              12
 Number of N-2 electron functions:              78
 Number of singly external CSFs:              1392
 Number of doubly external CSFs:            969528
 Total number of CSFs:                      970921

 Length of J-op  integral file:               0.00 MB
 Length of K-op  integral file:               1.24 MB

 Integral transformation finished. Total CPU:   0.68 sec, npass=  1  Memory used:   2.65 MW

 Memory needed for MP2:                      0.08 MW

 SCS-MP2 correlation energy:           -0.573940185546   (PS=  1.200000  PT=  0.333333)
 SCS-MP2 total energy:               -156.657623599787


  Reference energy                   -156.083683414241
  MP2 singlet pair energy              -0.379795929221
  MP2 triplet pair energy              -0.189940291844
  MP2 correlation energy               -0.569736221065

 !MP2 total energy                   -156.653419635306


 **********************************************************************************************************************************
 DATASETS  * FILE   NREC   LENGTH (MB)   RECORD NAMES
              1      20      300.94       500      610      700      900      950      970     1000      129      960     1100   
                                          VAR    BASINP    GEOM    SYMINP    ZMAT    AOBASIS   BASIS     P2S    ABASIS      S 
                                         1400     1410     1200     1210     1080     1600     1650     1300     1700     1380   
                                           T        V       H0       H01     AOSYM     SMH    MOLCAS    ERIS     OPER     JKOP   

              2       3        0.81       700     1000     2100   
                                         GEOM     BASIS     RHF  

 PROGRAMS   *        TOTAL       MP2       RHF       INT
 CPU TIMES  *        11.23      0.73      7.57      2.89
 REAL TIME  *        13.35 SEC
 DISK USED  *         1.06 GB      
 GA USED    *         0.00 MB       (max)       0.00 MB       (current)
 **********************************************************************************************************************************

        MP2             RHF-SCF 
   -156.65341964   -156.08368341
 **********************************************************************************************************************************
 Variable memory released
