
 Primary working directories    : /tmp/1059987.269.gen4.q
 Secondary working directories  : /tmp/1059987.269.gen4.q
 Wavefunction directory         : /home/vulcan/jj04645/wfu/
 Main file repository           : /tmp/1059987.269.gen4.q/

 ARCHNAME  : Linux/x86_64
 FC        : /opt/intel/compilers_and_libraries_2016.1.150/linux/bin/intel64/ifort
 FCVERSION : 16.0.1
 BLASLIB   : -mkl
 id        : ccgc

 Nodes     nprocs
 n067         1
 ga_uses_ma=false, calling ma_init with nominal heap.
 GA-space will be limited to   8.0 MW (determined by -G option)

 Using customized tuning parameters: mindgm=10; mindgv=16; mindgc=4; mindgr=1; noblas=0; mincuda=1000; minvec=7
 default implementation of scratch files=df  

 ***,Optimization of 1_4_cyclohexadiene
 memory,1000,m
 gthresh,energy=1.0d-12,orbital=1.0d-10,oneint=1.0d-16,twoint=1.0d-16,optgrad=1.0d-6,compress=1.0d-13
 geomtyp=xyz
 
 bohr
 geometry = {
  H    4.1055322420   -0.0021167823   -1.6465766965
  C    2.8449180141   -0.0000000000   -0.0000000000
  C   -1.2664400719    2.3647830392    0.0030374976
  C   -1.2664400719   -2.3647830392   -0.0030374976
  C   -2.8372472116   -0.0000000000    0.0000000000
  C    1.2637702038   -2.3699123149    0.0030466776
  C    1.2637702038    2.3699123149   -0.0030466776
  H   -2.2724598398    4.1520053553    0.0106197172
  H    2.2643507257    4.1601855435   -0.0106134916
  H   -4.0985886611    0.0021142662   -1.6460196863
  H    2.2643507257   -4.1601855435    0.0106134916
  H   -2.2724598398   -4.1520053553   -0.0106197172
  H    4.1055322420    0.0021167823    1.6465766965
  H   -4.0985886611   -0.0021142662    1.6460196863
 }
 
 basis=VDZ
 {rhf;maxit,200}
 {ccsd(t);maxit,200}

 Variables initialized (661), CPU time= 0.00 sec
 Commands  initialized (458), CPU time= 0.01 sec, 486 directives.
 Default parameters read. Elapsed time= 0.05 sec

 Checking input...
 Passed
1


                                         ***  PROGRAM SYSTEM MOLPRO  ***
                         Copyright, University College Cardiff Consultants Limited, 2008

                                    Version 2010.1 linked May 16 2016 07:17:05


 **********************************************************************************************************************************
 LABEL *   Optimization of 1_4_cyclohexadiene                                            
 Linux-4.4.3/n067(x86_64) 64 bit mpp version                                             DATE: 06-May-24          TIME: 14:54:37  
 **********************************************************************************************************************************

 SHA1:             9e8077add272b0f3cad6f7df79ec5211205f459d
 **********************************************************************************************************************************

 THRESHOLDS:

 ZERO    =  1.00D-12  ONEINT  =  1.00D-16  TWOINT  =  1.00D-16  PREFAC  =  1.00D-14  LOCALI  =  1.00D-09  EORDER  =  1.00D-04
 ENERGY  =  1.00D-12  ETEST   =  0.00D+00  EDENS   =  0.00D+00  THRDEDEF=  1.00D-06  GRADIENT=  1.00D-02  STEP    =  1.00D-03
 ORBITAL =  1.00D-10  CIVEC   =  1.00D-05  COEFF   =  1.00D-04  PRINTCI =  5.00D-02  PUNCHCI =  9.90D+01  OPTGRAD =  1.00D-06
 OPTENERG=  1.00D-06  OPTSTEP =  3.00D-04  THRGRAD =  1.00D-10  COMPRESS=  1.00D-13  VARMIN  =  1.00D-07  VARMAX  =  1.00D-03
 THRDOUB =  0.00D+00  THRDIV  =  1.00D-05  THRRED  =  1.00D-07  THRPSP  =  1.00D+00  THRDC   =  1.00D-10  THRCS   =  1.00D-10
 THRNRM  =  1.00D-08  THREQ   =  0.00D+00  THRDE   =  1.00D+00  THRREF  =  1.00D-05  SPARFAC =  1.00D+00  THRDLP  =  1.00D-07
 THRDIA  =  1.00D-10  THRDLS  =  1.00D-07  THRGPS  =  0.00D+00  THRKEX  =  0.00D+00  THRDIS  =  2.00D-01  THRVAR  =  1.00D-10
 THRLOC  =  1.00D-06  THRGAP  =  1.00D-06  THRLOCT = -1.00D+00  THRGAPT = -1.00D+00  THRORB  =  1.00D-06  THRMLTP =  0.00D+00
 THRCPQCI=  1.00D-10  KEXTA   =  0.00D+00  THRCOARS=  0.00D+00  SYMTOL  =  1.00D-06  GRADTOL =  1.00D-06  THROVL  =  1.00D-08
 THRORTH =  1.00D-08  GRID    =  1.00D-06  GRIDMAX =  1.00D-03  DTMAX   =  0.00D+00

 SETTING GEOMTYP        =    XYZ
 ZUNIT=BOHR
 

 Variable memory set to 1000000000 words,  buffer space   230000 words

 SETTING BASIS          =    VDZ


 Recomputing integrals since basis changed


 Using spherical harmonics

 Library entry H      S cc-pVDZ              selected for orbital group  1
 Library entry H      P cc-pVDZ              selected for orbital group  1
 Library entry C      S cc-pVDZ              selected for orbital group  2
 Library entry C      P cc-pVDZ              selected for orbital group  2
 Library entry C      D cc-pVDZ              selected for orbital group  2

1PROGRAM * SEWARD (Integral evaluation for generally contracted gaussian basis sets)     Author: Roland Lindh, 1990

 Geometry written to block  1 of record 700


 Point group  C2  



 ATOMIC COORDINATES

 NR  ATOM    CHARGE       X              Y              Z

   1  H       1.00    4.105532242   -0.002116782   -1.646576696
   2  H       1.00    4.105532242    0.002116782    1.646576696
   3  C       6.00    2.844918014    0.000000000    0.000000000
   4  C       6.00   -1.266440072    2.364783039    0.003037498
   5  C       6.00   -1.266440072   -2.364783039   -0.003037498
   6  C       6.00   -2.837247212    0.000000000    0.000000000
   7  C       6.00    1.263770204   -2.369912315    0.003046678
   8  C       6.00    1.263770204    2.369912315   -0.003046678
   9  H       1.00   -2.272459840    4.152005355    0.010619717
  10  H       1.00   -2.272459840   -4.152005355   -0.010619717
  11  H       1.00    2.264350726    4.160185543   -0.010613492
  12  H       1.00    2.264350726   -4.160185543    0.010613492
  13  H       1.00   -4.098588661    0.002114266   -1.646019686
  14  H       1.00   -4.098588661   -0.002114266    1.646019686

 Bond lengths in Bohr (Angstrom)

 1-3  2.073732753  2-3  2.073732753  3-7  2.848951046  3-8  2.848951046  4-6  2.838951060
     ( 1.097372110)     ( 1.097372110)     ( 1.507599963)     ( 1.507599963)     ( 1.502308198)

  4- 8  2.530222790   4- 9  2.050925857   5- 6  2.838951060   5- 7  2.530222790   5-10  2.050925857
       ( 1.338936234)       ( 1.085303221)       ( 1.502308198)       ( 1.338936234)       ( 1.085303221)

  6-13  2.073732753   6-14  2.073732753   7-12  2.050925857   8-11  2.050925857
       ( 1.097372110)       ( 1.097372110)       ( 1.085303221)       ( 1.085303221)

 Bond angles

  1-3-2  105.12492327   1-3-7  109.71721467   1-3-8  109.71721467   2-3-7  109.71721467

  2- 3- 8  109.71721467   3- 7- 5  123.59379336   3- 7-12  117.08903803   3- 8- 4  123.59379336

  3- 8-11  117.08903803   4- 6- 5  112.81184271   4- 6-13  109.66659610   4- 6-14  109.66659610

  4- 8-11  119.31716862   5- 6-13  109.66659610   5- 6-14  109.66659610   5- 7-12  119.31716862

  6- 4- 8  123.70994143   6- 4- 9  117.03096399   6- 5- 7  123.70994143   6- 5-10  117.03096399

  7- 3- 8  112.57953846   7- 5-10  119.25909458   8- 4- 9  119.25909458  13- 6-14  105.07430463

 NUCLEAR CHARGE:                   44
 NUMBER OF PRIMITIVE AOS:         218
 NUMBER OF SYMMETRY AOS:          212
 NUMBER OF CONTRACTIONS:          124   (  64A   +  60B   )
 NUMBER OF CORE ORBITALS:           6   (   4A   +   2B   )
 NUMBER OF VALENCE ORBITALS:       32   (  16A   +  16B   )


 NUCLEAR REPULSION ENERGY  217.75828396


 Eigenvalues of metric

         1 0.670E-03 0.315E-02 0.345E-02 0.163E-01 0.182E-01 0.259E-01 0.273E-01 0.320E-01
         2 0.169E-02 0.432E-02 0.562E-02 0.143E-01 0.227E-01 0.257E-01 0.312E-01 0.356E-01


 Contracted 2-electron integrals neglected if value below      1.0D-16
 AO integral compression algorithm  1   Integral accuracy      1.0D-16

     130.548 MB (compressed) written to integral file ( 91.6%)

     Node minimum: 130.548 MB, node maximum: 130.548 MB


 NUMBER OF SORTED TWO-ELECTRON INTEGRALS:   15258805.     BUFFER LENGTH:  32768
 NUMBER OF SEGMENTS:   1  SEGMENT LENGTH:   15258805      RECORD LENGTH: 524288

 Memory used in sort:      15.82 MW

 SORT1 READ    17792745. AND WROTE    15163193. INTEGRALS IN     44 RECORDS. CPU TIME:     0.20 SEC, REAL TIME:     0.28 SEC
 SORT2 READ    15163193. AND WROTE    15258805. INTEGRALS IN    498 RECORDS. CPU TIME:     0.19 SEC, REAL TIME:     0.26 SEC

 FILE SIZES:   FILE 1:   117.1 MBYTE,  FILE 4:   184.6 MBYTE,   TOTAL:    301.7 MBYTE

 OPERATOR DM      FOR CENTER  0  COORDINATES:    0.000000    0.000000    0.000000


 **********************************************************************************************************************************
 DATASETS  * FILE   NREC   LENGTH (MB)   RECORD NAMES
              1      19      117.19       500      610      700      900      950      970     1000      129      960     1100   
                                          VAR    BASINP    GEOM    SYMINP    ZMAT    AOBASIS   BASIS     P2S    ABASIS      S 
                                         1400     1410     1200     1210     1080     1600     1650     1300     1700   
                                           T        V       H0       H01     AOSYM     SMH    MOLCAS    ERIS     OPER   

 PROGRAMS   *        TOTAL       INT
 CPU TIMES  *         2.63      2.59
 REAL TIME  *         3.02 SEC
 DISK USED  *       433.16 MB      
 GA USED    *         0.00 MB       (max)       0.00 MB       (current)
 **********************************************************************************************************************************

1PROGRAM * RHF-SCF (CLOSED SHELL)       Authors: W. Meyer, H.-J. Werner


 NUMBER OF ELECTRONS:      22+   22-
 CONVERGENCE THRESHOLDS:    1.00E-10 (Density)    1.00E-13 (Energy)
 MAX. NUMBER OF ITERATIONS:      200
 INTERPOLATION TYPE:            DIIS
 INTERPOLATION STEPS:              2 (START)      1 (STEP)
 LEVEL SHIFTS:                  0.00 (CLOSED)  0.00 (OPEN) 



 Orbital guess generated from atomic densities. Full valence occupancy:   20  18

 Molecular orbital dump at record        2100.2

 Initial alpha occupancy:  12  10
 Initial beta  occupancy:  12  10
 Wave function symmetry:    1

 ITERATION    DDIFF          GRAD             ENERGY        2-EL.EN.            DIPOLE MOMENTS         DIIS
    1      0.000D+00      0.000D+00      -231.78149825    590.482777   -0.00565    0.00000    0.00000    0
    2      0.000D+00      0.638D-02      -231.84385146    585.626555   -0.00544    0.00000    0.00000    1
    3      0.127D-01      0.251D-02      -231.85140588    587.951321   -0.00214    0.00000    0.00000    2
    4      0.475D-02      0.853D-03      -231.85264897    587.340908   -0.00343    0.00000    0.00000    3
    5      0.174D-02      0.870D-04      -231.85266732    587.345983   -0.00242    0.00000    0.00000    4
    6      0.325D-03      0.189D-04      -231.85266792    587.342931   -0.00314    0.00000    0.00000    5
    7      0.456D-04      0.643D-05      -231.85266798    587.343909   -0.00279    0.00000    0.00000    6
    8      0.179D-04      0.139D-05      -231.85266799    587.343855   -0.00295    0.00000    0.00000    7
    9      0.429D-05      0.572D-06      -231.85266799    587.343835   -0.00287    0.00000    0.00000    7
   10      0.117D-05      0.148D-06      -231.85266799    587.343860   -0.00289    0.00000    0.00000    7
   11      0.445D-06      0.252D-07      -231.85266799    587.343856   -0.00289    0.00000    0.00000    7
   12      0.844D-07      0.396D-08      -231.85266799    587.343857   -0.00289    0.00000    0.00000    7
   13      0.120D-07      0.992D-09      -231.85266799    587.343857   -0.00289    0.00000    0.00000    6
   14      0.313D-08      0.349D-09      -231.85266799    587.343857   -0.00289    0.00000    0.00000    7
   15      0.839D-09      0.129D-09      -231.85266799    587.343857   -0.00289    0.00000    0.00000    7
   16      0.338D-09      0.390D-10      -231.85266799    587.343857   -0.00289    0.00000    0.00000    6
   17      0.121D-09      0.119D-10      -231.85266799    587.343857   -0.00289    0.00000    0.00000    7
   18      0.361D-10      0.385D-11      -231.85266799    587.343857   -0.00289    0.00000    0.00000    7
   19      0.986D-11      0.931D-12      -231.85266799    587.343857   -0.00289    0.00000    0.00000    8
   20      0.306D-11      0.245D-12      -231.85266799    587.343857   -0.00289    0.00000    0.00000    8
   21      0.771D-12      0.108D-12      -231.85266799    587.343857   -0.00289    0.00000    0.00000    8
   22      0.558D-12      0.532D-13      -231.85266799    587.343857   -0.00289    0.00000    0.00000    8
   23      0.386D-12      0.391D-13      -231.85266799    587.343857   -0.00289    0.00000    0.00000    8
   24      0.238D-12      0.315D-13      -231.85266799    587.343857   -0.00289    0.00000    0.00000    0

 Final occupancy:  12  10

 !RHF STATE 1.1 Energy               -231.852667988121
 Nuclear energy                       217.75828396
 One-electron energy                 -743.28288034
 Two-electron energy                  293.67192839
 Virial quotient                       -1.00115547
 !RHF STATE 1.1 Dipole moment          -0.00288541     0.00000000     0.00000000
 Dipole moment /Debye                  -0.00733349     0.00000000     0.00000000

 Orbital energies:

         1.1          2.1          3.1          4.1          5.1          6.1          7.1          8.1          9.1         10.1
    -11.234130   -11.233426   -11.229240   -11.227613    -1.122186    -1.004914    -0.861946    -0.678375    -0.654607    -0.531810

        11.1         12.1         13.1         14.1
     -0.490808    -0.358784     0.174472     0.180787

         1.2          2.2          3.2          4.2          5.2          6.2          7.2          8.2          9.2         10.2
    -11.229300   -11.227648    -1.008408    -0.784631    -0.597610    -0.595269    -0.561736    -0.561502    -0.445801    -0.329764

        11.2         12.2
      0.193448     0.223625


 **********************************************************************************************************************************
 DATASETS  * FILE   NREC   LENGTH (MB)   RECORD NAMES
              1      19      117.19       500      610      700      900      950      970     1000      129      960     1100   
                                          VAR    BASINP    GEOM    SYMINP    ZMAT    AOBASIS   BASIS     P2S    ABASIS      S 
                                         1400     1410     1200     1210     1080     1600     1650     1300     1700   
                                           T        V       H0       H01     AOSYM     SMH    MOLCAS    ERIS     OPER   

              2       3        0.65       700     1000     2100   
                                         GEOM     BASIS     RHF  

 PROGRAMS   *        TOTAL       RHF       INT
 CPU TIMES  *         4.61      1.98      2.59
 REAL TIME  *         5.35 SEC
 DISK USED  *       433.16 MB      
 GA USED    *         0.00 MB       (max)       0.00 MB       (current)
 **********************************************************************************************************************************


1PROGRAM * CCSD (Closed-shell coupled cluster)     Authors: C. Hampel, H.-J. Werner, 1991, M. Deegan, P.J. Knowles, 1992


 Convergence thresholds:  THRVAR = 1.00D-08  THRDEN = 1.00D-12

 CCSD(T)     terms to be evaluated (factor= 1.000)


 Number of core orbitals:           6 (   4   2 )
 Number of closed-shell orbitals:  16 (   8   8 )
 Number of external orbitals:     102 (  52  50 )

 Molecular orbitals read from record     2100.2  Type=RHF/CANONICAL (state 1.1)

 Number of N-1 electron functions:              16
 Number of N-2 electron functions:             136
 Number of singly external CSFs:               816
 Number of doubly external CSFs:            666672
 Total number of CSFs:                      667489

 Length of J-op  integral file:               0.00 MB
 Length of K-op  integral file:               0.57 MB
 Length of 3-ext integral record:             0.00 MB

 Memory could be reduced to 11.84 Mwords without degradation in triples

 Integral transformation finished. Total CPU:   0.67 sec, npass=  1  Memory used:   7.36 MW

 Reference energy:                   -231.85266799

 MP2 singlet pair energy:              -0.50639749
 MP2 triplet pair energy:              -0.29378179
 MP2 correlation energy:               -0.80017927
 MP2 total energy:                   -232.65284726

 SCS-MP2 correlation energy:           -0.79047454   (PS=  1.200000  PT=  0.333333)
 SCS-MP2 total energy:               -232.64314253

 ITER.      SQ.NORM     CORR.ENERGY   TOTAL ENERGY   ENERGY CHANGE        DEN1      VAR(S)    VAR(P)  DIIS     TIME
   1      1.31822390    -0.85463286  -232.70730085    -0.05445359    -0.03136126  0.31D-02  0.54D-02  1  1     1.69
   2      1.34642545    -0.86045964  -232.71312763    -0.00582678    -0.02420946  0.68D-04  0.70D-03  2  2     2.77
   3      1.35481339    -0.86077192  -232.71343991    -0.00031228    -0.00386666  0.20D-04  0.69D-04  3  3     3.86
   4      1.35835894    -0.86089286  -232.71356084    -0.00012094    -0.00107860  0.10D-05  0.68D-05  4  4     4.94
   5      1.35919367    -0.86090472  -232.71357271    -0.00001187    -0.00017780  0.50D-07  0.65D-06  5  5     6.03
   6      1.35935086    -0.86089707  -232.71356506     0.00000765    -0.00002571  0.49D-08  0.36D-07  6  6     7.13
   7      1.35936625    -0.86089774  -232.71356572    -0.00000067     0.00000110  0.17D-08  0.32D-08  6  2     8.21
   8      1.35937092    -0.86089760  -232.71356559     0.00000014    -0.00000094  0.56D-10  0.35D-09  6  1     9.30
   9      1.35937096    -0.86089767  -232.71356566    -0.00000007     0.00000044  0.18D-10  0.52D-10  6  3    10.40
  10      1.35937089    -0.86089771  -232.71356570    -0.00000004     0.00000016  0.80D-12  0.82D-11  6  4    11.48
  11      1.35937033    -0.86089774  -232.71356572    -0.00000003     0.00000022  0.85D-13  0.11D-11  6  6    12.56
  12      1.35937023    -0.86089774  -232.71356573    -0.00000001     0.00000005  0.20D-13  0.98D-13  6  5    13.65
  13      1.35937022    -0.86089774  -232.71356573     0.00000000    -0.00000000  0.76D-14  0.15D-13  6  2    14.74
  14      1.35937025    -0.86089774  -232.71356573     0.00000000    -0.00000001  0.55D-15  0.13D-14  6  1    15.83
  15      1.35937025    -0.86089774  -232.71356573     0.00000000    -0.00000000  0.17D-15  0.15D-15  6  3    16.92
  16      1.35937025    -0.86089774  -232.71356573     0.00000000    -0.00000000  0.19D-16  0.24D-16  6  4    18.02
  17      1.35937025    -0.86089774  -232.71356573    -0.00000000     0.00000000  0.35D-17  0.38D-17  6  6    19.11
  18      1.35937025    -0.86089774  -232.71356573    -0.00000000     0.00000000  0.23D-18  0.65D-18  6  5    20.20
  19      1.35937025    -0.86089774  -232.71356573     0.00000000     0.00000000  0.29D-19  0.15D-18  6  2    21.29
  20      1.35937025    -0.86089774  -232.71356573     0.00000000    -0.00000000  0.66D-21  0.26D-19  6  1    22.38
  21      1.35937025    -0.86089774  -232.71356573     0.00000000    -0.00000000  0.14D-21  0.18D-20  6  4    23.47
  22      1.35937025    -0.86089774  -232.71356573     0.00000000    -0.00000000  0.16D-22  0.85D-22  6  3    24.56

 Norm of t1 vector:      0.07885083      S-energy:    -0.00000000      T1 diagnostic:  0.00985635
                                                                       D1 diagnostic:  0.02884843

 Doubles amplitudes (print threshold =  0.500E-01):

         I         J         SYM. A    SYM. B    A         B      T(IJ, AB)

         8         8         1         1         1         1     -0.07458204
        16        16         2         2         1         1     -0.05813889
        16         8         2         1         1         1     -0.06102064


 Total CPU time for triples:     19.17 sec


 RESULTS
 =======

  Reference energy                   -231.852667988121
  CCSD singlet pair energy             -0.593574315319
  CCSD triplet pair energy             -0.267323426725
  CCSD correlation energy              -0.860897742045

  Triples (T) contribution             -0.032225584219
  Total correlation energy             -0.893123326264

  CCSD total energy                  -232.713565730166
  CCSD[T] energy                     -232.746524632498
  CCSD-T energy                      -232.745472520627
 !CCSD(T) total energy               -232.745791314386

 Timing summary (sec):

 STEP                 CPU(USER)    SYS     CPU(TOT)    WALL
 Transformation          0.69      0.08      0.77      0.77
 CCSD iterations        23.87      0.99     24.86     24.94
 Triples                19.17      0.66     19.83     19.84

 Program statistics:

 Available memory in ccsd:               999998876
 Min. memory needed in ccsd:               1784523
 Max. memory used in ccsd:                 2381707
 Max. memory used in cckext:               2454998 (22 integral passes)



 **********************************************************************************************************************************
 DATASETS  * FILE   NREC   LENGTH (MB)   RECORD NAMES
              1      20      164.71       500      610      700      900      950      970     1000      129      960     1100   
                                          VAR    BASINP    GEOM    SYMINP    ZMAT    AOBASIS   BASIS     P2S    ABASIS      S 
                                         1400     1410     1200     1210     1080     1600     1650     1300     1700     1380   
                                           T        V       H0       H01     AOSYM     SMH    MOLCAS    ERIS     OPER     JKOP   

              2       3        0.65       700     1000     2100   
                                         GEOM     BASIS     RHF  

 PROGRAMS   *        TOTAL   CCSD(T)       RHF       INT
 CPU TIMES  *        48.36     43.75      1.98      2.59
 REAL TIME  *        50.94 SEC
 DISK USED  *       433.16 MB      
 GA USED    *         0.00 MB       (max)       0.00 MB       (current)
 **********************************************************************************************************************************

        CCSD(T)         RHF-SCF 
   -232.74579131   -231.85266799
 **********************************************************************************************************************************
 Variable memory released
