
 Primary working directories    : /tmp/856074.399.gen4.q
 Secondary working directories  : /tmp/856074.399.gen4.q
 Wavefunction directory         : /home/vulcan/lo21740/wfu/
 Main file repository           : /tmp/856074.399.gen4.q/

 ARCHNAME  : Linux/x86_64
 FC        : /opt/intel/compilers_and_libraries_2016.1.150/linux/bin/intel64/ifort
 FCVERSION : 16.0.1
 BLASLIB   : -mkl
 id        : ccgc

 Nodes     nprocs
 n021         1
 ga_uses_ma=false, calling ma_init with nominal heap.
 GA-space will be limited to   8.0 MW (determined by -G option)

 Using customized tuning parameters: mindgm=10; mindgv=16; mindgc=4; mindgr=1; noblas=0; mincuda=1000; minvec=7
 default implementation of scratch files=df  

 ***,Optimization of h2o_2
 memory,1000,m
 gthresh,energy=1.0d-12,orbital=1.0d-10,oneint=1.0d-16,twoint=1.0d-16,optgrad=1.0d-6,compress=1.0d-13
 geomtyp=xyz
 
 bohr
 geometry = {
  C   -0.0007233936   -3.4217463000   -0.0006750512
  H   -0.9734285858   -2.7350718064   -1.6809099765
  H   -0.9713217648   -2.7303537629    1.6780808067
  H    1.9415497723   -2.7306772129    0.0004101803
  H    0.0036738336   -5.4815556084    0.0001805225
  C    0.0007233936    3.4217463000    0.0006750512
  H   -0.0036738336    5.4815556084   -0.0001805225
  H    0.9713217648    2.7303537629   -1.6780808067
  H    0.9734285858    2.7350718064    1.6809099765
  H   -1.9415497723    2.7306772129   -0.0004101803
 }
 
 basis=VDZ
 {rhf;maxit,200}
 {ccsd(t);maxit,200}

 Variables initialized (661), CPU time= 0.00 sec
 Commands  initialized (458), CPU time= 0.00 sec, 486 directives.
 Default parameters read. Elapsed time= 0.05 sec

 Checking input...
 Passed
1


                                         ***  PROGRAM SYSTEM MOLPRO  ***
                         Copyright, University College Cardiff Consultants Limited, 2008

                                    Version 2010.1 linked May 16 2016 07:17:05


 **********************************************************************************************************************************
 LABEL *   Optimization of h2o_2                                                         
 Linux-4.4.3/n021(x86_64) 64 bit mpp version                                             DATE: 12-Apr-23          TIME: 13:50:36  
 **********************************************************************************************************************************

 SHA1:             9e8077add272b0f3cad6f7df79ec5211205f459d
 **********************************************************************************************************************************

 THRESHOLDS:

 ZERO    =  1.00D-12  ONEINT  =  1.00D-16  TWOINT  =  1.00D-16  PREFAC  =  1.00D-14  LOCALI  =  1.00D-09  EORDER  =  1.00D-04
 ENERGY  =  1.00D-12  ETEST   =  0.00D+00  EDENS   =  0.00D+00  THRDEDEF=  1.00D-06  GRADIENT=  1.00D-02  STEP    =  1.00D-03
 ORBITAL =  1.00D-10  CIVEC   =  1.00D-05  COEFF   =  1.00D-04  PRINTCI =  5.00D-02  PUNCHCI =  9.90D+01  OPTGRAD =  1.00D-06
 OPTENERG=  1.00D-06  OPTSTEP =  3.00D-04  THRGRAD =  1.00D-10  COMPRESS=  1.00D-13  VARMIN  =  1.00D-07  VARMAX  =  1.00D-03
 THRDOUB =  0.00D+00  THRDIV  =  1.00D-05  THRRED  =  1.00D-07  THRPSP  =  1.00D+00  THRDC   =  1.00D-10  THRCS   =  1.00D-10
 THRNRM  =  1.00D-08  THREQ   =  0.00D+00  THRDE   =  1.00D+00  THRREF  =  1.00D-05  SPARFAC =  1.00D+00  THRDLP  =  1.00D-07
 THRDIA  =  1.00D-10  THRDLS  =  1.00D-07  THRGPS  =  0.00D+00  THRKEX  =  0.00D+00  THRDIS  =  2.00D-01  THRVAR  =  1.00D-10
 THRLOC  =  1.00D-06  THRGAP  =  1.00D-06  THRLOCT = -1.00D+00  THRGAPT = -1.00D+00  THRORB  =  1.00D-06  THRMLTP =  0.00D+00
 THRCPQCI=  1.00D-10  KEXTA   =  0.00D+00  THRCOARS=  0.00D+00  SYMTOL  =  1.00D-06  GRADTOL =  1.00D-06  THROVL  =  1.00D-08
 THRORTH =  1.00D-08  GRID    =  1.00D-06  GRIDMAX =  1.00D-03  DTMAX   =  0.00D+00

 SETTING GEOMTYP        =    XYZ
 ZUNIT=BOHR
 

 Variable memory set to 1000000000 words,  buffer space   230000 words

 SETTING BASIS          =    VDZ


 Recomputing integrals since basis changed


 Using spherical harmonics

 Library entry C      S cc-pVDZ              selected for orbital group  1
 Library entry C      P cc-pVDZ              selected for orbital group  1
 Library entry C      D cc-pVDZ              selected for orbital group  1
 Library entry H      S cc-pVDZ              selected for orbital group  2
 Library entry H      P cc-pVDZ              selected for orbital group  2

1PROGRAM * SEWARD (Integral evaluation for generally contracted gaussian basis sets)     Author: Roland Lindh, 1990

 Geometry written to block  1 of record 700


 Point group  Ci  



 ATOMIC COORDINATES

 NR  ATOM    CHARGE       X              Y              Z

   1  C       6.00   -0.000723394   -3.421746300   -0.000675051
   2  C       6.00    0.000723394    3.421746300    0.000675051
   3  H       1.00   -0.973428586   -2.735071806   -1.680909976
   4  H       1.00    0.973428586    2.735071806    1.680909976
   5  H       1.00   -0.971321765   -2.730353763    1.678080807
   6  H       1.00    0.971321765    2.730353763   -1.678080807
   7  H       1.00    1.941549772   -2.730677213    0.000410180
   8  H       1.00   -1.941549772    2.730677213   -0.000410180
   9  H       1.00    0.003673834   -5.481555608    0.000180522
  10  H       1.00   -0.003673834    5.481555608   -0.000180522

 Bond lengths in Bohr (Angstrom)

 1-3  2.059336460  1-5  2.058714664  1-7  2.061553471  1-9  2.059814180  2-4  2.059336460
     ( 1.089753920)     ( 1.089424880)     ( 1.090927112)     ( 1.090006719)     ( 1.089753920)

  2- 6  2.058714664   2- 8  2.061553471   2-10  2.059814180
       ( 1.089424880)       ( 1.090927112)       ( 1.090006719)

 Bond angles

  3-1-5  109.30848120   3-1-7  109.49124856   3-1-9  109.55982831   4-2-6  109.30848120

  4- 2- 8  109.49124856   4- 2-10  109.55982831   5- 1- 7  109.33994887   5- 1- 9  109.66401814

  6- 2- 8  109.33994887   6- 2-10  109.66401814   7- 1- 9  109.46344463   8- 2-10  109.46344463

 NUCLEAR CHARGE:                   20
 NUMBER OF PRIMITIVE AOS:         110
 NUMBER OF SYMMETRY AOS:          108
 NUMBER OF CONTRACTIONS:           68   (  34Ag  +  34Au  )
 NUMBER OF CORE ORBITALS:           2   (   1Ag  +   1Au  )
 NUMBER OF VALENCE ORBITALS:       16   (   8Ag  +   8Au  )


 NUCLEAR REPULSION ENERGY   41.34196199


 Eigenvalues of metric

         1 0.127E-01 0.348E-01 0.349E-01 0.375E-01 0.510E-01 0.559E-01 0.559E-01 0.666E-01
         2 0.113E-01 0.356E-01 0.383E-01 0.384E-01 0.414E-01 0.510E-01 0.579E-01 0.580E-01


 Contracted 2-electron integrals neglected if value below      1.0D-16
 AO integral compression algorithm  1   Integral accuracy      1.0D-16

     14.680 MB (compressed) written to integral file (100.0%)

     Node minimum: 14.680 MB, node maximum: 14.680 MB


 NUMBER OF SORTED TWO-ELECTRON INTEGRALS:    1416695.     BUFFER LENGTH:  32768
 NUMBER OF SEGMENTS:   1  SEGMENT LENGTH:    1416695      RECORD LENGTH: 524288

 Memory used in sort:       1.97 MW

 SORT1 READ     1807840. AND WROTE     1416695. INTEGRALS IN      5 RECORDS. CPU TIME:     0.02 SEC, REAL TIME:     0.03 SEC
 SORT2 READ     1416695. AND WROTE     1416695. INTEGRALS IN     56 RECORDS. CPU TIME:     0.03 SEC, REAL TIME:     0.04 SEC

 FILE SIZES:   FILE 1:    14.2 MBYTE,  FILE 4:    21.0 MBYTE,   TOTAL:     35.2 MBYTE

 OPERATOR DM      FOR CENTER  0  COORDINATES:    0.000000    0.000000    0.000000


 **********************************************************************************************************************************
 DATASETS  * FILE   NREC   LENGTH (MB)   RECORD NAMES
              1      19       14.24       500      610      700      900      950      970     1000      129      960     1100   
                                          VAR    BASINP    GEOM    SYMINP    ZMAT    AOBASIS   BASIS     P2S    ABASIS      S 
                                         1400     1410     1200     1210     1080     1600     1650     1300     1700   
                                           T        V       H0       H01     AOSYM     SMH    MOLCAS    ERIS     OPER   

 PROGRAMS   *        TOTAL       INT
 CPU TIMES  *         0.54      0.49
 REAL TIME  *         0.75 SEC
 DISK USED  *        50.67 MB      
 GA USED    *         0.00 MB       (max)       0.00 MB       (current)
 **********************************************************************************************************************************

1PROGRAM * RHF-SCF (CLOSED SHELL)       Authors: W. Meyer, H.-J. Werner


 NUMBER OF ELECTRONS:      10+   10-
 CONVERGENCE THRESHOLDS:    1.00E-10 (Density)    1.00E-13 (Energy)
 MAX. NUMBER OF ITERATIONS:      200
 INTERPOLATION TYPE:            DIIS
 INTERPOLATION STEPS:              2 (START)      1 (STEP)
 LEVEL SHIFTS:                  0.00 (CLOSED)  0.00 (OPEN) 



 Orbital guess generated from atomic densities. Full valence occupancy:    9   9

 Molecular orbital dump at record        2100.2

 Initial alpha occupancy:   5   5
 Initial beta  occupancy:   5   5
 Wave function symmetry:    1

 ITERATION    DDIFF          GRAD             ENERGY        2-EL.EN.            DIPOLE MOMENTS         DIIS
    1      0.000D+00      0.000D+00       -80.35962778    134.829235    0.00000    0.00000    0.00000    0
    2      0.000D+00      0.895D-02       -80.39229682    132.549752    0.00000    0.00000    0.00000    1
    3      0.185D-01      0.329D-02       -80.39615851    133.351141    0.00000    0.00000    0.00000    2
    4      0.646D-02      0.884D-03       -80.39668718    133.214327    0.00000    0.00000    0.00000    3
    5      0.232D-02      0.932D-04       -80.39669170    133.220352    0.00000    0.00000    0.00000    4
    6      0.327D-03      0.551D-05       -80.39669172    133.220214    0.00000    0.00000    0.00000    5
    7      0.288D-04      0.327D-06       -80.39669172    133.220211    0.00000    0.00000    0.00000    5
    8      0.105D-05      0.573D-07       -80.39669172    133.220213    0.00000    0.00000    0.00000    4
    9      0.154D-06      0.157D-07       -80.39669172    133.220214    0.00000    0.00000    0.00000    4
   10      0.530D-07      0.319D-08       -80.39669172    133.220214    0.00000    0.00000    0.00000    5
   11      0.108D-07      0.381D-09       -80.39669172    133.220214    0.00000    0.00000    0.00000    5
   12      0.991D-09      0.103D-09       -80.39669172    133.220214    0.00000    0.00000    0.00000    6
   13      0.276D-09      0.362D-10       -80.39669172    133.220214    0.00000    0.00000    0.00000    6
   14      0.909D-10      0.605D-11       -80.39669172    133.220214    0.00000    0.00000    0.00000    0

 Final occupancy:   5   5

 !RHF STATE 1.1 Energy                -80.396691721732
 Nuclear energy                        41.34196199
 One-electron energy                 -188.34876059
 Two-electron energy                   66.61010688
 Virial quotient                       -1.00229910
 !RHF STATE 1.1 Dipole moment           0.00000000     0.00000000     0.00000000
 Dipole moment /Debye                   0.00000000     0.00000000     0.00000000

 Orbital energies:

         1.1          2.1          3.1          4.1          5.1          6.1          7.1
    -11.215303    -0.944263    -0.549708    -0.538183    -0.537880     0.172447     0.263843

         1.2          2.2          3.2          4.2          5.2          6.2          7.2
    -11.215306    -0.938394    -0.545490    -0.545242    -0.534505     0.229267     0.257015


 **********************************************************************************************************************************
 DATASETS  * FILE   NREC   LENGTH (MB)   RECORD NAMES
              1      19       14.24       500      610      700      900      950      970     1000      129      960     1100   
                                          VAR    BASINP    GEOM    SYMINP    ZMAT    AOBASIS   BASIS     P2S    ABASIS      S 
                                         1400     1410     1200     1210     1080     1600     1650     1300     1700   
                                           T        V       H0       H01     AOSYM     SMH    MOLCAS    ERIS     OPER   

              2       3        0.46       700     1000     2100   
                                         GEOM     BASIS     RHF  

 PROGRAMS   *        TOTAL       RHF       INT
 CPU TIMES  *         0.65      0.11      0.49
 REAL TIME  *         0.89 SEC
 DISK USED  *        50.67 MB      
 GA USED    *         0.00 MB       (max)       0.00 MB       (current)
 **********************************************************************************************************************************


1PROGRAM * CCSD (Closed-shell coupled cluster)     Authors: C. Hampel, H.-J. Werner, 1991, M. Deegan, P.J. Knowles, 1992


 Convergence thresholds:  THRVAR = 1.00D-08  THRDEN = 1.00D-12

 CCSD(T)     terms to be evaluated (factor= 1.000)


 Number of core orbitals:           2 (   1   1 )
 Number of closed-shell orbitals:   8 (   4   4 )
 Number of external orbitals:      58 (  29  29 )

 Molecular orbitals read from record     2100.2  Type=RHF/CANONICAL (state 1.1)

 Number of N-1 electron functions:               8
 Number of N-2 electron functions:              36
 Number of singly external CSFs:               232
 Number of doubly external CSFs:             54056
 Total number of CSFs:                       54289

 Length of J-op  integral file:               0.00 MB
 Length of K-op  integral file:               0.19 MB
 Length of 3-ext integral record:             0.00 MB

 Memory could be reduced to 1.45 Mwords without degradation in triples

 Integral transformation finished. Total CPU:   0.04 sec, npass=  1  Memory used:   0.70 MW

 Reference energy:                    -80.39669172

 MP2 singlet pair energy:              -0.23207785
 MP2 triplet pair energy:              -0.09154912
 MP2 correlation energy:               -0.32362697
 MP2 total energy:                    -80.72031869

 SCS-MP2 correlation energy:           -0.33545732   (PS=  1.200000  PT=  0.333333)
 SCS-MP2 total energy:                -80.73214904

 ITER.      SQ.NORM     CORR.ENERGY   TOTAL ENERGY   ENERGY CHANGE        DEN1      VAR(S)    VAR(P)  DIIS     TIME
   1      1.13421052    -0.36752857   -80.76422029    -0.04390160    -0.03297774  0.50D-03  0.24D-02  1  1     0.09
   2      1.14681883    -0.37032596   -80.76701768    -0.00279739    -0.01276492  0.15D-04  0.96D-04  2  2     0.15
   3      1.14861103    -0.37049695   -80.76718867    -0.00017099    -0.00095550  0.17D-05  0.56D-05  3  3     0.21
   4      1.14897873    -0.37051726   -80.76720898    -0.00002031    -0.00016577  0.25D-07  0.35D-06  4  4     0.27
   5      1.14902466    -0.37051478   -80.76720650     0.00000248    -0.00002392  0.18D-08  0.18D-07  5  5     0.33
   6      1.14902598    -0.37051472   -80.76720644     0.00000006    -0.00000012  0.19D-09  0.12D-08  6  6     0.38
   7      1.14902607    -0.37051498   -80.76720670    -0.00000026     0.00000013  0.13D-10  0.71D-10  6  1     0.44
   8      1.14902624    -0.37051498   -80.76720670     0.00000001    -0.00000013  0.15D-11  0.41D-11  6  2     0.50
   9      1.14902627    -0.37051496   -80.76720668     0.00000001    -0.00000003  0.15D-12  0.26D-12  6  3     0.56
  10      1.14902626    -0.37051496   -80.76720668     0.00000000     0.00000001  0.11D-13  0.23D-13  6  4     0.62
  11      1.14902625    -0.37051496   -80.76720668    -0.00000000     0.00000001  0.80D-15  0.19D-14  6  5     0.68
  12      1.14902625    -0.37051496   -80.76720668    -0.00000000     0.00000000  0.43D-16  0.23D-15  6  6     0.73
  13      1.14902625    -0.37051496   -80.76720668    -0.00000000     0.00000000  0.34D-17  0.28D-16  6  1     0.79
  14      1.14902625    -0.37051496   -80.76720668     0.00000000     0.00000000  0.59D-18  0.37D-17  6  2     0.84
  15      1.14902625    -0.37051496   -80.76720668     0.00000000     0.00000000  0.71D-19  0.37D-18  6  3     0.89
  16      1.14902625    -0.37051496   -80.76720668    -0.00000000     0.00000000  0.15D-20  0.20D-19  6  5     0.95
  17      1.14902625    -0.37051496   -80.76720668    -0.00000000     0.00000000  0.18D-21  0.56D-21  6  4     1.01
  18      1.14902625    -0.37051496   -80.76720668     0.00000000    -0.00000000  0.45D-22  0.51D-22  6  6     1.07

 Norm of t1 vector:      0.03062659      S-energy:    -0.00000000      T1 diagnostic:  0.00541407
                                                                       D1 diagnostic:  0.00878685


 Total CPU time for triples:      0.48 sec


 RESULTS
 =======

  Reference energy                    -80.396691721733
  CCSD singlet pair energy             -0.281841309924
  CCSD triplet pair energy             -0.088673651147
  CCSD correlation energy              -0.370514961072

  Triples (T) contribution             -0.007535667425
  Total correlation energy             -0.378050628497

  CCSD total energy                   -80.767206682804
  CCSD[T] energy                      -80.774918540056
  CCSD-T energy                       -80.774647911010
 !CCSD(T) total energy                -80.774742350229

 Timing summary (sec):

 STEP                 CPU(USER)    SYS     CPU(TOT)    WALL
 Transformation          0.04      0.01      0.05      0.05
 CCSD iterations         1.03      0.09      1.12      1.16
 Triples                 0.48      0.01      0.49      0.49

 Program statistics:

 Available memory in ccsd:               999999644
 Min. memory needed in ccsd:                176759
 Max. memory used in ccsd:                  218503
 Max. memory used in cckext:                258252 (18 integral passes)



 **********************************************************************************************************************************
 DATASETS  * FILE   NREC   LENGTH (MB)   RECORD NAMES
              1      20       18.49       500      610      700      900      950      970     1000      129      960     1100   
                                          VAR    BASINP    GEOM    SYMINP    ZMAT    AOBASIS   BASIS     P2S    ABASIS      S 
                                         1400     1410     1200     1210     1080     1600     1650     1300     1700     1380   
                                           T        V       H0       H01     AOSYM     SMH    MOLCAS    ERIS     OPER     JKOP   

              2       3        0.46       700     1000     2100   
                                         GEOM     BASIS     RHF  

 PROGRAMS   *        TOTAL   CCSD(T)       RHF       INT
 CPU TIMES  *         2.22      1.56      0.11      0.49
 REAL TIME  *         2.62 SEC
 DISK USED  *        50.67 MB      
 GA USED    *         0.00 MB       (max)       0.00 MB       (current)
 **********************************************************************************************************************************

        CCSD(T)         RHF-SCF 
    -80.77474235    -80.39669172
 **********************************************************************************************************************************
 Variable memory released
