
 Primary working directories    : /tmp/944438.212.gen6.q
 Secondary working directories  : /tmp/944438.212.gen6.q
 Wavefunction directory         : /home/vulcan/mel64643/wfu/
 Main file repository           : /tmp/944438.212.gen6.q/

 ARCHNAME  : Linux/x86_64
 FC        : /opt/intel/compilers_and_libraries_2016.1.150/linux/bin/intel64/ifort
 FCVERSION : 16.0.1
 BLASLIB   : -mkl
 id        : ccgc

 Nodes     nprocs
 n083         1
 ga_uses_ma=false, calling ma_init with nominal heap.
 GA-space will be limited to   8.0 MW (determined by -G option)

 Using customized tuning parameters: mindgm=10; mindgv=16; mindgc=4; mindgr=1; noblas=0; mincuda=1000; minvec=7
 default implementation of scratch files=df  

 ***,Optimization of min3
 memory,1000,m
 gthresh,energy=1.0d-12,orbital=1.0d-10,oneint=1.0d-16,twoint=1.0d-16,optgrad=1.0d-6,compress=1.0d-13
 geomtyp=xyz
 
 
 
  bohr
  geometry = {
  C   -0.2876533271    2.4033079787   -2.1357292535
  C    0.7670723295   -0.0042795443   -0.8940520465
  C    0.1931299885   -0.0043717634    1.8336140977
  N   -0.2961744378   -0.0044283198    3.9767190447
  H    2.8265350873   -0.0051124896   -1.0642528807
  C   -0.2845077011   -2.3989845659   -2.1302684190
  H   -2.3398106194   -2.4489351573   -1.9589981267
  H    0.4783654751   -4.0956598858   -1.2441675269
  H    0.1998760251   -2.4099145148   -4.1351810674
  H   -2.3429141525    2.4549207349   -1.9644466705
  H    0.1967394936    2.4143216683   -4.1406392464
  H    0.4766258686    4.0991358590   -1.2492178172
 }
 
 basis=cc-pvdz
 {rhf;maxit,200}
 {ccsd(t);maxit,200}

 Variables initialized (661), CPU time= 0.00 sec
 Commands  initialized (458), CPU time= 0.01 sec, 486 directives.
 Default parameters read. Elapsed time= 0.04 sec

 Checking input...
 Passed
1


                                         ***  PROGRAM SYSTEM MOLPRO  ***
                         Copyright, University College Cardiff Consultants Limited, 2008

                                    Version 2010.1 linked May 16 2016 07:17:05


 **********************************************************************************************************************************
 LABEL *   Optimization of min3                                                          
 Linux-4.4.3/n083(x86_64) 64 bit mpp version                                             DATE: 27-Oct-23          TIME: 10:38:33  
 **********************************************************************************************************************************

 SHA1:             9e8077add272b0f3cad6f7df79ec5211205f459d
 **********************************************************************************************************************************

 THRESHOLDS:

 ZERO    =  1.00D-12  ONEINT  =  1.00D-16  TWOINT  =  1.00D-16  PREFAC  =  1.00D-14  LOCALI  =  1.00D-09  EORDER  =  1.00D-04
 ENERGY  =  1.00D-12  ETEST   =  0.00D+00  EDENS   =  0.00D+00  THRDEDEF=  1.00D-06  GRADIENT=  1.00D-02  STEP    =  1.00D-03
 ORBITAL =  1.00D-10  CIVEC   =  1.00D-05  COEFF   =  1.00D-04  PRINTCI =  5.00D-02  PUNCHCI =  9.90D+01  OPTGRAD =  1.00D-06
 OPTENERG=  1.00D-06  OPTSTEP =  3.00D-04  THRGRAD =  1.00D-10  COMPRESS=  1.00D-13  VARMIN  =  1.00D-07  VARMAX  =  1.00D-03
 THRDOUB =  0.00D+00  THRDIV  =  1.00D-05  THRRED  =  1.00D-07  THRPSP  =  1.00D+00  THRDC   =  1.00D-10  THRCS   =  1.00D-10
 THRNRM  =  1.00D-08  THREQ   =  0.00D+00  THRDE   =  1.00D+00  THRREF  =  1.00D-05  SPARFAC =  1.00D+00  THRDLP  =  1.00D-07
 THRDIA  =  1.00D-10  THRDLS  =  1.00D-07  THRGPS  =  0.00D+00  THRKEX  =  0.00D+00  THRDIS  =  2.00D-01  THRVAR  =  1.00D-10
 THRLOC  =  1.00D-06  THRGAP  =  1.00D-06  THRLOCT = -1.00D+00  THRGAPT = -1.00D+00  THRORB  =  1.00D-06  THRMLTP =  0.00D+00
 THRCPQCI=  1.00D-10  KEXTA   =  0.00D+00  THRCOARS=  0.00D+00  SYMTOL  =  1.00D-06  GRADTOL =  1.00D-06  THROVL  =  1.00D-08
 THRORTH =  1.00D-08  GRID    =  1.00D-06  GRIDMAX =  1.00D-03  DTMAX   =  0.00D+00

 SETTING GEOMTYP        =    XYZ
 ZUNIT=BOHR
 

 Variable memory set to 1000000000 words,  buffer space   230000 words

 SETTING BASIS          =    CC-PVDZ


 Recomputing integrals since basis changed


 Using spherical harmonics

 Library entry C      S cc-pVDZ              selected for orbital group  1
 Library entry C      P cc-pVDZ              selected for orbital group  1
 Library entry C      D cc-pVDZ              selected for orbital group  1
 Library entry N      S cc-pVDZ              selected for orbital group  2
 Library entry N      P cc-pVDZ              selected for orbital group  2
 Library entry N      D cc-pVDZ              selected for orbital group  2
 Library entry H      S cc-pVDZ              selected for orbital group  3
 Library entry H      P cc-pVDZ              selected for orbital group  3

1PROGRAM * SEWARD (Integral evaluation for generally contracted gaussian basis sets)     Author: Roland Lindh, 1990

 Geometry written to block  1 of record 700


 Point group  C1  



 ATOMIC COORDINATES

 NR  ATOM    CHARGE       X              Y              Z

   1  C       6.00   -0.287653327    2.403307979   -2.135729254
   2  C       6.00    0.767072330   -0.004279544   -0.894052047
   3  C       6.00    0.193129988   -0.004371763    1.833614098
   4  N       7.00   -0.296174438   -0.004428320    3.976719045
   5  H       1.00    2.826535087   -0.005112490   -1.064252881
   6  C       6.00   -0.284507701   -2.398984566   -2.130268419
   7  H       1.00   -2.339810619   -2.448935157   -1.958998127
   8  H       1.00    0.478365475   -4.095659886   -1.244167527
   9  H       1.00    0.199876025   -2.409914515   -4.135181067
  10  H       1.00   -2.342914153    2.454920735   -1.964446671
  11  H       1.00    0.196739494    2.414321668   -4.140639246
  12  H       1.00    0.476625869    4.099135859   -1.249217817

 Bond lengths in Bohr (Angstrom)

  1- 2  2.907006395   1-10  2.063031425   1-11  2.062624975   1-12  2.060547843   2- 3  2.787395274
       ( 1.538321530)       ( 1.091709212)       ( 1.091494127)       ( 1.090394957)       ( 1.475026051)

 2-5  2.066483939  2-6  2.892864259  3-4  2.198253315  6-7  2.063031425  6-8  2.060547843
     ( 1.093536203)     ( 1.530837835)     ( 1.163265554)     ( 1.091709212)     ( 1.090394957)

 6-9  2.062624975
     ( 1.091494127)

 Bond angles

  1- 2- 3  110.07805271   1- 2- 5  109.07122528   1- 2- 6  111.78757136   2- 1-10  110.28637716

  2- 1-11  109.53587518   2- 1-12  111.30106667   2- 3- 4  179.02148593   2- 6- 7  110.28637716

  2-6-8  111.30106667   2-6-9  109.53587518   3-2-5  106.60693501   3-2-6  110.07805271

  5-2-6  109.07122528   7-6-8  108.25243075   7-6-9  108.33222042   8-6-9  109.06813095

 10- 1-11  108.33222042  10- 1-12  108.25243075  11- 1-12  109.06813095

 NUCLEAR CHARGE:                   38
 NUMBER OF PRIMITIVE AOS:         184
 NUMBER OF SYMMETRY AOS:          179
 NUMBER OF CONTRACTIONS:          105   ( 105A   )
 NUMBER OF CORE ORBITALS:           5   (   5A   )
 NUMBER OF VALENCE ORBITALS:       27   (  27A   )


 NUCLEAR REPULSION ENERGY  158.94975112


 Eigenvalues of metric

         1 0.197E-02 0.463E-02 0.574E-02 0.601E-02 0.167E-01 0.195E-01 0.209E-01 0.264E-01


 Contracted 2-electron integrals neglected if value below      1.0D-16
 AO integral compression algorithm  1   Integral accuracy      1.0D-16

     129.499 MB (compressed) written to integral file ( 94.7%)

     Node minimum: 129.499 MB, node maximum: 129.499 MB


 NUMBER OF SORTED TWO-ELECTRON INTEGRALS:   15487395.     BUFFER LENGTH:  32768
 NUMBER OF SEGMENTS:   1  SEGMENT LENGTH:   15487395      RECORD LENGTH: 524288

 Memory used in sort:      16.04 MW

 SORT1 READ    17101285. AND WROTE    15442596. INTEGRALS IN     45 RECORDS. CPU TIME:     0.13 SEC, REAL TIME:     0.23 SEC
 SORT2 READ    15442596. AND WROTE    15487395. INTEGRALS IN    494 RECORDS. CPU TIME:     0.13 SEC, REAL TIME:     0.20 SEC

 FILE SIZES:   FILE 1:   120.4 MBYTE,  FILE 4:   188.8 MBYTE,   TOTAL:    309.2 MBYTE

 OPERATOR DM      FOR CENTER  0  COORDINATES:    0.000000    0.000000    0.000000


 **********************************************************************************************************************************
 DATASETS  * FILE   NREC   LENGTH (MB)   RECORD NAMES
              1      19      120.54       500      610      700      900      950      970     1000      129      960     1100   
                                          VAR    BASINP    GEOM    SYMINP    ZMAT    AOBASIS   BASIS     P2S    ABASIS      S 
                                         1400     1410     1200     1210     1080     1600     1650     1300     1700   
                                           T        V       H0       H01     AOSYM     SMH    MOLCAS    ERIS     OPER   

 PROGRAMS   *        TOTAL       INT
 CPU TIMES  *         1.55      1.51
 REAL TIME  *         1.96 SEC
 DISK USED  *       439.54 MB      
 GA USED    *         0.00 MB       (max)       0.00 MB       (current)
 **********************************************************************************************************************************

1PROGRAM * RHF-SCF (CLOSED SHELL)       Authors: W. Meyer, H.-J. Werner


 NUMBER OF ELECTRONS:      19+   19-    SPACE SYMMETRY=1    SPIN SYMMETRY: Singlet 
 CONVERGENCE THRESHOLDS:    1.00E-10 (Density)    1.00E-13 (Energy)
 MAX. NUMBER OF ITERATIONS:      200
 INTERPOLATION TYPE:            DIIS
 INTERPOLATION STEPS:              2 (START)      1 (STEP)
 LEVEL SHIFTS:                  0.00 (CLOSED)  0.00 (OPEN) 



 Orbital guess generated from atomic densities. Full valence occupancy:   32

 Molecular orbital dump at record        2100.2

 ITERATION    DDIFF          GRAD             ENERGY        2-EL.EN.            DIPOLE MOMENTS         DIIS
    1      0.000D+00      0.000D+00      -209.94376151    457.122519    0.48308   -0.00021   -2.25058    0
    2      0.000D+00      0.590D-02      -209.98971048    456.678005    0.14959    0.00108   -1.29333    1
    3      0.124D-01      0.414D-02      -210.01004262    456.362370    0.30574    0.00100   -1.70166    2
    4      0.554D-02      0.106D-02      -210.01228984    456.689460    0.29227    0.00125   -1.61346    3
    5      0.196D-02      0.235D-03      -210.01240781    456.529990    0.28610    0.00122   -1.62472    4
    6      0.425D-03      0.579D-04      -210.01241718    456.549006    0.28631    0.00125   -1.62280    5
    7      0.169D-03      0.160D-04      -210.01241773    456.547005    0.28667    0.00125   -1.62411    6
    8      0.307D-04      0.501D-05      -210.01241779    456.546674    0.28653    0.00125   -1.62422    7
    9      0.110D-04      0.107D-05      -210.01241779    456.546610    0.28656    0.00125   -1.62421    7
   10      0.261D-05      0.376D-06      -210.01241779    456.546707    0.28656    0.00125   -1.62424    7
   11      0.943D-06      0.197D-06      -210.01241779    456.546675    0.28656    0.00125   -1.62424    7
   12      0.662D-06      0.913D-07      -210.01241779    456.546691    0.28656    0.00125   -1.62424    7
   13      0.427D-06      0.240D-07      -210.01241779    456.546684    0.28656    0.00125   -1.62424    8
   14      0.115D-06      0.476D-08      -210.01241779    456.546684    0.28656    0.00125   -1.62424    8
   15      0.148D-07      0.197D-08      -210.01241779    456.546684    0.28656    0.00125   -1.62424    8
   16      0.372D-08      0.522D-09      -210.01241779    456.546684    0.28656    0.00125   -1.62424    8
   17      0.113D-08      0.104D-09      -210.01241779    456.546684    0.28656    0.00125   -1.62424    8
   18      0.235D-09      0.271D-10      -210.01241779    456.546684    0.28656    0.00125   -1.62424    7
   19      0.629D-10      0.842D-11      -210.01241779    456.546684    0.28656    0.00125   -1.62424    7
   20      0.199D-10      0.312D-11      -210.01241779    456.546684    0.28656    0.00125   -1.62424    7
   21      0.835D-11      0.121D-11      -210.01241779    456.546684    0.28656    0.00125   -1.62424    7
   22      0.310D-11      0.506D-12      -210.01241779    456.546684    0.28656    0.00125   -1.62424    0

 Final occupancy:  19

 !RHF STATE 1.1 Energy               -210.012417791145
 Nuclear energy                       158.94975112
 One-electron energy                 -597.23551103
 Two-electron energy                  228.27334213
 Virial quotient                       -1.00163687
 !RHF STATE 1.1 Dipole moment           0.28655914     0.00125012    -1.62423607
 Dipole moment /Debye                   0.72831299     0.00317727    -4.12812590

 Orbital energies:

         1.1          2.1          3.1          4.1          5.1          6.1          7.1          8.1          9.1         10.1
    -15.572644   -11.290170   -11.274805   -11.250437   -11.249859    -1.212678    -1.107787    -0.960692    -0.876378    -0.704136

        11.1         12.1         13.1         14.1         15.1         16.1         17.1         18.1         19.1         20.1
     -0.642516    -0.597219    -0.572741    -0.563273    -0.530673    -0.523260    -0.520385    -0.447538    -0.447221     0.155276

        21.1
      0.190299


 **********************************************************************************************************************************
 DATASETS  * FILE   NREC   LENGTH (MB)   RECORD NAMES
              1      19      120.54       500      610      700      900      950      970     1000      129      960     1100   
                                          VAR    BASINP    GEOM    SYMINP    ZMAT    AOBASIS   BASIS     P2S    ABASIS      S 
                                         1400     1410     1200     1210     1080     1600     1650     1300     1700   
                                           T        V       H0       H01     AOSYM     SMH    MOLCAS    ERIS     OPER   

              2       3        0.68       700     1000     2100   
                                         GEOM     BASIS     RHF  

 PROGRAMS   *        TOTAL       RHF       INT
 CPU TIMES  *         3.53      1.98      1.51
 REAL TIME  *         4.22 SEC
 DISK USED  *       439.54 MB      
 GA USED    *         0.00 MB       (max)       0.00 MB       (current)
 **********************************************************************************************************************************


1PROGRAM * CCSD (Closed-shell coupled cluster)     Authors: C. Hampel, H.-J. Werner, 1991, M. Deegan, P.J. Knowles, 1992


 Convergence thresholds:  THRVAR = 1.00D-08  THRDEN = 1.00D-12

 CCSD(T)     terms to be evaluated (factor= 1.000)


 Number of core orbitals:           5 (   5 )
 Number of closed-shell orbitals:  14 (  14 )
 Number of external orbitals:      86 (  86 )

 Molecular orbitals read from record     2100.2  Type=RHF/CANONICAL (state 1.1)

 Number of N-1 electron functions:              14
 Number of N-2 electron functions:             105
 Number of singly external CSFs:              1204
 Number of doubly external CSFs:            725410
 Total number of CSFs:                      726615

 Length of J-op  integral file:               0.00 MB
 Length of K-op  integral file:               0.79 MB
 Length of 3-ext integral record:             0.00 MB

 Memory could be reduced to 12.72 Mwords without degradation in triples

 Integral transformation finished. Total CPU:   0.56 sec, npass=  1  Memory used:  10.92 MW

 Reference energy:                   -210.01241779

 MP2 singlet pair energy:              -0.45163591
 MP2 triplet pair energy:              -0.25976268
 MP2 correlation energy:               -0.71139859
 MP2 total energy:                   -210.72381638

 SCS-MP2 correlation energy:           -0.70359320   (PS=  1.200000  PT=  0.333333)
 SCS-MP2 total energy:               -210.71601100

 ITER.      SQ.NORM     CORR.ENERGY   TOTAL ENERGY   ENERGY CHANGE        DEN1      VAR(S)    VAR(P)  DIIS     TIME
   1      1.27016205    -0.75347346  -210.76589125    -0.04207487    -0.01887826  0.35D-02  0.56D-02  1  1     2.13
   2      1.29282202    -0.75713081  -210.76954860    -0.00365735    -0.02204473  0.58D-04  0.76D-03  2  2     3.72
   3      1.30020432    -0.75750744  -210.76992524    -0.00037664    -0.00407699  0.27D-04  0.55D-04  3  3     5.31
   4      1.30276927    -0.75760419  -210.77002198    -0.00009675    -0.00100780  0.13D-05  0.65D-05  4  4     6.90
   5      1.30333663    -0.75761276  -210.77003055    -0.00000857    -0.00016826  0.16D-06  0.78D-06  5  5     8.50
   6      1.30345939    -0.75760719  -210.77002499     0.00000557    -0.00003128  0.97D-08  0.53D-07  6  6    10.10
   7      1.30347753    -0.75760959  -210.77002738    -0.00000240    -0.00000404  0.15D-08  0.48D-08  6  2    11.69
   8      1.30347896    -0.75760951  -210.77002731     0.00000008    -0.00000004  0.14D-09  0.42D-09  6  1    13.29
   9      1.30347932    -0.75760950  -210.77002729     0.00000002     0.00000023  0.16D-10  0.36D-10  6  3    14.89
  10      1.30347958    -0.75760951  -210.77002730    -0.00000001    -0.00000006  0.17D-11  0.33D-11  6  4    16.49
  11      1.30347921    -0.75760954  -210.77002733    -0.00000002     0.00000022  0.35D-12  0.34D-12  6  6    18.10
  12      1.30347914    -0.75760954  -210.77002733    -0.00000001     0.00000004  0.44D-13  0.27D-13  6  5    19.69
  13      1.30347910    -0.75760954  -210.77002734    -0.00000000     0.00000002  0.51D-14  0.45D-14  6  2    21.29
  14      1.30347910    -0.75760954  -210.77002734     0.00000000     0.00000000  0.15D-14  0.64D-15  6  1    22.90
  15      1.30347910    -0.75760954  -210.77002734     0.00000000    -0.00000000  0.98D-16  0.10D-15  6  4    24.50
  16      1.30347910    -0.75760954  -210.77002734     0.00000000    -0.00000000  0.15D-16  0.70D-17  6  3    26.10
  17      1.30347910    -0.75760954  -210.77002734     0.00000000    -0.00000000  0.33D-17  0.15D-17  6  6    27.70
  18      1.30347910    -0.75760954  -210.77002734    -0.00000000    -0.00000000  0.53D-18  0.25D-18  6  5    29.29
  19      1.30347910    -0.75760954  -210.77002734     0.00000000     0.00000000  0.59D-19  0.41D-19  6  2    30.90
  20      1.30347910    -0.75760954  -210.77002734     0.00000000    -0.00000000  0.63D-20  0.39D-20  6  4    32.49

 Norm of t1 vector:      0.07770639      S-energy:    -0.00000000      T1 diagnostic:  0.01038395
                                                                       D1 diagnostic:  0.02935509


 Total CPU time for triples:     19.81 sec


 RESULTS
 =======

  Reference energy                   -210.012417791145
  CCSD singlet pair energy             -0.527326335468
  CCSD triplet pair energy             -0.230283208414
  CCSD correlation energy              -0.757609543884

  Triples (T) contribution             -0.026791753143
  Total correlation energy             -0.784401297026

  CCSD total energy                  -210.770027335028
  CCSD[T] energy                     -210.797828432885
  CCSD-T energy                      -210.796349234075
 !CCSD(T) total energy               -210.796819088171

 Timing summary (sec):

 STEP                 CPU(USER)    SYS     CPU(TOT)    WALL
 Transformation          0.59      0.07      0.66      0.68
 CCSD iterations        31.91      0.87     32.78     32.79
 Triples                19.81      0.44     20.25     20.27

 Program statistics:

 Available memory in ccsd:               999999116
 Min. memory needed in ccsd:               1995783
 Max. memory used in ccsd:                 2628247
 Max. memory used in cckext:               2458865 (20 integral passes)



 **********************************************************************************************************************************
 DATASETS  * FILE   NREC   LENGTH (MB)   RECORD NAMES
              1      20      170.69       500      610      700      900      950      970     1000      129      960     1100   
                                          VAR    BASINP    GEOM    SYMINP    ZMAT    AOBASIS   BASIS     P2S    ABASIS      S 
                                         1400     1410     1200     1210     1080     1600     1650     1300     1700     1380   
                                           T        V       H0       H01     AOSYM     SMH    MOLCAS    ERIS     OPER     JKOP   

              2       3        0.68       700     1000     2100   
                                         GEOM     BASIS     RHF  

 PROGRAMS   *        TOTAL   CCSD(T)       RHF       INT
 CPU TIMES  *        55.86     52.33      1.98      1.51
 REAL TIME  *        58.00 SEC
 DISK USED  *       439.54 MB      
 GA USED    *         0.00 MB       (max)       0.00 MB       (current)
 **********************************************************************************************************************************

        CCSD(T)         RHF-SCF 
   -210.79681909   -210.01241779
 **********************************************************************************************************************************
 Variable memory released
