
 Primary working directories    : /tmp/1049502.824.gen4.q
 Secondary working directories  : /tmp/1049502.824.gen4.q
 Wavefunction directory         : /home/vulcan/jj04645/wfu/
 Main file repository           : /tmp/1049502.824.gen4.q/

 ARCHNAME  : Linux/x86_64
 FC        : /opt/intel/compilers_and_libraries_2016.1.150/linux/bin/intel64/ifort
 FCVERSION : 16.0.1
 BLASLIB   : -mkl
 id        : ccgc

 Nodes     nprocs
 n061         1
 ga_uses_ma=false, calling ma_init with nominal heap.
 GA-space will be limited to   8.0 MW (determined by -G option)

 Using customized tuning parameters: mindgm=10; mindgv=16; mindgc=4; mindgr=1; noblas=0; mincuda=1000; minvec=7
 default implementation of scratch files=df  

 ***,Optimization of neopentane
 memory,1000,m
 gthresh,energy=1.0d-12,orbital=1.0d-10,oneint=1.0d-16,twoint=1.0d-16,optgrad=1.0d-6,compress=1.0d-13
 geomtyp=xyz
 
 bohr
 geometry = {
  C   -0.0003870349   -0.0003871477    0.0000000002
  C    2.3628083777    0.0070220072   -1.6757760545
  C   -0.0074697836   -2.3632239281    1.6762830978
  C    0.0063358040    2.3628112015    1.6757748076
  C   -2.3632225378   -0.0081578714   -1.6762818500
  H    2.4010134288    1.6849021222   -2.8895774175
  H   -1.6789846796   -2.4015042230    2.8849480669
  H    1.6824876440    2.3997906086    2.8919995354
  H   -2.4027266543   -1.6813901847   -2.8825287095
  H    4.0789248100    0.0092383262   -0.5270095117
  H   -0.0089427086   -4.0829811434    0.5256153125
  H    0.0114725548    4.0789193566    0.5270052464
  H   -4.0829843736   -0.0067034798   -0.5256209468
  H    2.4082096348   -1.6624715255   -2.8904592069
  H    1.6650752571   -2.4079665422    2.8937372389
  H   -1.6648776094    2.4094450143    2.8880437979
  H   -2.4067321293    1.6626574092   -2.8961534066
 }
 
 basis=VDZ
 {rhf;maxit,200}
 {ccsd(t);maxit,200}

 Variables initialized (661), CPU time= 0.01 sec
 Commands  initialized (458), CPU time= 0.00 sec, 486 directives.
 Default parameters read. Elapsed time= 0.04 sec

 Checking input...
 Passed
1


                                         ***  PROGRAM SYSTEM MOLPRO  ***
                         Copyright, University College Cardiff Consultants Limited, 2008

                                    Version 2010.1 linked May 16 2016 07:17:05


 **********************************************************************************************************************************
 LABEL *   Optimization of neopentane                                                    
 Linux-4.4.3/n061(x86_64) 64 bit mpp version                                             DATE: 30-Mar-24          TIME: 22:16:52  
 **********************************************************************************************************************************

 SHA1:             9e8077add272b0f3cad6f7df79ec5211205f459d
 **********************************************************************************************************************************

 THRESHOLDS:

 ZERO    =  1.00D-12  ONEINT  =  1.00D-16  TWOINT  =  1.00D-16  PREFAC  =  1.00D-14  LOCALI  =  1.00D-09  EORDER  =  1.00D-04
 ENERGY  =  1.00D-12  ETEST   =  0.00D+00  EDENS   =  0.00D+00  THRDEDEF=  1.00D-06  GRADIENT=  1.00D-02  STEP    =  1.00D-03
 ORBITAL =  1.00D-10  CIVEC   =  1.00D-05  COEFF   =  1.00D-04  PRINTCI =  5.00D-02  PUNCHCI =  9.90D+01  OPTGRAD =  1.00D-06
 OPTENERG=  1.00D-06  OPTSTEP =  3.00D-04  THRGRAD =  1.00D-10  COMPRESS=  1.00D-13  VARMIN  =  1.00D-07  VARMAX  =  1.00D-03
 THRDOUB =  0.00D+00  THRDIV  =  1.00D-05  THRRED  =  1.00D-07  THRPSP  =  1.00D+00  THRDC   =  1.00D-10  THRCS   =  1.00D-10
 THRNRM  =  1.00D-08  THREQ   =  0.00D+00  THRDE   =  1.00D+00  THRREF  =  1.00D-05  SPARFAC =  1.00D+00  THRDLP  =  1.00D-07
 THRDIA  =  1.00D-10  THRDLS  =  1.00D-07  THRGPS  =  0.00D+00  THRKEX  =  0.00D+00  THRDIS  =  2.00D-01  THRVAR  =  1.00D-10
 THRLOC  =  1.00D-06  THRGAP  =  1.00D-06  THRLOCT = -1.00D+00  THRGAPT = -1.00D+00  THRORB  =  1.00D-06  THRMLTP =  0.00D+00
 THRCPQCI=  1.00D-10  KEXTA   =  0.00D+00  THRCOARS=  0.00D+00  SYMTOL  =  1.00D-06  GRADTOL =  1.00D-06  THROVL  =  1.00D-08
 THRORTH =  1.00D-08  GRID    =  1.00D-06  GRIDMAX =  1.00D-03  DTMAX   =  0.00D+00

 SETTING GEOMTYP        =    XYZ
 ZUNIT=BOHR
 

 Variable memory set to 1000000000 words,  buffer space   230000 words

 SETTING BASIS          =    VDZ


 Recomputing integrals since basis changed


 Using spherical harmonics

 Library entry C      S cc-pVDZ              selected for orbital group  1
 Library entry C      P cc-pVDZ              selected for orbital group  1
 Library entry C      D cc-pVDZ              selected for orbital group  1
 Library entry H      S cc-pVDZ              selected for orbital group  2
 Library entry H      P cc-pVDZ              selected for orbital group  2

1PROGRAM * SEWARD (Integral evaluation for generally contracted gaussian basis sets)     Author: Roland Lindh, 1990

 Geometry written to block  1 of record 700


 Point group  C1  



 ATOMIC COORDINATES

 NR  ATOM    CHARGE       X              Y              Z

   1  C       6.00   -0.000387035   -0.000387148    0.000000000
   2  C       6.00    2.362808378    0.007022007   -1.675776055
   3  C       6.00   -0.007469784   -2.363223928    1.676283098
   4  C       6.00    0.006335804    2.362811202    1.675774808
   5  C       6.00   -2.363222538   -0.008157871   -1.676281850
   6  H       1.00    2.401013429    1.684902122   -2.889577417
   7  H       1.00   -1.678984680   -2.401504223    2.884948067
   8  H       1.00    1.682487644    2.399790609    2.891999535
   9  H       1.00   -2.402726654   -1.681390185   -2.882528709
  10  H       1.00    4.078924810    0.009238326   -0.527009512
  11  H       1.00   -0.008942709   -4.082981143    0.525615313
  12  H       1.00    0.011472555    4.078919357    0.527005246
  13  H       1.00   -4.082984374   -0.006703480   -0.525620947
  14  H       1.00    2.408209635   -1.662471525   -2.890459207
  15  H       1.00    1.665075257   -2.407966542    2.893737239
  16  H       1.00   -1.664877609    2.409445014    2.888043798
  17  H       1.00   -2.406732129    1.662657409   -2.896153407

 Bond lengths in Bohr (Angstrom)

 1-2  2.897062795  1-3  2.897062795  1-4  2.897062795  1-5  2.897062795  2-6  2.071244808
     ( 1.533059604)     ( 1.533059604)     ( 1.533059604)     ( 1.533059604)     ( 1.096055547)

  2-10  2.065121084   2-14  2.065121084   3- 7  2.063079842   3-11  2.069203567   3-15  2.069203567
       ( 1.092815011)       ( 1.092815011)       ( 1.091734833)       ( 1.094975368)       ( 1.094975368)

  4- 8  2.071244808   4-12  2.065121084   4-16  2.065121084   5- 9  2.063079842   5-13  2.069203567
       ( 1.096055547)       ( 1.092815011)       ( 1.092815011)       ( 1.091734833)       ( 1.094975368)

  5-17  2.069203567
       ( 1.094975368)

 Bond angles

  1- 2- 6  110.86076890   1- 2-10  110.86076864   1- 2-14  110.86076876   1- 3- 7  110.86076921

  1- 3-11  110.86076854   1- 3-15  110.86076856   1- 4- 8  110.86076887   1- 4-12  110.86076830

  1- 4-16  110.86076914   1- 5- 9  110.86076926   1- 5-13  110.86076811   1- 5-17  110.86076894

  2-1-3  109.80218724   2-1-4  109.30599124   2-1-5  109.30599123   3-1-4  109.30599123

  3- 1- 5  109.30599124   4- 1- 5  109.80218724   6- 2-10  108.04663877   6- 2-14  108.04663899

  7- 3-11  108.04663914   7- 3-15  108.04663920   8- 4-12  108.04663804   8- 4-16  108.04663965

  9- 5-13  108.04663844   9- 5-17  108.04664001  10- 2-14  108.04663849  11- 3-15  108.04663790

 12- 4-16  108.04663854  13- 5-17  108.04663779

 NUCLEAR CHARGE:                   42
 NUMBER OF PRIMITIVE AOS:         219
 NUMBER OF SYMMETRY AOS:          214
 NUMBER OF CONTRACTIONS:          130   ( 130A   )
 NUMBER OF CORE ORBITALS:           5   (   5A   )
 NUMBER OF VALENCE ORBITALS:       32   (  32A   )


 NUCLEAR REPULSION ENERGY  198.59940189


 Eigenvalues of metric

         1 0.280E-02 0.503E-02 0.504E-02 0.504E-02 0.171E-01 0.189E-01 0.189E-01 0.189E-01


 Contracted 2-electron integrals neglected if value below      1.0D-16
 AO integral compression algorithm  1   Integral accuracy      1.0D-16

     303.563 MB (compressed) written to integral file ( 97.4%)

     Node minimum: 303.563 MB, node maximum: 303.563 MB


 NUMBER OF SORTED TWO-ELECTRON INTEGRALS:   36256870.     BUFFER LENGTH:  32768
 NUMBER OF SEGMENTS:   3  SEGMENT LENGTH:   15998004      RECORD LENGTH: 524288

 Memory used in sort:      16.56 MW

 SORT1 READ    38983617. AND WROTE    36210168. INTEGRALS IN    105 RECORDS. CPU TIME:     0.39 SEC, REAL TIME:     0.59 SEC
 SORT2 READ    36210168. AND WROTE    36256870. INTEGRALS IN   1158 RECORDS. CPU TIME:     0.27 SEC, REAL TIME:     0.44 SEC

 FILE SIZES:   FILE 1:   284.0 MBYTE,  FILE 4:   440.4 MBYTE,   TOTAL:    724.4 MBYTE

 OPERATOR DM      FOR CENTER  0  COORDINATES:    0.000000    0.000000    0.000000


 **********************************************************************************************************************************
 DATASETS  * FILE   NREC   LENGTH (MB)   RECORD NAMES
              1      19      284.16       500      610      700      900      950      970     1000      129      960     1100   
                                          VAR    BASINP    GEOM    SYMINP    ZMAT    AOBASIS   BASIS     P2S    ABASIS      S 
                                         1400     1410     1200     1210     1080     1600     1650     1300     1700   
                                           T        V       H0       H01     AOSYM     SMH    MOLCAS    ERIS     OPER   

 PROGRAMS   *        TOTAL       INT
 CPU TIMES  *         4.24      4.18
 REAL TIME  *         4.90 SEC
 DISK USED  *         1.03 GB      
 GA USED    *         0.01 MB       (max)       0.00 MB       (current)
 **********************************************************************************************************************************

1PROGRAM * RHF-SCF (CLOSED SHELL)       Authors: W. Meyer, H.-J. Werner


 NUMBER OF ELECTRONS:      21+   21-    SPACE SYMMETRY=1    SPIN SYMMETRY: Singlet 
 CONVERGENCE THRESHOLDS:    1.00E-10 (Density)    1.00E-13 (Energy)
 MAX. NUMBER OF ITERATIONS:      200
 INTERPOLATION TYPE:            DIIS
 INTERPOLATION STEPS:              2 (START)      1 (STEP)
 LEVEL SHIFTS:                  0.00 (CLOSED)  0.00 (OPEN) 



 Orbital guess generated from atomic densities. Full valence occupancy:   37

 Molecular orbital dump at record        2100.2

 ITERATION    DDIFF          GRAD             ENERGY        2-EL.EN.            DIPOLE MOMENTS         DIIS
    1      0.000D+00      0.000D+00      -196.27087449    527.677665    0.00130    0.00130    0.00000    0
    2      0.000D+00      0.467D-02      -196.33873358    521.944208   -0.00128   -0.00128    0.00000    1
    3      0.930D-02      0.177D-02      -196.34652404    524.514310   -0.00093   -0.00093    0.00000    2
    4      0.346D-02      0.571D-03      -196.34767080    523.812974   -0.00118   -0.00118    0.00000    3
    5      0.114D-02      0.118D-03      -196.34770538    523.879486   -0.00120   -0.00120    0.00000    4
    6      0.198D-03      0.238D-04      -196.34770705    523.875727   -0.00120   -0.00120    0.00000    5
    7      0.659D-04      0.226D-05      -196.34770708    523.875493   -0.00120   -0.00120    0.00000    6
    8      0.684D-05      0.488D-06      -196.34770708    523.875451   -0.00120   -0.00120    0.00000    6
    9      0.138D-05      0.703D-07      -196.34770708    523.875443   -0.00120   -0.00120    0.00000    5
   10      0.244D-06      0.937D-08      -196.34770708    523.875453   -0.00120   -0.00120    0.00000    5
   11      0.316D-07      0.282D-08      -196.34770708    523.875448   -0.00120   -0.00120    0.00000    5
   12      0.590D-08      0.105D-08      -196.34770708    523.875449   -0.00120   -0.00120    0.00000    6
   13      0.215D-08      0.833D-10      -196.34770708    523.875449   -0.00120   -0.00120    0.00000    6
   14      0.194D-09      0.246D-10      -196.34770708    523.875449   -0.00120   -0.00120    0.00000    6
   15      0.687D-10      0.733D-11      -196.34770708    523.875449   -0.00120   -0.00120    0.00000    6
   16      0.243D-10      0.158D-11      -196.34770708    523.875449   -0.00120   -0.00120    0.00000    6
   17      0.409D-11      0.568D-12      -196.34770708    523.875449   -0.00120   -0.00120    0.00000    7
   18      0.124D-11      0.123D-12      -196.34770708    523.875449   -0.00120   -0.00120    0.00000    6
   19      0.506D-12      0.427D-13      -196.34770708    523.875449   -0.00120   -0.00120    0.00000    7
   20      0.188D-12      0.322D-13      -196.34770708    523.875449   -0.00120   -0.00120    0.00000    8
   21      0.111D-12      0.320D-13      -196.34770708    523.875449   -0.00120   -0.00120    0.00000    9
   22      0.811D-13      0.275D-13      -196.34770708    523.875449   -0.00120   -0.00120    0.00000    9
   23      0.599D-13      0.267D-13      -196.34770708    523.875449   -0.00120   -0.00120    0.00000    9
   24      0.559D-13      0.214D-13      -196.34770708    523.875449   -0.00120   -0.00120    0.00000    9
   25      0.429D-13      0.295D-13      -196.34770708    523.875449   -0.00120   -0.00120    0.00000    9
   26      0.417D-13      0.247D-13      -196.34770708    523.875449   -0.00120   -0.00120    0.00000    9
   27      0.252D-13      0.289D-13      -196.34770708    523.875449   -0.00120   -0.00120    0.00000    9
   28      0.258D-13      0.224D-13      -196.34770708    523.875449   -0.00120   -0.00120    0.00000    9
   29      0.805D-14      0.231D-13      -196.34770708    523.875449   -0.00120   -0.00120    0.00000    9
   30      0.173D-13      0.226D-13      -196.34770708    523.875449   -0.00120   -0.00120    0.00000    9
   31      0.164D-13      0.250D-13      -196.34770708    523.875449   -0.00120   -0.00120    0.00000    9
   32      0.369D-13      0.233D-13      -196.34770708    523.875449   -0.00120   -0.00120    0.00000    9
   33      0.633D-13      0.251D-13      -196.34770708    523.875449   -0.00120   -0.00120    0.00000    9
   34      0.565D-13      0.253D-13      -196.34770708    523.875449   -0.00120   -0.00120    0.00000    9
   35      0.214D-13      0.262D-13      -196.34770708    523.875449   -0.00120   -0.00120    0.00000    9
   36      0.341D-13      0.194D-13      -196.34770708    523.875449   -0.00120   -0.00120    0.00000    9
   37      0.380D-13      0.232D-13      -196.34770708    523.875449   -0.00120   -0.00120    0.00000    0

 Final occupancy:  21

 !RHF STATE 1.1 Energy               -196.347707079253
 Nuclear energy                       198.59940189
 One-electron energy                 -656.88483354
 Two-electron energy                  261.93772456
 Virial quotient                       -1.00118090
 !RHF STATE 1.1 Dipole moment          -0.00120338    -0.00120390     0.00000064
 Dipole moment /Debye                  -0.00305848    -0.00305980     0.00000162

 Orbital energies:

         1.1          2.1          3.1          4.1          5.1          6.1          7.1          8.1          9.1         10.1
    -11.230714   -11.214127   -11.214113   -11.214081   -11.214047    -1.103749    -0.927878    -0.927878    -0.926930    -0.728615

        11.1         12.1         13.1         14.1         15.1         16.1         17.1         18.1         19.1         20.1
     -0.609115    -0.609083    -0.609033    -0.550923    -0.550054    -0.507969    -0.507795    -0.507595    -0.450742    -0.450739

        21.1         22.1         23.1
     -0.449511     0.170676     0.231097


 **********************************************************************************************************************************
 DATASETS  * FILE   NREC   LENGTH (MB)   RECORD NAMES
              1      19      284.16       500      610      700      900      950      970     1000      129      960     1100   
                                          VAR    BASINP    GEOM    SYMINP    ZMAT    AOBASIS   BASIS     P2S    ABASIS      S 
                                         1400     1410     1200     1210     1080     1600     1650     1300     1700   
                                           T        V       H0       H01     AOSYM     SMH    MOLCAS    ERIS     OPER   

              2       3        0.89       700     1000     2100   
                                         GEOM     BASIS     RHF  

 PROGRAMS   *        TOTAL       RHF       INT
 CPU TIMES  *        14.05      9.81      4.18
 REAL TIME  *        15.93 SEC
 DISK USED  *         1.03 GB      
 GA USED    *         0.01 MB       (max)       0.00 MB       (current)
 **********************************************************************************************************************************


1PROGRAM * CCSD (Closed-shell coupled cluster)     Authors: C. Hampel, H.-J. Werner, 1991, M. Deegan, P.J. Knowles, 1992


 Convergence thresholds:  THRVAR = 1.00D-08  THRDEN = 1.00D-12

 CCSD(T)     terms to be evaluated (factor= 1.000)


 Number of core orbitals:           5 (   5 )
 Number of closed-shell orbitals:  16 (  16 )
 Number of external orbitals:     109 ( 109 )

 Molecular orbitals read from record     2100.2  Type=RHF/CANONICAL (state 1.1)

 Number of N-1 electron functions:              16
 Number of N-2 electron functions:             136
 Number of singly external CSFs:              1744
 Number of doubly external CSFs:           1521640
 Total number of CSFs:                     1523385

 Length of J-op  integral file:               0.00 MB
 Length of K-op  integral file:               1.20 MB
 Length of 3-ext integral record:             0.00 MB

 Memory could be reduced to 28.13 Mwords without degradation in triples

 Integral transformation finished. Total CPU:   1.88 sec, npass=  1  Memory used:  22.98 MW

 Reference energy:                   -196.34770708

 MP2 singlet pair energy:              -0.48845317
 MP2 triplet pair energy:              -0.25007785
 MP2 correlation energy:               -0.73853102
 MP2 total energy:                   -197.08623810

 SCS-MP2 correlation energy:           -0.74174780   (PS=  1.200000  PT=  0.333333)
 SCS-MP2 total energy:               -197.08945488

 ITER.      SQ.NORM     CORR.ENERGY   TOTAL ENERGY   ENERGY CHANGE        DEN1      VAR(S)    VAR(P)  DIIS     TIME
   1      1.28821661    -0.80655623  -197.15426331    -0.06802521    -0.04667754  0.17D-02  0.47D-02  1  1     6.93
   2      1.31152402    -0.81148986  -197.15919694    -0.00493363    -0.02353271  0.47D-04  0.32D-03  2  2    12.05
   3      1.31554198    -0.81163933  -197.15934641    -0.00014947    -0.00244301  0.53D-05  0.22D-04  3  3    17.16
   4      1.31658468    -0.81170186  -197.15940894    -0.00006253    -0.00046182  0.25D-06  0.12D-05  4  4    22.29
   5      1.31671065    -0.81170625  -197.15941333    -0.00000439    -0.00005126  0.15D-07  0.93D-07  5  5    27.42
   6      1.31672289    -0.81170382  -197.15941090     0.00000243    -0.00000836  0.69D-09  0.61D-08  6  6    32.55
   7      1.31672130    -0.81170411  -197.15941119    -0.00000029     0.00000073  0.16D-09  0.52D-09  6  1    37.68
   8      1.31672100    -0.81170425  -197.15941133    -0.00000015     0.00000028  0.78D-11  0.30D-10  6  2    42.81
   9      1.31672070    -0.81170430  -197.15941138    -0.00000005     0.00000026  0.11D-11  0.25D-11  6  3    47.94
  10      1.31672060    -0.81170431  -197.15941139    -0.00000001     0.00000009  0.89D-13  0.22D-12  6  4    53.07
  11      1.31672053    -0.81170431  -197.15941139    -0.00000000     0.00000004  0.95D-14  0.24D-13  6  5    58.20
  12      1.31672050    -0.81170431  -197.15941139    -0.00000000     0.00000002  0.90D-15  0.12D-14  6  1    63.34
  13      1.31672050    -0.81170431  -197.15941139    -0.00000000     0.00000000  0.79D-16  0.70D-16  6  6    68.48
  14      1.31672049    -0.81170431  -197.15941139    -0.00000000     0.00000000  0.15D-16  0.96D-17  6  2    73.62
  15      1.31672049    -0.81170431  -197.15941139    -0.00000000     0.00000000  0.13D-17  0.11D-17  6  3    78.75
  16      1.31672049    -0.81170431  -197.15941139     0.00000000    -0.00000000  0.70D-19  0.92D-19  6  4    83.88
  17      1.31672049    -0.81170431  -197.15941139     0.00000000    -0.00000000  0.34D-20  0.85D-20  6  5    89.02
  18      1.31672049    -0.81170431  -197.15941139     0.00000000    -0.00000000  0.38D-21  0.12D-20  6  1    94.15
  19      1.31672049    -0.81170431  -197.15941139     0.00000000    -0.00000000  0.30D-22  0.16D-21  6  6    99.28

 Norm of t1 vector:      0.05469834      S-energy:    -0.00000000      T1 diagnostic:  0.00683729
                                                                       D1 diagnostic:  0.01261608


 Total CPU time for triples:     80.64 sec


 RESULTS
 =======

  Reference energy                   -196.347707079254
  CCSD singlet pair energy             -0.577588092827
  CCSD triplet pair energy             -0.234116220714
  CCSD correlation energy              -0.811704313541

  Triples (T) contribution             -0.023942465397
  Total correlation energy             -0.835646778938

  CCSD total energy                  -197.159411392794
  CCSD[T] energy                     -197.183813204938
  CCSD-T energy                      -197.183105194819
 !CCSD(T) total energy               -197.183353858191

 Timing summary (sec):

 STEP                 CPU(USER)    SYS     CPU(TOT)    WALL
 Transformation          1.96      0.17      2.13      2.14
 CCSD iterations        97.33      2.05     99.38     99.49
 Triples                80.64      1.55     82.19     82.21

 Program statistics:

 Available memory in ccsd:               999998876
 Min. memory needed in ccsd:               3966807
 Max. memory used in ccsd:                 5311887
 Max. memory used in cckext:               4858018 (19 integral passes)



 **********************************************************************************************************************************
 DATASETS  * FILE   NREC   LENGTH (MB)   RECORD NAMES
              1      20      395.87       500      610      700      900      950      970     1000      129      960     1100   
                                          VAR    BASINP    GEOM    SYMINP    ZMAT    AOBASIS   BASIS     P2S    ABASIS      S 
                                         1400     1410     1200     1210     1080     1600     1650     1300     1700     1380   
                                           T        V       H0       H01     AOSYM     SMH    MOLCAS    ERIS     OPER     JKOP   

              2       3        0.89       700     1000     2100   
                                         GEOM     BASIS     RHF  

 PROGRAMS   *        TOTAL   CCSD(T)       RHF       INT
 CPU TIMES  *       193.99    179.94      9.81      4.18
 REAL TIME  *       199.81 SEC
 DISK USED  *         1.03 GB      
 GA USED    *         0.01 MB       (max)       0.00 MB       (current)
 **********************************************************************************************************************************

        CCSD(T)         RHF-SCF 
   -197.18335386   -196.34770708
 **********************************************************************************************************************************
 Variable memory released
