
 Primary working directories    : /tmp/943210.122.gen6.q
 Secondary working directories  : /tmp/943210.122.gen6.q
 Wavefunction directory         : /home/vulcan/mel64643/wfu/
 Main file repository           : /tmp/943210.122.gen6.q/

 ARCHNAME  : Linux/x86_64
 FC        : /opt/intel/compilers_and_libraries_2016.1.150/linux/bin/intel64/ifort
 FCVERSION : 16.0.1
 BLASLIB   : -mkl
 id        : ccgc

 Nodes     nprocs
 n084         1
 ga_uses_ma=false, calling ma_init with nominal heap.
 GA-space will be limited to   8.0 MW (determined by -G option)

 Using customized tuning parameters: mindgm=10; mindgv=16; mindgc=4; mindgr=1; noblas=0; mincuda=1000; minvec=7
 default implementation of scratch files=df  

 ***,Optimization of formic acid
 memory,1000,m
 gthresh,energy=1.0d-12,orbital=1.0d-10,oneint=1.0d-16,twoint=1.0d-16,optgrad=1.0d-6,compress=1.0d-13
 geomtyp=xyz
 
 bohr
 geometry = {
  C   -3.5012740504   -0.8305678383   -0.0000000000
  O   -3.0990309563    1.6307141751   -0.0000000000
  O   -1.8825858810   -2.4776194279    0.0000000000
  H   -5.5195793226   -1.2774229469   -0.0000000000
  H   -1.2475661345    1.9659605743   -0.0000000000
  C    3.5012740504    0.8305678383   -0.0000000000
  O    3.0990309563   -1.6307141751    0.0000000000
  O    1.8825858810    2.4776194279   -0.0000000000
  H    5.5195793226    1.2774229469   -0.0000000000
  H    1.2475661345   -1.9659605743    0.0000000000
 }
 
 basis=AVDZ, H=VDZ
 {rhf;maxit,200}
 {ccsd(t);maxit,200}

 Variables initialized (661), CPU time= 0.00 sec
 Commands  initialized (458), CPU time= 0.01 sec, 486 directives.
 Default parameters read. Elapsed time= 0.04 sec

 Checking input...
 Passed
1


                                         ***  PROGRAM SYSTEM MOLPRO  ***
                         Copyright, University College Cardiff Consultants Limited, 2008

                                    Version 2010.1 linked May 16 2016 07:17:05


 **********************************************************************************************************************************
 LABEL *   Optimization of formic acid                                                   
 Linux-4.4.3/n084(x86_64) 64 bit mpp version                                             DATE: 23-Oct-23          TIME: 23:16:18  
 **********************************************************************************************************************************

 SHA1:             9e8077add272b0f3cad6f7df79ec5211205f459d
 **********************************************************************************************************************************

 THRESHOLDS:

 ZERO    =  1.00D-12  ONEINT  =  1.00D-16  TWOINT  =  1.00D-16  PREFAC  =  1.00D-14  LOCALI  =  1.00D-09  EORDER  =  1.00D-04
 ENERGY  =  1.00D-12  ETEST   =  0.00D+00  EDENS   =  0.00D+00  THRDEDEF=  1.00D-06  GRADIENT=  1.00D-02  STEP    =  1.00D-03
 ORBITAL =  1.00D-10  CIVEC   =  1.00D-05  COEFF   =  1.00D-04  PRINTCI =  5.00D-02  PUNCHCI =  9.90D+01  OPTGRAD =  1.00D-06
 OPTENERG=  1.00D-06  OPTSTEP =  3.00D-04  THRGRAD =  1.00D-10  COMPRESS=  1.00D-13  VARMIN  =  1.00D-07  VARMAX  =  1.00D-03
 THRDOUB =  0.00D+00  THRDIV  =  1.00D-05  THRRED  =  1.00D-07  THRPSP  =  1.00D+00  THRDC   =  1.00D-10  THRCS   =  1.00D-10
 THRNRM  =  1.00D-08  THREQ   =  0.00D+00  THRDE   =  1.00D+00  THRREF  =  1.00D-05  SPARFAC =  1.00D+00  THRDLP  =  1.00D-07
 THRDIA  =  1.00D-10  THRDLS  =  1.00D-07  THRGPS  =  0.00D+00  THRKEX  =  0.00D+00  THRDIS  =  2.00D-01  THRVAR  =  1.00D-10
 THRLOC  =  1.00D-06  THRGAP  =  1.00D-06  THRLOCT = -1.00D+00  THRGAPT = -1.00D+00  THRORB  =  1.00D-06  THRMLTP =  0.00D+00
 THRCPQCI=  1.00D-10  KEXTA   =  0.00D+00  THRCOARS=  0.00D+00  SYMTOL  =  1.00D-06  GRADTOL =  1.00D-06  THROVL  =  1.00D-08
 THRORTH =  1.00D-08  GRID    =  1.00D-06  GRIDMAX =  1.00D-03  DTMAX   =  0.00D+00

 SETTING GEOMTYP        =    XYZ
 ZUNIT=BOHR
 

 Variable memory set to 1000000000 words,  buffer space   230000 words

 SETTING BASIS          =    AVDZ,H=VDZ


 Recomputing integrals since basis changed


 Using spherical harmonics

 Library entry C      S aug-cc-pVDZ          selected for orbital group  1
 Library entry C      P aug-cc-pVDZ          selected for orbital group  1
 Library entry C      D aug-cc-pVDZ          selected for orbital group  1
 Library entry O      S aug-cc-pVDZ          selected for orbital group  2
 Library entry O      P aug-cc-pVDZ          selected for orbital group  2
 Library entry O      D aug-cc-pVDZ          selected for orbital group  2
 Library entry H      S cc-pVDZ              selected for orbital group  3
 Library entry H      P cc-pVDZ              selected for orbital group  3

1PROGRAM * SEWARD (Integral evaluation for generally contracted gaussian basis sets)     Author: Roland Lindh, 1990

 Geometry written to block  1 of record 700


 Point group  C2h 



 ATOMIC COORDINATES

 NR  ATOM    CHARGE       X              Y              Z

   1  C       6.00   -3.501274050   -0.830567838    0.000000000
   2  C       6.00    3.501274050    0.830567838    0.000000000
   3  O       8.00   -3.099030956    1.630714175    0.000000000
   4  O       8.00    3.099030956   -1.630714175    0.000000000
   5  O       8.00   -1.882585881   -2.477619428    0.000000000
   6  O       8.00    1.882585881    2.477619428    0.000000000
   7  H       1.00   -5.519579323   -1.277422947    0.000000000
   8  H       1.00    5.519579323    1.277422947    0.000000000
   9  H       1.00   -1.247566134    1.965960574    0.000000000
  10  H       1.00    1.247566134   -1.965960574    0.000000000

 Bond lengths in Bohr (Angstrom)

 1-3  2.493934373  1-5  2.309313822  1-7  2.067180606  2-4  2.493934373  2-6  2.309313822
     ( 1.319733231)     ( 1.222036243)     ( 1.093904864)     ( 1.319733231)     ( 1.222036243)

  2- 8  2.067180606   3- 9  1.881571719   4-10  1.881571719
       ( 1.093904864)       ( 0.995684871)       ( 0.995684871)

 Bond angles

  1- 3- 9  109.54509197   2- 4-10  109.54509197   3- 1- 5  126.21591259   3- 1- 7  111.76566679

  4-2-6  126.21591259   4-2-8  111.76566679   5-1-7  122.01842062   6-2-8  122.01842062

 NUCLEAR CHARGE:                   48
 NUMBER OF PRIMITIVE AOS:         250
 NUMBER OF SYMMETRY AOS:          238
 NUMBER OF CONTRACTIONS:          158   (  56Ag  +  23Au  +  56Bu  +  23Bg  )
 NUMBER OF CORE ORBITALS:           6   (   3Ag  +   0Au  +   3Bu  +   0Bg  )
 NUMBER OF VALENCE ORBITALS:       28   (  11Ag  +   3Au  +  11Bu  +   3Bg  )


 NUCLEAR REPULSION ENERGY  235.33105291


 Eigenvalues of metric

         1 0.128E-02 0.143E-02 0.279E-02 0.696E-02 0.734E-02 0.776E-02 0.121E-01 0.127E-01
         2 0.379E-01 0.477E-01 0.744E-01 0.106E+00 0.149E+00 0.219E+00 0.250E+00 0.279E+00
         3 0.781E-03 0.199E-02 0.423E-02 0.476E-02 0.704E-02 0.841E-02 0.112E-01 0.117E-01
         4 0.271E-01 0.521E-01 0.619E-01 0.138E+00 0.162E+00 0.222E+00 0.260E+00 0.285E+00


 Contracted 2-electron integrals neglected if value below      1.0D-16
 AO integral compression algorithm  1   Integral accuracy      1.0D-16

     221.250 MB (compressed) written to integral file (100.0%)

     Node minimum: 221.250 MB, node maximum: 221.250 MB


 NUMBER OF SORTED TWO-ELECTRON INTEGRALS:   20758224.     BUFFER LENGTH:  32768
 NUMBER OF SEGMENTS:   2  SEGMENT LENGTH:   15997776      RECORD LENGTH: 524288

 Memory used in sort:      16.55 MW

 SORT1 READ    26969232. AND WROTE    20758224. INTEGRALS IN     60 RECORDS. CPU TIME:     0.35 SEC, REAL TIME:     0.50 SEC
 SORT2 READ    20758224. AND WROTE    20758224. INTEGRALS IN    844 RECORDS. CPU TIME:     0.25 SEC, REAL TIME:     0.34 SEC

 FILE SIZES:   FILE 1:   173.7 MBYTE,  FILE 4:   251.7 MBYTE,   TOTAL:    425.4 MBYTE

 OPERATOR DM      FOR CENTER  0  COORDINATES:    0.000000    0.000000    0.000000


 **********************************************************************************************************************************
 DATASETS  * FILE   NREC   LENGTH (MB)   RECORD NAMES
              1      19      173.79       500      610      700      900      950      970     1000      129      960     1100   
                                          VAR    BASINP    GEOM    SYMINP    ZMAT    AOBASIS   BASIS     P2S    ABASIS      S 
                                         1400     1410     1200     1210     1080     1600     1650     1300     1700   
                                           T        V       H0       H01     AOSYM     SMH    MOLCAS    ERIS     OPER   

 PROGRAMS   *        TOTAL       INT
 CPU TIMES  *         2.39      2.35
 REAL TIME  *         2.91 SEC
 DISK USED  *       647.45 MB      
 GA USED    *         0.00 MB       (max)       0.00 MB       (current)
 **********************************************************************************************************************************

1PROGRAM * RHF-SCF (CLOSED SHELL)       Authors: W. Meyer, H.-J. Werner


 NUMBER OF ELECTRONS:      24+   24-
 CONVERGENCE THRESHOLDS:    1.00E-10 (Density)    1.00E-13 (Energy)
 MAX. NUMBER OF ITERATIONS:      200
 INTERPOLATION TYPE:            DIIS
 INTERPOLATION STEPS:              2 (START)      1 (STEP)
 LEVEL SHIFTS:                  0.00 (CLOSED)  0.00 (OPEN) 



 Orbital guess generated from atomic densities. Full valence occupancy:   14   3  14   3

 Molecular orbital dump at record        2100.2

 Initial alpha occupancy:  10   2  10   2
 Initial beta  occupancy:  10   2  10   2
 Wave function symmetry:    1

 ITERATION    DDIFF          GRAD             ENERGY        2-EL.EN.            DIPOLE MOMENTS         DIIS
    1      0.000D+00      0.000D+00      -377.47376401    745.939372    0.00000    0.00000    0.00000    0
    2      0.000D+00      0.133D-01      -377.56209583    743.127909    0.00000    0.00000    0.00000    1
    3      0.252D-01      0.836D-02      -377.60963792    745.413791    0.00000    0.00000    0.00000    2
    4      0.942D-02      0.119D-02      -377.61125177    745.012997    0.00000    0.00000    0.00000    3
    5      0.183D-02      0.505D-03      -377.61153555    745.051785    0.00000    0.00000    0.00000    4
    6      0.759D-03      0.143D-03      -377.61158007    745.103429    0.00000    0.00000    0.00000    5
    7      0.257D-03      0.638D-04      -377.61159079    745.085293    0.00000    0.00000    0.00000    6
    8      0.148D-03      0.201D-04      -377.61159206    745.090861    0.00000    0.00000    0.00000    7
    9      0.548D-04      0.661D-05      -377.61159217    745.089529    0.00000    0.00000    0.00000    8
   10      0.178D-04      0.181D-05      -377.61159218    745.089760    0.00000    0.00000    0.00000    7
   11      0.492D-05      0.534D-06      -377.61159218    745.089681    0.00000    0.00000    0.00000    8
   12      0.144D-05      0.165D-06      -377.61159218    745.089715    0.00000    0.00000    0.00000    8
   13      0.411D-06      0.667D-07      -377.61159218    745.089695    0.00000    0.00000    0.00000    8
   14      0.121D-06      0.218D-07      -377.61159218    745.089699    0.00000    0.00000    0.00000    8
   15      0.510D-07      0.734D-08      -377.61159218    745.089700    0.00000    0.00000    0.00000    8
   16      0.140D-07      0.231D-08      -377.61159218    745.089699    0.00000    0.00000    0.00000    8
   17      0.409D-08      0.582D-09      -377.61159218    745.089699    0.00000    0.00000    0.00000    8
   18      0.108D-08      0.180D-09      -377.61159218    745.089699    0.00000    0.00000    0.00000    8
   19      0.371D-09      0.562D-10      -377.61159218    745.089699    0.00000    0.00000    0.00000    8
   20      0.120D-09      0.150D-10      -377.61159218    745.089699    0.00000    0.00000    0.00000    7
   21      0.366D-10      0.362D-11      -377.61159218    745.089699    0.00000    0.00000    0.00000    7
   22      0.923D-11      0.141D-11      -377.61159218    745.089699    0.00000    0.00000    0.00000    7
   23      0.334D-11      0.370D-12      -377.61159218    745.089699    0.00000    0.00000    0.00000    7
   24      0.954D-12      0.184D-12      -377.61159218    745.089699    0.00000    0.00000    0.00000    0

 Final occupancy:  10   2  10   2

 !RHF STATE 1.1 Energy               -377.611592183752
 Nuclear energy                       235.33105291
 One-electron energy                 -985.48749468
 Two-electron energy                  372.54484959
 Virial quotient                       -1.00170176
 !RHF STATE 1.1 Dipole moment           0.00000000     0.00000000     0.00000000
 Dipole moment /Debye                   0.00000000     0.00000000     0.00000000

 Orbital energies:

         1.1          2.1          3.1          4.1          5.1          6.1          7.1          8.1          9.1         10.1
    -20.625866   -20.588081   -11.420335    -1.488808    -1.377806    -0.921247    -0.734686    -0.697714    -0.622782    -0.497961

        11.1         12.1
      0.070565     0.092995

         1.2          2.2          3.2          4.2
     -0.644602    -0.495175     0.080707     0.139899

         1.3          2.3          3.3          4.3          5.3          6.3          7.3          8.3          9.3         10.3
    -20.625865   -20.588082   -11.420337    -1.476046    -1.391862    -0.885478    -0.771353    -0.726026    -0.581843    -0.475804

        11.3         12.3
      0.069481     0.088197

         1.4          2.4          3.4          4.4
     -0.634222    -0.506917     0.092926     0.174382


 **********************************************************************************************************************************
 DATASETS  * FILE   NREC   LENGTH (MB)   RECORD NAMES
              1      19      173.79       500      610      700      900      950      970     1000      129      960     1100   
                                          VAR    BASINP    GEOM    SYMINP    ZMAT    AOBASIS   BASIS     P2S    ABASIS      S 
                                         1400     1410     1200     1210     1080     1600     1650     1300     1700   
                                           T        V       H0       H01     AOSYM     SMH    MOLCAS    ERIS     OPER   

              2       3        0.59       700     1000     2100   
                                         GEOM     BASIS     RHF  

 PROGRAMS   *        TOTAL       RHF       INT
 CPU TIMES  *         3.65      1.26      2.35
 REAL TIME  *         4.50 SEC
 DISK USED  *       647.45 MB      
 GA USED    *         0.00 MB       (max)       0.00 MB       (current)
 **********************************************************************************************************************************


1PROGRAM * CCSD (Closed-shell coupled cluster)     Authors: C. Hampel, H.-J. Werner, 1991, M. Deegan, P.J. Knowles, 1992


 Convergence thresholds:  THRVAR = 1.00D-08  THRDEN = 1.00D-12

 CCSD(T)     terms to be evaluated (factor= 1.000)


 Number of core orbitals:           6 (   3   0   3   0 )
 Number of closed-shell orbitals:  18 (   7   2   7   2 )
 Number of external orbitals:     134 (  46  21  46  21 )

 Molecular orbitals read from record     2100.2  Type=RHF/CANONICAL (state 1.1)

 Number of N-1 electron functions:              18
 Number of N-2 electron functions:             171
 Number of singly external CSFs:               728
 Number of doubly external CSFs:            759674
 Total number of CSFs:                      760403

 Length of J-op  integral file:               0.00 MB
 Length of K-op  integral file:               0.54 MB
 Length of 3-ext integral record:             0.00 MB

 Memory could be reduced to 14.96 Mwords without degradation in triples

 Integral transformation finished. Total CPU:   0.48 sec, npass=  1  Memory used:   4.79 MW

 Reference energy:                   -377.61159218

 MP2 singlet pair energy:              -0.63231354
 MP2 triplet pair energy:              -0.43069429
 MP2 correlation energy:               -1.06300783
 MP2 total energy:                   -378.67460001

 SCS-MP2 correlation energy:           -1.02676381   (PS=  1.200000  PT=  0.333333)
 SCS-MP2 total energy:               -378.63835599

 ITER.      SQ.NORM     CORR.ENERGY   TOTAL ENERGY   ENERGY CHANGE        DEN1      VAR(S)    VAR(P)  DIIS     TIME
   1      1.30316340    -1.08033126  -378.69192345    -0.01732343     0.01561051  0.11D-01  0.60D-02  1  1     1.40
   2      1.32782701    -1.08142510  -378.69301729    -0.00109384    -0.02626507  0.24D-03  0.10D-02  2  2     2.37
   3      1.34107230    -1.08228480  -378.69387698    -0.00085970    -0.00596348  0.21D-03  0.45D-04  3  3     3.34
   4      1.34642986    -1.08201577  -378.69360795     0.00026903    -0.00177392  0.19D-04  0.81D-05  4  4     4.32
   5      1.34853850    -1.08192595  -378.69351813     0.00008982    -0.00047216  0.17D-05  0.74D-06  5  5     5.29
   6      1.34892599    -1.08190563  -378.69349782     0.00002032    -0.00002214  0.14D-06  0.86D-07  6  6     6.26
   7      1.34900962    -1.08189599  -378.69348817     0.00000964    -0.00000611  0.13D-07  0.12D-07  6  2     7.24
   8      1.34901557    -1.08189685  -378.69348903    -0.00000086     0.00000235  0.20D-08  0.12D-08  6  1     8.22
   9      1.34901632    -1.08189666  -378.69348884     0.00000019     0.00000128  0.34D-09  0.18D-09  6  4     9.20
  10      1.34901813    -1.08189649  -378.69348867     0.00000017    -0.00000052  0.84D-10  0.26D-10  6  3    10.18
  11      1.34901766    -1.08189661  -378.69348879    -0.00000012     0.00000023  0.20D-10  0.49D-11  6  5    11.15
  12      1.34901739    -1.08189663  -378.69348881    -0.00000002     0.00000004  0.35D-11  0.13D-11  6  6    12.13
  13      1.34901708    -1.08189667  -378.69348885    -0.00000004     0.00000011  0.56D-12  0.25D-12  6  1    13.11
  14      1.34901697    -1.08189667  -378.69348886    -0.00000001     0.00000002  0.73D-13  0.36D-13  6  2    14.08
  15      1.34901694    -1.08189667  -378.69348886    -0.00000000     0.00000000  0.13D-13  0.55D-14  6  4    15.06
  16      1.34901694    -1.08189667  -378.69348886    -0.00000000    -0.00000000  0.25D-14  0.11D-14  6  3    16.04
  17      1.34901693    -1.08189667  -378.69348886    -0.00000000    -0.00000000  0.29D-15  0.18D-15  6  6    17.01
  18      1.34901693    -1.08189667  -378.69348886    -0.00000000     0.00000000  0.37D-16  0.18D-16  6  5    17.98
  19      1.34901693    -1.08189667  -378.69348886    -0.00000000     0.00000000  0.92D-17  0.28D-17  6  1    18.96
  20      1.34901693    -1.08189667  -378.69348886     0.00000000    -0.00000000  0.17D-17  0.81D-18  6  5    19.94
  21      1.34901693    -1.08189667  -378.69348886    -0.00000000     0.00000000  0.17D-18  0.92D-19  6  2    20.92
  22      1.34901693    -1.08189667  -378.69348886     0.00000000    -0.00000000  0.11D-19  0.12D-19  6  3    21.90
  23      1.34901693    -1.08189667  -378.69348886     0.00000000     0.00000000  0.97D-21  0.57D-21  6  4    22.88
  24      1.34901693    -1.08189667  -378.69348886     0.00000000     0.00000000  0.24D-21  0.91D-22  6  6    23.87

 Norm of t1 vector:      0.15439055      S-energy:    -0.00000000      T1 diagnostic:  0.01819510
                                                                       D1 diagnostic:  0.06258957

 Singles amplitudes (print threshold =  0.500E-01):

         I         SYM. A    A   T(IA)

        17         4         2     -0.05279463


 Total CPU time for triples:     22.01 sec


 RESULTS
 =======

  Reference energy                   -377.611592183752
  CCSD singlet pair energy             -0.703332183212
  CCSD triplet pair energy             -0.378564490697
  CCSD correlation energy              -1.081896673910

  Triples (T) contribution             -0.039534891457
  Total correlation energy             -1.121431565366

  CCSD total energy                  -378.693488857662
  CCSD[T] energy                     -378.736688735547
  CCSD-T energy                      -378.731762692169
 !CCSD(T) total energy               -378.733023749119

 Timing summary (sec):

 STEP                 CPU(USER)    SYS     CPU(TOT)    WALL
 Transformation          0.50      0.09      0.59      0.59
 CCSD iterations        23.37      1.25     24.62     24.67
 Triples                22.01      0.86     22.87     22.89

 Program statistics:

 Available memory in ccsd:               999998604
 Min. memory needed in ccsd:               1971250
 Max. memory used in ccsd:                 2664424
 Max. memory used in cckext:               2549270 (24 integral passes)



 **********************************************************************************************************************************
 DATASETS  * FILE   NREC   LENGTH (MB)   RECORD NAMES
              1      20      233.02       500      610      700      900      950      970     1000      129      960     1100   
                                          VAR    BASINP    GEOM    SYMINP    ZMAT    AOBASIS   BASIS     P2S    ABASIS      S 
                                         1400     1410     1200     1210     1080     1600     1650     1300     1700     1380   
                                           T        V       H0       H01     AOSYM     SMH    MOLCAS    ERIS     OPER     JKOP   

              2       3        0.59       700     1000     2100   
                                         GEOM     BASIS     RHF  

 PROGRAMS   *        TOTAL   CCSD(T)       RHF       INT
 CPU TIMES  *        49.54     45.89      1.26      2.35
 REAL TIME  *        52.68 SEC
 DISK USED  *       647.45 MB      
 GA USED    *         0.00 MB       (max)       0.00 MB       (current)
 **********************************************************************************************************************************

        CCSD(T)         RHF-SCF 
   -378.73302375   -377.61159218
 **********************************************************************************************************************************
 Variable memory released
