
 Primary working directories    : /tmp/1049102.1463.gen4.q
 Secondary working directories  : /tmp/1049102.1463.gen4.q
 Wavefunction directory         : /home/vulcan/mel64643/wfu/
 Main file repository           : /tmp/1049102.1463.gen4.q/

 ARCHNAME  : Linux/x86_64
 FC        : /opt/intel/compilers_and_libraries_2016.1.150/linux/bin/intel64/ifort
 FCVERSION : 16.0.1
 BLASLIB   : -mkl
 id        : ccgc

 Nodes     nprocs
 n061         1
 ga_uses_ma=false, calling ma_init with nominal heap.
 GA-space will be limited to   8.0 MW (determined by -G option)

 Using customized tuning parameters: mindgm=10; mindgv=16; mindgc=4; mindgr=1; noblas=0; mincuda=1000; minvec=7
 default implementation of scratch files=df  

 ***,Optimization of h2o_3
 memory,1000,m
 gthresh,energy=1.0d-12,orbital=1.0d-10,oneint=1.0d-16,twoint=1.0d-16,optgrad=1.0d-6,compress=1.0d-13
 geomtyp=xyz
 
 
 
 bohr
 geometry = {
  C    0.9155421913    1.4056237665   -2.2729004544
  C    0.7395633125    2.7093467748    0.0186148629
  C    0.9981447528    1.4059152760    2.3026123830
  C    1.4311068919   -1.2012914627    2.2950957501
  C    1.6078130531   -2.5045229871    0.0036226634
  C    1.3492900600   -1.2008678340   -2.2801707208
  H    0.7049128102    2.4220089601   -4.0384651351
  H    0.3783457840    4.7250844710    0.0204860876
  H    0.8659779289    2.4211212854    4.0766829121
  H    1.6300046840   -2.2187424208    4.0618231153
  H    1.9313346442   -4.5271323748    0.0021218870
  H    1.4945673830   -2.2133178139   -4.0550774318
  N   -5.4427751622   -0.3572827092   -0.0705229188
  H   -5.5914591664   -1.5686378082   -1.5509977944
  H   -6.0693505569   -1.3154451407    1.4691096850
  H   -3.5620867434   -0.0736495806    0.1980427859
 }
 
 basis=aug-cc-pvdz, H=cc-pvdz
 {rhf;maxit,200}
 {ccsd(t)}

 Variables initialized (661), CPU time= 0.01 sec
 Commands  initialized (458), CPU time= 0.00 sec, 486 directives.
 Default parameters read. Elapsed time= 0.04 sec

 Checking input...
 Passed
1


                                         ***  PROGRAM SYSTEM MOLPRO  ***
                         Copyright, University College Cardiff Consultants Limited, 2008

                                    Version 2010.1 linked May 16 2016 07:17:05


 **********************************************************************************************************************************
 LABEL *   Optimization of h2o_3                                                         
 Linux-4.4.3/n061(x86_64) 64 bit mpp version                                             DATE: 21-Mar-24          TIME: 04:46:22  
 **********************************************************************************************************************************

 SHA1:             9e8077add272b0f3cad6f7df79ec5211205f459d
 **********************************************************************************************************************************

 THRESHOLDS:

 ZERO    =  1.00D-12  ONEINT  =  1.00D-16  TWOINT  =  1.00D-16  PREFAC  =  1.00D-14  LOCALI  =  1.00D-09  EORDER  =  1.00D-04
 ENERGY  =  1.00D-12  ETEST   =  0.00D+00  EDENS   =  0.00D+00  THRDEDEF=  1.00D-06  GRADIENT=  1.00D-02  STEP    =  1.00D-03
 ORBITAL =  1.00D-10  CIVEC   =  1.00D-05  COEFF   =  1.00D-04  PRINTCI =  5.00D-02  PUNCHCI =  9.90D+01  OPTGRAD =  1.00D-06
 OPTENERG=  1.00D-06  OPTSTEP =  3.00D-04  THRGRAD =  1.00D-10  COMPRESS=  1.00D-13  VARMIN  =  1.00D-07  VARMAX  =  1.00D-03
 THRDOUB =  0.00D+00  THRDIV  =  1.00D-05  THRRED  =  1.00D-07  THRPSP  =  1.00D+00  THRDC   =  1.00D-10  THRCS   =  1.00D-10
 THRNRM  =  1.00D-08  THREQ   =  0.00D+00  THRDE   =  1.00D+00  THRREF  =  1.00D-05  SPARFAC =  1.00D+00  THRDLP  =  1.00D-07
 THRDIA  =  1.00D-10  THRDLS  =  1.00D-07  THRGPS  =  0.00D+00  THRKEX  =  0.00D+00  THRDIS  =  2.00D-01  THRVAR  =  1.00D-10
 THRLOC  =  1.00D-06  THRGAP  =  1.00D-06  THRLOCT = -1.00D+00  THRGAPT = -1.00D+00  THRORB  =  1.00D-06  THRMLTP =  0.00D+00
 THRCPQCI=  1.00D-10  KEXTA   =  0.00D+00  THRCOARS=  0.00D+00  SYMTOL  =  1.00D-06  GRADTOL =  1.00D-06  THROVL  =  1.00D-08
 THRORTH =  1.00D-08  GRID    =  1.00D-06  GRIDMAX =  1.00D-03  DTMAX   =  0.00D+00

 SETTING GEOMTYP        =    XYZ
 ZUNIT=BOHR
 

 Variable memory set to 1000000000 words,  buffer space   230000 words

 SETTING BASIS          =    AUG-CC-PVDZ,H=CC-PVDZ


 Recomputing integrals since basis changed


 Using spherical harmonics

 Library entry C      S aug-cc-pVDZ          selected for orbital group  1
 Library entry C      P aug-cc-pVDZ          selected for orbital group  1
 Library entry C      D aug-cc-pVDZ          selected for orbital group  1
 Library entry H      S cc-pVDZ              selected for orbital group  2
 Library entry H      P cc-pVDZ              selected for orbital group  2
 Library entry N      S aug-cc-pVDZ          selected for orbital group  3
 Library entry N      P aug-cc-pVDZ          selected for orbital group  3
 Library entry N      D aug-cc-pVDZ          selected for orbital group  3

1PROGRAM * SEWARD (Integral evaluation for generally contracted gaussian basis sets)     Author: Roland Lindh, 1990

 Geometry written to block  1 of record 700


 Point group  C1  



 ATOMIC COORDINATES

 NR  ATOM    CHARGE       X              Y              Z

   1  C       6.00    0.915542191    1.405623766   -2.272900454
   2  C       6.00    0.739563312    2.709346775    0.018614863
   3  C       6.00    0.998144753    1.405915276    2.302612383
   4  C       6.00    1.431106892   -1.201291463    2.295095750
   5  C       6.00    1.607813053   -2.504522987    0.003622663
   6  C       6.00    1.349290060   -1.200867834   -2.280170721
   7  H       1.00    0.704912810    2.422008960   -4.038465135
   8  H       1.00    0.378345784    4.725084471    0.020486088
   9  H       1.00    0.865977929    2.421121285    4.076682912
  10  H       1.00    1.630004684   -2.218742421    4.061823115
  11  H       1.00    1.931334644   -4.527132375    0.002121887
  12  H       1.00    1.494567383   -2.213317814   -4.055077432
  13  N       7.00   -5.442775162   -0.357282709   -0.070522919
  14  H       1.00   -5.591459166   -1.568637808   -1.550997794
  15  H       1.00   -6.069350557   -1.315445141    1.469109685
  16  H       1.00   -3.562086743   -0.073649581    0.198042786

 Bond lengths in Bohr (Angstrom)

 1-2  2.642291562  1-6  2.642345272  1-7  2.048077694  2-3  2.642431211  2-8  2.047847666
     ( 1.398240474)     ( 1.398268896)     ( 1.083796038)     ( 1.398314373)     ( 1.083674312)

  3- 4  2.642922566   3- 9  2.048276728   4- 5  2.642061010   4-10  2.048436566   5- 6  2.642359385
       ( 1.398574387)       ( 1.083901362)       ( 1.398118471)       ( 1.083985945)       ( 1.398276364)

  5-11  2.048320582   6-12  2.048524907  13-14  1.918669843  13-15  1.918629856  13-16  1.920823838
       ( 1.083924569)       ( 1.084032693)       ( 1.015316352)       ( 1.015295192)       ( 1.016456198)

 Bond angles

  1- 2- 3  119.98067114   1- 2- 8  119.88162812   1- 6- 5  120.02353380   1- 6-12  120.10278478

  2-1-6  120.00199142   2-1-7  119.72967398   2-3-4  120.01167992   2-3-9  119.85745427

  3- 2- 8  120.13284071   3- 4- 5  120.00136360   3- 4-10  120.22769245   4- 3- 9  120.13075470

  4- 5- 6  119.98073218   4- 5-11  119.88565861   5- 4-10  119.77093923   5- 6-12  119.87305953

  6- 1- 7  120.26759468   6- 5-11  120.13205368  14-13-15  106.17607583  14-13-16  106.08043224

 15-13-16  106.33745550

 NUCLEAR CHARGE:                   52
 NUMBER OF PRIMITIVE AOS:         322
 NUMBER OF SYMMETRY AOS:          308
 NUMBER OF CONTRACTIONS:          206   ( 206A   )
 NUMBER OF CORE ORBITALS:           7   (   7A   )
 NUMBER OF VALENCE ORBITALS:       37   (  37A   )


 NUCLEAR REPULSION ENERGY  273.71051512


 Eigenvalues of metric

         1 0.861E-05 0.184E-04 0.228E-04 0.532E-04 0.640E-04 0.647E-04 0.107E-03 0.107E-03


 Contracted 2-electron integrals neglected if value below      1.0D-16
 AO integral compression algorithm  1   Integral accuracy      1.0D-16

     1891.893 MB (compressed) written to integral file ( 94.5%)

     Node minimum: 1891.893 MB, node maximum: 1891.893 MB


 NUMBER OF SORTED TWO-ELECTRON INTEGRALS:  227303181.     BUFFER LENGTH:  32768
 NUMBER OF SEGMENTS:  15  SEGMENT LENGTH:   15999503      RECORD LENGTH: 524288

 Memory used in sort:      16.56 MW

 SORT1 READ   250230103. AND WROTE   226406684. INTEGRALS IN    654 RECORDS. CPU TIME:     2.43 SEC, REAL TIME:     3.69 SEC
 SORT2 READ   226406684. AND WROTE   227303181. INTEGRALS IN   7217 RECORDS. CPU TIME:     1.43 SEC, REAL TIME:     2.32 SEC

 FILE SIZES:   FILE 1:  1742.9 MBYTE,  FILE 4:  2743.1 MBYTE,   TOTAL:   4486.1 MBYTE

 OPERATOR DM      FOR CENTER  0  COORDINATES:    0.000000    0.000000    0.000000


 **********************************************************************************************************************************
 DATASETS  * FILE   NREC   LENGTH (MB)   RECORD NAMES
              1      19     1743.46       500      610      700      900      950      970     1000      129      960     1100   
                                          VAR    BASINP    GEOM    SYMINP    ZMAT    AOBASIS   BASIS     P2S    ABASIS      S 
                                         1400     1410     1200     1210     1080     1600     1650     1300     1700   
                                           T        V       H0       H01     AOSYM     SMH    MOLCAS    ERIS     OPER   

 PROGRAMS   *        TOTAL       INT
 CPU TIMES  *        14.76     14.71
 REAL TIME  *        17.96 SEC
 DISK USED  *         6.38 GB      
 GA USED    *         0.01 MB       (max)       0.00 MB       (current)
 **********************************************************************************************************************************

1PROGRAM * RHF-SCF (CLOSED SHELL)       Authors: W. Meyer, H.-J. Werner


 NUMBER OF ELECTRONS:      26+   26-    SPACE SYMMETRY=1    SPIN SYMMETRY: Singlet 
 CONVERGENCE THRESHOLDS:    1.00E-10 (Density)    1.00E-13 (Energy)
 MAX. NUMBER OF ITERATIONS:      200
 INTERPOLATION TYPE:            DIIS
 INTERPOLATION STEPS:              2 (START)      1 (STEP)
 LEVEL SHIFTS:                  0.00 (CLOSED)  0.00 (OPEN) 



 Orbital guess generated from atomic densities. Full valence occupancy:   44

 Molecular orbital dump at record        2100.2

 ITERATION    DDIFF          GRAD             ENERGY        2-EL.EN.            DIPOLE MOMENTS         DIIS
    1      0.000D+00      0.000D+00      -286.85323415    740.883328    0.51948   -0.76795    0.13623    0
    2      0.000D+00      0.322D-02      -286.92079192    735.093066    0.43513   -0.38436    0.06232    1
    3      0.826D-02      0.133D-02      -286.93011983    737.724794    0.45166   -0.52281    0.09237    2
    4      0.218D-02      0.381D-03      -286.93133787    737.205037    0.45026   -0.49610    0.08459    3
    5      0.783D-03      0.526D-04      -286.93136167    737.193797    0.45608   -0.50618    0.08856    4
    6      0.135D-03      0.177D-04      -286.93136410    737.208700    0.45494   -0.50069    0.08647    5
    7      0.510D-04      0.553D-05      -286.93136438    737.205613    0.45559   -0.50291    0.08722    6
    8      0.149D-04      0.129D-05      -286.93136440    737.204611    0.45574   -0.50255    0.08708    7
    9      0.417D-05      0.542D-06      -286.93136440    737.205068    0.45578   -0.50264    0.08711    7
   10      0.148D-05      0.143D-06      -286.93136440    737.205017    0.45578   -0.50265    0.08711    7
   11      0.515D-06      0.408D-07      -286.93136440    737.205003    0.45579   -0.50264    0.08711    7
   12      0.140D-06      0.173D-07      -286.93136440    737.205017    0.45579   -0.50265    0.08711    8
   13      0.604D-07      0.752D-08      -286.93136440    737.205012    0.45579   -0.50265    0.08711    8
   14      0.331D-07      0.359D-08      -286.93136440    737.205014    0.45579   -0.50265    0.08711    8
   15      0.199D-07      0.137D-08      -286.93136440    737.205013    0.45579   -0.50265    0.08711    8
   16      0.709D-08      0.455D-09      -286.93136440    737.205013    0.45579   -0.50265    0.08711    9
   17      0.213D-08      0.124D-09      -286.93136440    737.205013    0.45579   -0.50265    0.08711    9
   18      0.399D-09      0.382D-10      -286.93136440    737.205013    0.45579   -0.50265    0.08711    8
   19      0.245D-09      0.154D-10      -286.93136440    737.205013    0.45579   -0.50265    0.08711    9
   20      0.142D-09      0.825D-11      -286.93136440    737.205013    0.45579   -0.50265    0.08711    9
   21      0.999D-10      0.409D-11      -286.93136440    737.205013    0.45579   -0.50265    0.08711    9
   22      0.146D-09      0.117D-11      -286.93136440    737.205013    0.45579   -0.50265    0.08711    9
   23      0.123D-09      0.754D-12      -286.93136440    737.205013    0.45579   -0.50265    0.08711    9
   24      0.773D-10      0.630D-12      -286.93136440    737.205013    0.45579   -0.50265    0.08711    9
   25      0.611D-10      0.501D-12      -286.93136440    737.205013    0.45579   -0.50265    0.08711    9
   26      0.445D-10      0.468D-12      -286.93136440    737.205013    0.45579   -0.50265    0.08711    9
   27      0.261D-10      0.520D-12      -286.93136440    737.205013    0.45579   -0.50265    0.08711    9
   28      0.214D-10      0.515D-12      -286.93136440    737.205013    0.45579   -0.50265    0.08711    9
   29      0.267D-10      0.488D-12      -286.93136440    737.205013    0.45579   -0.50265    0.08711    9
   30      0.144D-10      0.506D-12      -286.93136440    737.205013    0.45579   -0.50265    0.08711    9
   31      0.512D-11      0.546D-12      -286.93136440    737.205013    0.45579   -0.50265    0.08711    9
   32      0.165D-10      0.469D-12      -286.93136440    737.205013    0.45579   -0.50265    0.08711    9
   33      0.140D-10      0.404D-12      -286.93136440    737.205013    0.45579   -0.50265    0.08711    9
   34      0.110D-10      0.492D-12      -286.93136440    737.205013    0.45579   -0.50265    0.08711    9
   35      0.188D-10      0.533D-12      -286.93136440    737.205013    0.45579   -0.50265    0.08711    9
   36      0.198D-10      0.462D-12      -286.93136440    737.205013    0.45579   -0.50265    0.08711    9
   37      0.111D-10      0.452D-12      -286.93136440    737.205013    0.45579   -0.50265    0.08711    0

 Final occupancy:  26

 !RHF STATE 1.1 Energy               -286.931364398998
 Nuclear energy                       273.71051512
 One-electron energy                 -929.24438598
 Two-electron energy                  368.60250646
 Virial quotient                       -1.00146527
 !RHF STATE 1.1 Dipole moment           0.45578908    -0.50264560     0.08711146
 Dipole moment /Debye                   1.15842441    -1.27751401     0.22140075

 Orbital energies:

         1.1          2.1          3.1          4.1          5.1          6.1          7.1          8.1          9.1         10.1
    -15.535006   -11.250625   -11.250058   -11.249662   -11.248790   -11.248677   -11.247807    -1.157503    -1.125560    -1.022045

        11.1         12.1         13.1         14.1         15.1         16.1         17.1         18.1         19.1         20.1
     -1.021960    -0.830907    -0.830267    -0.714500    -0.650451    -0.623930    -0.611679    -0.609818    -0.593578    -0.593442

        21.1         22.1         23.1         24.1         25.1         26.1         27.1         28.1
     -0.504994    -0.500317    -0.499710    -0.413437    -0.342977    -0.341988     0.063883     0.066445


 **********************************************************************************************************************************
 DATASETS  * FILE   NREC   LENGTH (MB)   RECORD NAMES
              1      19     1743.46       500      610      700      900      950      970     1000      129      960     1100   
                                          VAR    BASINP    GEOM    SYMINP    ZMAT    AOBASIS   BASIS     P2S    ABASIS      S 
                                         1400     1410     1200     1210     1080     1600     1650     1300     1700   
                                           T        V       H0       H01     AOSYM     SMH    MOLCAS    ERIS     OPER   

              2       3        1.40       700     1000     2100   
                                         GEOM     BASIS     RHF  

 PROGRAMS   *        TOTAL       RHF       INT
 CPU TIMES  *        79.06     64.30     14.71
 REAL TIME  *        89.23 SEC
 DISK USED  *         6.38 GB      
 GA USED    *         0.01 MB       (max)       0.00 MB       (current)
 **********************************************************************************************************************************


1PROGRAM * CCSD (Closed-shell coupled cluster)     Authors: C. Hampel, H.-J. Werner, 1991, M. Deegan, P.J. Knowles, 1992


 Convergence thresholds:  THRVAR = 1.00D-08  THRDEN = 1.00D-12

 CCSD(T)     terms to be evaluated (factor= 1.000)


 Number of core orbitals:           7 (   7 )
 Number of closed-shell orbitals:  19 (  19 )
 Number of external orbitals:     180 ( 180 )

 Molecular orbitals read from record     2100.2  Type=RHF/CANONICAL (state 1.1)

 Number of N-1 electron functions:              19
 Number of N-2 electron functions:             190
 Number of singly external CSFs:              3420
 Number of doubly external CSFs:           5849910
 Total number of CSFs:                     5853331

 Length of J-op  integral file:               0.00 MB
 Length of K-op  integral file:               2.96 MB
 Length of 3-ext integral record:             0.00 MB

 Memory could be reduced to 140.12 Mwords without degradation in triples

 Integral transformation finished. Total CPU:  13.93 sec, npass=  1  Memory used: 101.90 MW

 Reference energy:                   -286.93136440

 MP2 singlet pair energy:              -0.62063242
 MP2 triplet pair energy:              -0.38983477
 MP2 correlation energy:               -1.01046719
 MP2 total energy:                   -287.94183158

 SCS-MP2 correlation energy:           -0.98732276   (PS=  1.200000  PT=  0.333333)
 SCS-MP2 total energy:               -287.91868716

 ITER.      SQ.NORM     CORR.ENERGY   TOTAL ENERGY   ENERGY CHANGE        DEN1      VAR(S)    VAR(P)  DIIS     TIME
   1      1.38488336    -1.05475898  -287.98612338    -0.04429180    -0.01721310  0.36D-02  0.80D-02  1  1    50.84
   2      1.41439718    -1.06062169  -287.99198609    -0.00586271    -0.02705371  0.63D-04  0.10D-02  2  2    88.21
   3      1.42352723    -1.06071736  -287.99208176    -0.00009567    -0.00464265  0.27D-04  0.84D-04  3  3   125.62
   4      1.42746431    -1.06088612  -287.99225052    -0.00016876    -0.00121405  0.22D-05  0.11D-04  4  4   163.04
   5      1.42867823    -1.06091705  -287.99228145    -0.00003093    -0.00027332  0.27D-06  0.13D-05  5  5   200.50
   6      1.42898107    -1.06090681  -287.99227121     0.00001024    -0.00004356  0.23D-07  0.79D-07  6  6   237.96
   7      1.42902182    -1.06090845  -287.99227285    -0.00000163    -0.00000103  0.35D-08  0.82D-08  6  2   275.43
   8      1.42903104    -1.06090830  -287.99227270     0.00000014    -0.00000118  0.75D-09  0.76D-09  6  1   312.88
   9      1.42903088    -1.06090844  -287.99227284    -0.00000013     0.00000123  0.21D-09  0.92D-10  6  4   350.34
  10      1.42903208    -1.06090845  -287.99227285    -0.00000001    -0.00000018  0.57D-10  0.15D-10  6  3   387.79
  11      1.42903202    -1.06090847  -287.99227286    -0.00000002     0.00000013  0.14D-10  0.37D-11  6  5   425.24
  12      1.42903198    -1.06090847  -287.99227287    -0.00000000     0.00000003  0.15D-11  0.10D-11  6  6   462.69
  13      1.42903181    -1.06090847  -287.99227287    -0.00000000     0.00000006  0.69D-13  0.20D-12  6  2   500.14
  14      1.42903170    -1.06090847  -287.99227287    -0.00000000     0.00000003  0.81D-14  0.40D-13  6  1   537.61
  15      1.42903165    -1.06090847  -287.99227287    -0.00000000     0.00000001  0.89D-15  0.54D-14  6  3   575.09
  16      1.42903162    -1.06090847  -287.99227287    -0.00000000     0.00000000  0.12D-15  0.37D-15  6  4   612.55
  17      1.42903162    -1.06090847  -287.99227287    -0.00000000     0.00000000  0.31D-16  0.44D-16  6  5   650.01
  18      1.42903162    -1.06090847  -287.99227287    -0.00000000     0.00000000  0.81D-17  0.70D-17  6  6   687.44
  19      1.42903162    -1.06090847  -287.99227287    -0.00000000     0.00000000  0.24D-17  0.76D-18  6  2   724.88
  20      1.42903162    -1.06090847  -287.99227287    -0.00000000     0.00000000  0.76D-18  0.18D-18  6  1   762.34
  21      1.42903162    -1.06090847  -287.99227287    -0.00000000     0.00000000  0.29D-18  0.78D-19  6  3   799.84
  22      1.42903162    -1.06090847  -287.99227287    -0.00000000     0.00000000  0.12D-18  0.37D-19  6  4   837.30
  23      1.42903162    -1.06090847  -287.99227287    -0.00000000     0.00000000  0.50D-19  0.20D-19  6  6   874.81

 Norm of t1 vector:      0.08385746      S-energy:    -0.00000000      T1 diagnostic:  0.00961911
                                                                       D1 diagnostic:  0.02619251

 Doubles amplitudes (print threshold =  0.500E-01):

         I         J         SYM. A    SYM. B    A         B      T(IJ, AB)

        18        18         1         1         6         6     -0.05235145
        19        19         1         1         7         7     -0.05525876


 Total CPU time for triples:    733.58 sec


 RESULTS
 =======

  Reference energy                   -286.931364398999
  CCSD singlet pair energy             -0.711156550882
  CCSD triplet pair energy             -0.349751922312
  CCSD correlation energy              -1.060908473194

  Triples (T) contribution             -0.045602989443
  Total correlation energy             -1.106511462638

  CCSD total energy                  -287.992272872193
  CCSD[T] energy                     -288.038746080729
  CCSD-T energy                      -288.037487316408
 !CCSD(T) total energy               -288.037875861636

 Timing summary (sec):

 STEP                 CPU(USER)    SYS     CPU(TOT)    WALL
 Transformation         14.34      0.84     15.18     15.18
 CCSD iterations       860.49     12.27    872.76    873.11
 Triples               733.58     11.41    744.99    745.07

 Program statistics:

 Available memory in ccsd:               999998456
 Min. memory needed in ccsd:              14392275
 Max. memory used in ccsd:                19775697
 Max. memory used in cckext:              16737545 (23 integral passes)



 **********************************************************************************************************************************
 DATASETS  * FILE   NREC   LENGTH (MB)   RECORD NAMES
              1      20     2287.06       500      610      700      900      950      970     1000      129      960     1100   
                                          VAR    BASINP    GEOM    SYMINP    ZMAT    AOBASIS   BASIS     P2S    ABASIS      S 
                                         1400     1410     1200     1210     1080     1600     1650     1300     1700     1380   
                                           T        V       H0       H01     AOSYM     SMH    MOLCAS    ERIS     OPER     JKOP   

              2       3        1.40       700     1000     2100   
                                         GEOM     BASIS     RHF  

 PROGRAMS   *        TOTAL   CCSD(T)       RHF       INT
 CPU TIMES  *      1687.48   1608.42     64.30     14.71
 REAL TIME  *      1722.69 SEC
 DISK USED  *         6.38 GB      
 GA USED    *         0.01 MB       (max)       0.00 MB       (current)
 **********************************************************************************************************************************

        CCSD(T)         RHF-SCF 
   -288.03787586   -286.93136440
 **********************************************************************************************************************************
 Variable memory released
