
 Primary working directories    : /tmp/985636.456.gen4.q
 Secondary working directories  : /tmp/985636.456.gen4.q
 Wavefunction directory         : /home/vulcan/jj04645/wfu/
 Main file repository           : /tmp/985636.456.gen4.q/

 ARCHNAME  : Linux/x86_64
 FC        : /opt/intel/compilers_and_libraries_2016.1.150/linux/bin/intel64/ifort
 FCVERSION : 16.0.1
 BLASLIB   : -mkl
 id        : ccgc

 Nodes     nprocs
 n067         1
 ga_uses_ma=false, calling ma_init with nominal heap.
 GA-space will be limited to   8.0 MW (determined by -G option)

 Using customized tuning parameters: mindgm=10; mindgv=16; mindgc=4; mindgr=1; noblas=0; mincuda=1000; minvec=7
 default implementation of scratch files=df  

 ***,Optimization of tetrahydrothiopyran
 memory,1000,m
 gthresh,energy=1.0d-12,orbital=1.0d-10,oneint=1.0d-16,twoint=1.0d-16,optgrad=1.0d-6,compress=1.0d-13
 geomtyp=xyz
 
 bohr
 geometry = {
  S    0.3513028981    2.7002864020    0.0017885956
  C   -0.3289281343   -3.3666098740   -0.0029690073
  C   -0.6636477241    0.6701067118   -2.5800238386
  C   -0.6635648687    0.6723256305    2.5787202454
  C    0.4726208145   -1.9852867624   -2.4123873878
  C    0.4725913591   -1.9831243471    2.4112175961
  H   -2.7299094125    0.5722523136   -2.5844252662
  H   -2.7298335708    0.5745750459    2.5819904827
  H   -0.0738375606    1.6253922734   -4.3101074644
  H   -0.0746843921    1.6271660447    4.3093662096
  H    2.5346187368   -1.8368840051   -2.4730909506
  H    2.5346968526   -1.8419684485    2.4842907021
  H   -0.1332853609   -3.0772957790   -4.0624717089
  H   -0.1216955905   -3.0766633955    4.0645111646
  H    0.4662430999   -5.2735036850   -0.0028254121
  H   -2.3914221631   -3.5805895421   -0.0035839603
 }
 
 basis=VDZ
 {rhf;maxit,200}
 {ccsd(t);maxit,200}

 Variables initialized (661), CPU time= 0.00 sec
 Commands  initialized (458), CPU time= 0.00 sec, 486 directives.
 Default parameters read. Elapsed time= 0.05 sec

 Checking input...
 Passed
1


                                         ***  PROGRAM SYSTEM MOLPRO  ***
                         Copyright, University College Cardiff Consultants Limited, 2008

                                    Version 2010.1 linked May 16 2016 07:17:05


 **********************************************************************************************************************************
 LABEL *   Optimization of tetrahydrothiopyran                                           
 Linux-4.4.3/n067(x86_64) 64 bit mpp version                                             DATE: 26-Jan-24          TIME: 13:04:14  
 **********************************************************************************************************************************

 SHA1:             9e8077add272b0f3cad6f7df79ec5211205f459d
 **********************************************************************************************************************************

 THRESHOLDS:

 ZERO    =  1.00D-12  ONEINT  =  1.00D-16  TWOINT  =  1.00D-16  PREFAC  =  1.00D-14  LOCALI  =  1.00D-09  EORDER  =  1.00D-04
 ENERGY  =  1.00D-12  ETEST   =  0.00D+00  EDENS   =  0.00D+00  THRDEDEF=  1.00D-06  GRADIENT=  1.00D-02  STEP    =  1.00D-03
 ORBITAL =  1.00D-10  CIVEC   =  1.00D-05  COEFF   =  1.00D-04  PRINTCI =  5.00D-02  PUNCHCI =  9.90D+01  OPTGRAD =  1.00D-06
 OPTENERG=  1.00D-06  OPTSTEP =  3.00D-04  THRGRAD =  1.00D-10  COMPRESS=  1.00D-13  VARMIN  =  1.00D-07  VARMAX  =  1.00D-03
 THRDOUB =  0.00D+00  THRDIV  =  1.00D-05  THRRED  =  1.00D-07  THRPSP  =  1.00D+00  THRDC   =  1.00D-10  THRCS   =  1.00D-10
 THRNRM  =  1.00D-08  THREQ   =  0.00D+00  THRDE   =  1.00D+00  THRREF  =  1.00D-05  SPARFAC =  1.00D+00  THRDLP  =  1.00D-07
 THRDIA  =  1.00D-10  THRDLS  =  1.00D-07  THRGPS  =  0.00D+00  THRKEX  =  0.00D+00  THRDIS  =  2.00D-01  THRVAR  =  1.00D-10
 THRLOC  =  1.00D-06  THRGAP  =  1.00D-06  THRLOCT = -1.00D+00  THRGAPT = -1.00D+00  THRORB  =  1.00D-06  THRMLTP =  0.00D+00
 THRCPQCI=  1.00D-10  KEXTA   =  0.00D+00  THRCOARS=  0.00D+00  SYMTOL  =  1.00D-06  GRADTOL =  1.00D-06  THROVL  =  1.00D-08
 THRORTH =  1.00D-08  GRID    =  1.00D-06  GRIDMAX =  1.00D-03  DTMAX   =  0.00D+00

 SETTING GEOMTYP        =    XYZ
 ZUNIT=BOHR
 

 Variable memory set to 1000000000 words,  buffer space   230000 words

 SETTING BASIS          =    VDZ


 Recomputing integrals since basis changed


 Using spherical harmonics

 Library entry S      S cc-pVDZ              selected for orbital group  1
 Library entry S      P cc-pVDZ              selected for orbital group  1
 Library entry S      D cc-pVDZ              selected for orbital group  1
 Library entry C      S cc-pVDZ              selected for orbital group  2
 Library entry C      P cc-pVDZ              selected for orbital group  2
 Library entry C      D cc-pVDZ              selected for orbital group  2
 Library entry H      S cc-pVDZ              selected for orbital group  3
 Library entry H      P cc-pVDZ              selected for orbital group  3

1PROGRAM * SEWARD (Integral evaluation for generally contracted gaussian basis sets)     Author: Roland Lindh, 1990

 Geometry written to block  1 of record 700


 Point group  C1  



 ATOMIC COORDINATES

 NR  ATOM    CHARGE       X              Y              Z

   1  S      16.00    0.351302898    2.700286402    0.001788596
   2  C       6.00   -0.328928134   -3.366609874   -0.002969007
   3  C       6.00   -0.663647724    0.670106712   -2.580023839
   4  C       6.00   -0.663564869    0.672325631    2.578720245
   5  C       6.00    0.472620814   -1.985286762   -2.412387388
   6  C       6.00    0.472591359   -1.983124347    2.411217596
   7  H       1.00   -2.729909413    0.572252314   -2.584425266
   8  H       1.00   -2.729833571    0.574575046    2.581990483
   9  H       1.00   -0.073837561    1.625392273   -4.310107464
  10  H       1.00   -0.074684392    1.627166045    4.309366210
  11  H       1.00    2.534618737   -1.836884005   -2.473090951
  12  H       1.00    2.534696853   -1.841968449    2.484290702
  13  H       1.00   -0.133285361   -3.077295779   -4.062471709
  14  H       1.00   -0.121695591   -3.076663395    4.064511165
  15  H       1.00    0.466243100   -5.273503685   -0.002825412
  16  H       1.00   -2.391422163   -3.580589542   -0.003583960

 Bond lengths in Bohr (Angstrom)

  1- 3  3.437660510   1- 4  3.432660514   2- 5  2.890645462   2- 6  2.895645465   2-15  2.066044849
       ( 1.819131594)       ( 1.816485710)       ( 1.529663698)       ( 1.532309585)       ( 1.093303847)

  2-16  2.073564394   3- 5  2.893150994   3- 7  2.068582176   3- 9  2.062434456   4- 6  2.893150998
       ( 1.097283019)       ( 1.530989568)       ( 1.094646543)       ( 1.091393309)       ( 1.530989570)

  4- 8  2.068582176   4-10  2.062434456   5-11  2.068222361   5-13  2.069392242   6-12  2.068222361
       ( 1.094646543)       ( 1.091393309)       ( 1.094456136)       ( 1.095075211)       ( 1.094456136)

  6-14  2.069392242
       ( 1.095075211)

 Bond angles

  1-3-5  112.49264278   1-3-7  108.93215704   1-3-9  105.78545990   1-4-6  112.49968455

  1- 4- 8  108.93068564   1- 4-10  105.78398849   2- 5- 3  112.20871317   2- 5-11  109.58523247

  2- 5-13  109.34634024   2- 6- 4  112.21574774   2- 6-12  109.75801319   2- 6-14  109.51912097

  3- 1- 4   97.33223798   3- 5-11  108.90527801   3- 5-13  108.85259459   4- 6-12  109.07805875

  4- 6-14  109.02537534   5- 2- 6  112.94615160   5- 2-15  109.53513072   5- 2-16  108.95802437

  5- 3- 7  110.42674083   5- 3- 9  111.18672842   6- 2-15  109.53513072   6- 2-16  108.95802437

  6- 4- 8  110.42526951   6- 4-10  111.18525705   7- 3- 9  107.80527095   8- 4-10  107.80379953

 11- 5-13  107.84083135  12- 6-14  107.10768633  15- 2-16  106.71291489

 NUCLEAR CHARGE:                   56
 NUMBER OF PRIMITIVE AOS:         247
 NUMBER OF SYMMETRY AOS:          241
 NUMBER OF CONTRACTIONS:          138   ( 138A   )
 NUMBER OF CORE ORBITALS:          10   (  10A   )
 NUMBER OF VALENCE ORBITALS:       34   (  34A   )


 NUCLEAR REPULSION ENERGY  312.13547177


 Eigenvalues of metric

         1 0.286E-02 0.305E-02 0.427E-02 0.634E-02 0.703E-02 0.151E-01 0.157E-01 0.196E-01


 Contracted 2-electron integrals neglected if value below      1.0D-16
 AO integral compression algorithm  1   Integral accuracy      1.0D-16

     374.079 MB (compressed) written to integral file ( 94.1%)

     Node minimum: 374.079 MB, node maximum: 374.079 MB


 NUMBER OF SORTED TWO-ELECTRON INTEGRALS:   45998436.     BUFFER LENGTH:  32768
 NUMBER OF SEGMENTS:   3  SEGMENT LENGTH:   15998004      RECORD LENGTH: 524288

 Memory used in sort:      16.56 MW

 SORT1 READ    49670079. AND WROTE    45796188. INTEGRALS IN    132 RECORDS. CPU TIME:     0.51 SEC, REAL TIME:     0.75 SEC
 SORT2 READ    45796188. AND WROTE    45998436. INTEGRALS IN   1427 RECORDS. CPU TIME:     0.34 SEC, REAL TIME:     0.55 SEC

 FILE SIZES:   FILE 1:   349.5 MBYTE,  FILE 4:   553.7 MBYTE,   TOTAL:    903.2 MBYTE

 OPERATOR DM      FOR CENTER  0  COORDINATES:    0.000000    0.000000    0.000000


 **********************************************************************************************************************************
 DATASETS  * FILE   NREC   LENGTH (MB)   RECORD NAMES
              1      19      349.71       500      610      700      900      950      970     1000      129      960     1100   
                                          VAR    BASINP    GEOM    SYMINP    ZMAT    AOBASIS   BASIS     P2S    ABASIS      S 
                                         1400     1410     1200     1210     1080     1600     1650     1300     1700   
                                           T        V       H0       H01     AOSYM     SMH    MOLCAS    ERIS     OPER   

 PROGRAMS   *        TOTAL       INT
 CPU TIMES  *         5.19      5.15
 REAL TIME  *         5.98 SEC
 DISK USED  *         1.28 GB      
 GA USED    *         0.01 MB       (max)       0.00 MB       (current)
 **********************************************************************************************************************************

1PROGRAM * RHF-SCF (CLOSED SHELL)       Authors: W. Meyer, H.-J. Werner


 NUMBER OF ELECTRONS:      28+   28-    SPACE SYMMETRY=1    SPIN SYMMETRY: Singlet 
 CONVERGENCE THRESHOLDS:    1.00E-10 (Density)    1.00E-13 (Energy)
 MAX. NUMBER OF ITERATIONS:      200
 INTERPOLATION TYPE:            DIIS
 INTERPOLATION STEPS:              2 (START)      1 (STEP)
 LEVEL SHIFTS:                  0.00 (CLOSED)  0.00 (OPEN) 



 Orbital guess generated from atomic densities. Full valence occupancy:   44

 Molecular orbital dump at record        2100.2

 ITERATION    DDIFF          GRAD             ENERGY        2-EL.EN.            DIPOLE MOMENTS         DIIS
    1      0.000D+00      0.000D+00      -592.64384074   1056.836109   -0.40800   -0.80313    0.00095    0
    2      0.000D+00      0.396D-02      -592.70487432   1054.256772   -0.20756   -0.73896   -0.00001    1
    3      0.778D-02      0.132D-02      -592.71081856   1055.687797   -0.28022   -0.67619    0.00002    2
    4      0.269D-02      0.540D-03      -592.71183087   1055.071973   -0.25281   -0.70934   -0.00017    3
    5      0.932D-03      0.771D-04      -592.71185653   1055.134453   -0.24893   -0.70090   -0.00019    4
    6      0.180D-03      0.266D-04      -592.71185904   1055.103504   -0.25064   -0.70119   -0.00021    5
    7      0.502D-04      0.621D-05      -592.71185924   1055.106732   -0.24997   -0.70108   -0.00021    6
    8      0.164D-04      0.174D-05      -592.71185926   1055.105864   -0.24996   -0.70094   -0.00021    7
    9      0.540D-05      0.451D-06      -592.71185927   1055.105748   -0.24994   -0.70090   -0.00021    7
   10      0.127D-05      0.161D-06      -592.71185927   1055.105786   -0.24993   -0.70090   -0.00021    7
   11      0.476D-06      0.342D-07      -592.71185927   1055.105772   -0.24993   -0.70090   -0.00021    7
   12      0.113D-06      0.682D-08      -592.71185927   1055.105778   -0.24993   -0.70090   -0.00021    7
   13      0.181D-07      0.285D-08      -592.71185927   1055.105775   -0.24993   -0.70090   -0.00021    7
   14      0.625D-08      0.836D-09      -592.71185927   1055.105776   -0.24993   -0.70090   -0.00021    7
   15      0.224D-08      0.270D-09      -592.71185927   1055.105775   -0.24993   -0.70090   -0.00021    7
   16      0.648D-09      0.843D-10      -592.71185927   1055.105776   -0.24993   -0.70090   -0.00021    8
   17      0.202D-09      0.183D-10      -592.71185927   1055.105776   -0.24993   -0.70090   -0.00021    7
   18      0.485D-10      0.556D-11      -592.71185927   1055.105776   -0.24993   -0.70090   -0.00021    7
   19      0.173D-10      0.168D-11      -592.71185927   1055.105776   -0.24993   -0.70090   -0.00021    0

 Final occupancy:  28

 !RHF STATE 1.1 Energy               -592.711859265233
 Nuclear energy                       312.13547177
 One-electron energy                -1432.40021880
 Two-electron energy                  527.55288777
 Virial quotient                       -1.00019696
 !RHF STATE 1.1 Dipole moment          -0.24993224    -0.70089698    -0.00020960
 Dipole moment /Debye                  -0.63522279    -1.78138574    -0.00053271

 Orbital energies:

         1.1          2.1          3.1          4.1          5.1          6.1          7.1          8.1          9.1         10.1
    -91.929724   -11.255088   -11.254965   -11.231128   -11.231024   -11.228972    -8.933656    -6.615556    -6.614119    -6.611917

        11.1         12.1         13.1         14.1         15.1         16.1         17.1         18.1         19.1         20.1
     -1.119516    -1.019337    -1.007092    -0.842820    -0.835422    -0.755646    -0.646638    -0.614223    -0.609750    -0.578605

        21.1         22.1         23.1         24.1         25.1         26.1         27.1         28.1         29.1         30.1
     -0.546519    -0.523533    -0.498045    -0.495705    -0.472918    -0.435047    -0.411718    -0.328539     0.176923     0.190396


 **********************************************************************************************************************************
 DATASETS  * FILE   NREC   LENGTH (MB)   RECORD NAMES
              1      19      349.71       500      610      700      900      950      970     1000      129      960     1100   
                                          VAR    BASINP    GEOM    SYMINP    ZMAT    AOBASIS   BASIS     P2S    ABASIS      S 
                                         1400     1410     1200     1210     1080     1600     1650     1300     1700   
                                           T        V       H0       H01     AOSYM     SMH    MOLCAS    ERIS     OPER   

              2       3        0.92       700     1000     2100   
                                         GEOM     BASIS     RHF  

 PROGRAMS   *        TOTAL       RHF       INT
 CPU TIMES  *        12.00      6.81      5.15
 REAL TIME  *        13.59 SEC
 DISK USED  *         1.28 GB      
 GA USED    *         0.01 MB       (max)       0.00 MB       (current)
 **********************************************************************************************************************************


1PROGRAM * CCSD (Closed-shell coupled cluster)     Authors: C. Hampel, H.-J. Werner, 1991, M. Deegan, P.J. Knowles, 1992


 Convergence thresholds:  THRVAR = 1.00D-08  THRDEN = 1.00D-12

 CCSD(T)     terms to be evaluated (factor= 1.000)


 Number of core orbitals:          10 (  10 )
 Number of closed-shell orbitals:  18 (  18 )
 Number of external orbitals:     110 ( 110 )

 Molecular orbitals read from record     2100.2  Type=RHF/CANONICAL (state 1.1)

 Number of N-1 electron functions:              18
 Number of N-2 electron functions:             171
 Number of singly external CSFs:              1980
 Number of doubly external CSFs:           1961190
 Total number of CSFs:                     1963171

 Length of J-op  integral file:               0.00 MB
 Length of K-op  integral file:               1.35 MB
 Length of 3-ext integral record:             0.00 MB

 Memory could be reduced to 32.58 Mwords without degradation in triples

 Integral transformation finished. Total CPU:   2.63 sec, npass=  1  Memory used:  30.89 MW

 Reference energy:                   -592.71185927

 MP2 singlet pair energy:              -0.53946760
 MP2 triplet pair energy:              -0.30436388
 MP2 correlation energy:               -0.84383149
 MP2 total energy:                   -593.55569075

 SCS-MP2 correlation energy:           -0.83674310   (PS=  1.200000  PT=  0.333333)
 SCS-MP2 total energy:               -593.54860236

 ITER.      SQ.NORM     CORR.ENERGY   TOTAL ENERGY   ENERGY CHANGE        DEN1      VAR(S)    VAR(P)  DIIS     TIME
   1      1.33970213    -0.91080960  -593.62266887    -0.06697812    -0.04302055  0.26D-02  0.55D-02  1  1    10.63
   2      1.36669437    -0.91615679  -593.62801605    -0.00534718    -0.02577649  0.69D-04  0.46D-03  2  2    18.72
   3      1.37202554    -0.91628469  -593.62814395    -0.00012790    -0.00303736  0.16D-04  0.28D-04  3  3    26.83
   4      1.37351732    -0.91634274  -593.62820201    -0.00005806    -0.00059371  0.76D-06  0.20D-05  4  4    34.95
   5      1.37375753    -0.91634936  -593.62820863    -0.00000662    -0.00007079  0.17D-06  0.16D-06  5  5    43.05
   6      1.37380299    -0.91634492  -593.62820419     0.00000444    -0.00001390  0.30D-07  0.14D-07  6  6    51.16
   7      1.37381050    -0.91634481  -593.62820407     0.00000011     0.00000064  0.53D-08  0.23D-08  6  2    59.27
   8      1.37381655    -0.91634450  -593.62820376     0.00000031    -0.00000124  0.73D-09  0.26D-09  6  1    67.36
   9      1.37381737    -0.91634443  -593.62820370     0.00000006     0.00000050  0.66D-10  0.44D-10  6  4    75.47
  10      1.37381825    -0.91634440  -593.62820367     0.00000003    -0.00000011  0.47D-11  0.35D-11  6  3    83.56
  11      1.37381826    -0.91634440  -593.62820367    -0.00000000     0.00000004  0.12D-11  0.53D-12  6  5    91.67
  12      1.37381823    -0.91634440  -593.62820367    -0.00000000     0.00000002  0.17D-12  0.77D-13  6  6    99.75
  13      1.37381818    -0.91634441  -593.62820367    -0.00000000     0.00000002  0.24D-13  0.10D-13  6  1   107.85
  14      1.37381817    -0.91634441  -593.62820367    -0.00000000     0.00000000  0.30D-14  0.12D-14  6  2   115.93
  15      1.37381817    -0.91634441  -593.62820367     0.00000000    -0.00000000  0.66D-15  0.30D-15  6  4   124.03
  16      1.37381817    -0.91634441  -593.62820367     0.00000000    -0.00000000  0.31D-16  0.23D-16  6  5   132.13
  17      1.37381817    -0.91634441  -593.62820367     0.00000000    -0.00000000  0.56D-17  0.24D-17  6  3   140.20
  18      1.37381817    -0.91634441  -593.62820367     0.00000000    -0.00000000  0.18D-17  0.48D-18  6  6   148.30
  19      1.37381817    -0.91634441  -593.62820367     0.00000000    -0.00000000  0.37D-18  0.11D-18  6  1   156.41
  20      1.37381817    -0.91634441  -593.62820367     0.00000000     0.00000000  0.46D-19  0.17D-19  6  2   164.50
  21      1.37381817    -0.91634441  -593.62820367    -0.00000000     0.00000000  0.85D-20  0.35D-20  6  4   172.58

 Norm of t1 vector:      0.07011856      S-energy:    -0.00000000      T1 diagnostic:  0.00826355
                                                                       D1 diagnostic:  0.02104246


 Total CPU time for triples:    123.19 sec


 RESULTS
 =======

  Reference energy                   -592.711859265231
  CCSD singlet pair energy             -0.634226457472
  CCSD triplet pair energy             -0.282117949367
  CCSD correlation energy              -0.916344406840

  Triples (T) contribution             -0.029866596547
  Total correlation energy             -0.946211003388

  CCSD total energy                  -593.628203672071
  CCSD[T] energy                     -593.658689527939
  CCSD-T energy                      -593.657758954641
 !CCSD(T) total energy               -593.658070268618

 Timing summary (sec):

 STEP                 CPU(USER)    SYS     CPU(TOT)    WALL
 Transformation          2.74      0.24      2.98      2.98
 CCSD iterations       169.84      2.98    172.82    172.88
 Triples               123.19      2.29    125.48    125.47

 Program statistics:

 Available memory in ccsd:               999998604
 Min. memory needed in ccsd:               5123362
 Max. memory used in ccsd:                 6867976
 Max. memory used in cckext:               6836871 (21 integral passes)



 **********************************************************************************************************************************
 DATASETS  * FILE   NREC   LENGTH (MB)   RECORD NAMES
              1      20      486.09       500      610      700      900      950      970     1000      129      960     1100   
                                          VAR    BASINP    GEOM    SYMINP    ZMAT    AOBASIS   BASIS     P2S    ABASIS      S 
                                         1400     1410     1200     1210     1080     1600     1650     1300     1700     1380   
                                           T        V       H0       H01     AOSYM     SMH    MOLCAS    ERIS     OPER     JKOP   

              2       3        0.92       700     1000     2100   
                                         GEOM     BASIS     RHF  

 PROGRAMS   *        TOTAL   CCSD(T)       RHF       INT
 CPU TIMES  *       307.79    295.79      6.81      5.15
 REAL TIME  *       314.97 SEC
 DISK USED  *         1.28 GB      
 GA USED    *         0.01 MB       (max)       0.00 MB       (current)
 **********************************************************************************************************************************

        CCSD(T)         RHF-SCF 
   -593.65807027   -592.71185927
 **********************************************************************************************************************************
 Variable memory released
