
 Primary working directories    : /tmp/1011018.117.gen4.q
 Secondary working directories  : /tmp/1011018.117.gen4.q
 Wavefunction directory         : /home/vulcan/mel64643/wfu/
 Main file repository           : /tmp/1011018.117.gen4.q/

 ARCHNAME  : Linux/x86_64
 FC        : /opt/intel/compilers_and_libraries_2016.1.150/linux/bin/intel64/ifort
 FCVERSION : 16.0.1
 BLASLIB   : -mkl
 id        : ccgc

 Nodes     nprocs
 n065         1
 ga_uses_ma=false, calling ma_init with nominal heap.
 GA-space will be limited to   8.0 MW (determined by -G option)

 Using customized tuning parameters: mindgm=10; mindgv=16; mindgc=4; mindgr=1; noblas=0; mincuda=1000; minvec=7
 default implementation of scratch files=df  

 ***,Optimization of ethene_ethyne
 memory,1000,m
 gthresh,energy=1.0d-12,orbital=1.0d-10,oneint=1.0d-16,twoint=1.0d-16,optgrad=1.0d-6,compress=1.0d-13
 geomtyp=xyz
 
 
 
 bohr
 geometry = {
  C   -0.0037696784   -1.2664560479   -3.9716431150
  C    0.0037766722    1.2632944852   -3.9720543033
  H    1.7419871775   -2.3287709122   -3.9731403040
  H   -1.7452270286   -2.3358045441   -3.9731275263
  H   -1.7505228979    2.3308071519   -3.9739043778
  H    1.7537556946    2.3378752055   -3.9738967698
  C   -0.0000004695   -0.0000491810    5.4004222377
  C    0.0000004989   -0.0004231461    3.1120298923
  H    0.0000013519   -0.0007524958    1.0966514472
  H   -0.0000013207    0.0002794845    7.4116142699
  X    2.0000000000    0.0000000000    5.4004221540
  X    0.0000000000    2.0000000000    5.4004221540
  X    2.0000000000    0.0000000000    3.1120297780
  X    0.0000000000    2.0000000000    3.1120297780
 }
 
 basis=aug-cc-pvdz, H=cc-pvdz
 {rhf;maxit,200}
 {mp2}

 Variables initialized (661), CPU time= 0.01 sec
 Commands  initialized (458), CPU time= 0.00 sec, 486 directives.
 Default parameters read. Elapsed time= 0.04 sec

 Checking input...
 Passed
1


                                         ***  PROGRAM SYSTEM MOLPRO  ***
                         Copyright, University College Cardiff Consultants Limited, 2008

                                    Version 2010.1 linked May 16 2016 07:17:05


 **********************************************************************************************************************************
 LABEL *   Optimization of ethene_ethyne                                                 
 Linux-4.4.3/n065(x86_64) 64 bit mpp version                                             DATE: 25-Feb-24          TIME: 03:15:07  
 **********************************************************************************************************************************

 SHA1:             9e8077add272b0f3cad6f7df79ec5211205f459d
 **********************************************************************************************************************************

 THRESHOLDS:

 ZERO    =  1.00D-12  ONEINT  =  1.00D-16  TWOINT  =  1.00D-16  PREFAC  =  1.00D-14  LOCALI  =  1.00D-09  EORDER  =  1.00D-04
 ENERGY  =  1.00D-12  ETEST   =  0.00D+00  EDENS   =  0.00D+00  THRDEDEF=  1.00D-06  GRADIENT=  1.00D-02  STEP    =  1.00D-03
 ORBITAL =  1.00D-10  CIVEC   =  1.00D-05  COEFF   =  1.00D-04  PRINTCI =  5.00D-02  PUNCHCI =  9.90D+01  OPTGRAD =  1.00D-06
 OPTENERG=  1.00D-06  OPTSTEP =  3.00D-04  THRGRAD =  1.00D-10  COMPRESS=  1.00D-13  VARMIN  =  1.00D-07  VARMAX  =  1.00D-03
 THRDOUB =  0.00D+00  THRDIV  =  1.00D-05  THRRED  =  1.00D-07  THRPSP  =  1.00D+00  THRDC   =  1.00D-10  THRCS   =  1.00D-10
 THRNRM  =  1.00D-08  THREQ   =  0.00D+00  THRDE   =  1.00D+00  THRREF  =  1.00D-05  SPARFAC =  1.00D+00  THRDLP  =  1.00D-07
 THRDIA  =  1.00D-10  THRDLS  =  1.00D-07  THRGPS  =  0.00D+00  THRKEX  =  0.00D+00  THRDIS  =  2.00D-01  THRVAR  =  1.00D-10
 THRLOC  =  1.00D-06  THRGAP  =  1.00D-06  THRLOCT = -1.00D+00  THRGAPT = -1.00D+00  THRORB  =  1.00D-06  THRMLTP =  0.00D+00
 THRCPQCI=  1.00D-10  KEXTA   =  0.00D+00  THRCOARS=  0.00D+00  SYMTOL  =  1.00D-06  GRADTOL =  1.00D-06  THROVL  =  1.00D-08
 THRORTH =  1.00D-08  GRID    =  1.00D-06  GRIDMAX =  1.00D-03  DTMAX   =  0.00D+00

 SETTING GEOMTYP        =    XYZ
 ZUNIT=BOHR
 

 Variable memory set to 1000000000 words,  buffer space   230000 words

 SETTING BASIS          =    AUG-CC-PVDZ,H=CC-PVDZ


 Recomputing integrals since basis changed


 Using spherical harmonics

 Library entry C      S aug-cc-pVDZ          selected for orbital group  1
 Library entry C      P aug-cc-pVDZ          selected for orbital group  1
 Library entry C      D aug-cc-pVDZ          selected for orbital group  1
 Library entry H      S cc-pVDZ              selected for orbital group  2
 Library entry H      P cc-pVDZ              selected for orbital group  2

1PROGRAM * SEWARD (Integral evaluation for generally contracted gaussian basis sets)     Author: Roland Lindh, 1990

 Geometry written to block  1 of record 700


 Point group  C1  



 ATOMIC COORDINATES

 NR  ATOM    CHARGE       X              Y              Z

   1  C       6.00   -0.003769678   -1.266456048   -3.971643115
   2  C       6.00    0.003776672    1.263294485   -3.972054303
   3  H       1.00    1.741987177   -2.328770912   -3.973140304
   4  H       1.00   -1.745227029   -2.335804544   -3.973127526
   5  H       1.00   -1.750522898    2.330807152   -3.973904378
   6  H       1.00    1.753755695    2.337875206   -3.973896770
   7  C       6.00   -0.000000470   -0.000049181    5.400422238
   8  C       6.00    0.000000499   -0.000423146    3.112029892
   9  H       1.00    0.000001352   -0.000752496    1.096651447
  10  H       1.00   -0.000001321    0.000279484    7.411614270

 Bond lengths in Bohr (Angstrom)

 1-2  2.529761822  1-3  2.043570922  1-4  2.043570922  2-5  2.053570962  2-6  2.053570962
     ( 1.338692300)     ( 1.081411157)     ( 1.081411157)     ( 1.086702950)     ( 1.086702950)

  7- 8  2.288392376   7-10  2.011192059   8- 9  2.015378472
       ( 1.210965091)       ( 1.064277001)       ( 1.066492355)

 Bond angles

  1-2-5  121.15010235   1-2-6  121.72306076   2-1-3  121.15010235   2-1-4  121.72306076

  3- 1- 4  117.12675152   5- 2- 6  117.12675152   7- 8- 9  180.00000000   8- 7-10  179.99999879

 NUCLEAR CHARGE:                   30
 NUMBER OF PRIMITIVE AOS:         190
 NUMBER OF SYMMETRY AOS:          182
 NUMBER OF CONTRACTIONS:          122   ( 122A   )
 NUMBER OF CORE ORBITALS:           4   (   4A   )
 NUMBER OF VALENCE ORBITALS:       22   (  22A   )


 NUCLEAR REPULSION ENERGY   85.49459269


 Eigenvalues of metric

         1 0.820E-04 0.172E-03 0.227E-03 0.269E-03 0.292E-02 0.483E-02 0.498E-02 0.575E-02


 Contracted 2-electron integrals neglected if value below      1.0D-16
 AO integral compression algorithm  1   Integral accuracy      1.0D-16

     209.453 MB (compressed) written to integral file ( 79.8%)

     Node minimum: 209.453 MB, node maximum: 209.453 MB


 NUMBER OF SORTED TWO-ELECTRON INTEGRALS:   28151256.     BUFFER LENGTH:  32768
 NUMBER OF SEGMENTS:   2  SEGMENT LENGTH:   15997996      RECORD LENGTH: 524288

 Memory used in sort:      16.56 MW

 SORT1 READ    32800823. AND WROTE    27301882. INTEGRALS IN     80 RECORDS. CPU TIME:     0.32 SEC, REAL TIME:     0.48 SEC
 SORT2 READ    27301882. AND WROTE    28151256. INTEGRALS IN    799 RECORDS. CPU TIME:     0.28 SEC, REAL TIME:     0.39 SEC

 FILE SIZES:   FILE 1:   183.9 MBYTE,  FILE 4:   335.6 MBYTE,   TOTAL:    519.5 MBYTE

 OPERATOR DM      FOR CENTER  0  COORDINATES:    0.000000    0.000000    0.000000


 **********************************************************************************************************************************
 DATASETS  * FILE   NREC   LENGTH (MB)   RECORD NAMES
              1      19      184.07       500      610      700      900      950      970     1000      129      960     1100   
                                          VAR    BASINP    GEOM    SYMINP    ZMAT    AOBASIS   BASIS     P2S    ABASIS      S 
                                         1400     1410     1200     1210     1080     1600     1650     1300     1700   
                                           T        V       H0       H01     AOSYM     SMH    MOLCAS    ERIS     OPER   

 PROGRAMS   *        TOTAL       INT
 CPU TIMES  *         2.14      2.09
 REAL TIME  *         2.67 SEC
 DISK USED  *       729.85 MB      
 GA USED    *         0.00 MB       (max)       0.00 MB       (current)
 **********************************************************************************************************************************

1PROGRAM * RHF-SCF (CLOSED SHELL)       Authors: W. Meyer, H.-J. Werner


 NUMBER OF ELECTRONS:      15+   15-    SPACE SYMMETRY=1    SPIN SYMMETRY: Singlet 
 CONVERGENCE THRESHOLDS:    1.00E-10 (Density)    1.00E-13 (Energy)
 MAX. NUMBER OF ITERATIONS:      200
 INTERPOLATION TYPE:            DIIS
 INTERPOLATION STEPS:              2 (START)      1 (STEP)
 LEVEL SHIFTS:                  0.00 (CLOSED)  0.00 (OPEN) 



 Orbital guess generated from atomic densities. Full valence occupancy:   26

 Molecular orbital dump at record        2100.2

 ITERATION    DDIFF          GRAD             ENERGY        2-EL.EN.            DIPOLE MOMENTS         DIIS
    1      0.000D+00      0.000D+00      -154.83512086    273.381574    0.00005    0.00742   -0.05893    0
    2      0.000D+00      0.346D-02      -154.86714941    271.032710    0.00001   -0.00237   -0.14635    1
    3      0.840D-02      0.108D-02      -154.87008235    271.929686    0.00003    0.00073   -0.12239    2
    4      0.210D-02      0.311D-03      -154.87047278    271.718208    0.00002   -0.00144   -0.14222    3
    5      0.868D-03      0.645D-04      -154.87048509    271.734994    0.00002   -0.00082   -0.13498    4
    6      0.155D-03      0.290D-04      -154.87048715    271.735536    0.00002   -0.00108   -0.14002    5
    7      0.495D-04      0.637D-05      -154.87048730    271.734973    0.00002   -0.00116   -0.13973    6
    8      0.154D-04      0.149D-05      -154.87048731    271.734878    0.00002   -0.00114   -0.13995    7
    9      0.394D-05      0.368D-06      -154.87048731    271.734919    0.00002   -0.00117   -0.13998    7
   10      0.121D-05      0.912D-07      -154.87048731    271.734920    0.00002   -0.00116   -0.13999    7
   11      0.242D-06      0.344D-07      -154.87048731    271.734915    0.00002   -0.00116   -0.13999    7
   12      0.792D-07      0.119D-07      -154.87048731    271.734920    0.00002   -0.00116   -0.13999    7
   13      0.349D-07      0.504D-08      -154.87048731    271.734918    0.00002   -0.00117   -0.13999    7
   14      0.138D-07      0.268D-08      -154.87048731    271.734918    0.00002   -0.00117   -0.13999    8
   15      0.115D-07      0.109D-08      -154.87048731    271.734918    0.00002   -0.00117   -0.13999    8
   16      0.383D-08      0.508D-09      -154.87048731    271.734918    0.00002   -0.00117   -0.13999    8
   17      0.180D-08      0.223D-09      -154.87048731    271.734918    0.00002   -0.00117   -0.13999    9
   18      0.867D-09      0.538D-10      -154.87048731    271.734918    0.00002   -0.00117   -0.13999    9
   19      0.181D-09      0.183D-10      -154.87048731    271.734918    0.00002   -0.00117   -0.13999    9
   20      0.786D-10      0.402D-11      -154.87048731    271.734918    0.00002   -0.00117   -0.13999    9
   21      0.159D-10      0.114D-11      -154.87048731    271.734918    0.00002   -0.00117   -0.13999    8
   22      0.423D-11      0.349D-12      -154.87048731    271.734918    0.00002   -0.00117   -0.13999    0

 Final occupancy:  15

 !RHF STATE 1.1 Energy               -154.870487307666
 Nuclear energy                        85.49459269
 One-electron energy                 -376.23253910
 Two-electron energy                  135.86745909
 Virial quotient                       -1.00220557
 !RHF STATE 1.1 Dipole moment           0.00002296    -0.00116532    -0.13999337
 Dipole moment /Debye                   0.00005835    -0.00296175    -0.35580434

 Orbital energies:

         1.1          2.1          3.1          4.1          5.1          6.1          7.1          8.1          9.1         10.1
    -11.250556   -11.248614   -11.248304   -11.244661    -1.044547    -1.024293    -0.802735    -0.760432    -0.671741    -0.651433

        11.1         12.1         13.1         14.1         15.1         16.1         17.1
     -0.595078    -0.515829    -0.402054    -0.402051    -0.386483     0.065101     0.065127


 **********************************************************************************************************************************
 DATASETS  * FILE   NREC   LENGTH (MB)   RECORD NAMES
              1      19      184.07       500      610      700      900      950      970     1000      129      960     1100   
                                          VAR    BASINP    GEOM    SYMINP    ZMAT    AOBASIS   BASIS     P2S    ABASIS      S 
                                         1400     1410     1200     1210     1080     1600     1650     1300     1700   
                                           T        V       H0       H01     AOSYM     SMH    MOLCAS    ERIS     OPER   

              2       3        0.79       700     1000     2100   
                                         GEOM     BASIS     RHF  

 PROGRAMS   *        TOTAL       RHF       INT
 CPU TIMES  *         7.34      5.20      2.09
 REAL TIME  *         8.38 SEC
 DISK USED  *       729.85 MB      
 GA USED    *         0.00 MB       (max)       0.00 MB       (current)
 **********************************************************************************************************************************


1PROGRAM * MP2 (Closed-shell)     Authors: C. Hampel, H.-J. Werner, 1991, M. Deegan, P.J. Knowles, 1992


 Convergence thresholds:  THRVAR = 1.00D-08  THRDEN = 1.00D-12

 Number of core orbitals:           4 (   4 )
 Number of closed-shell orbitals:  11 (  11 )
 Number of external orbitals:     107 ( 107 )

 Molecular orbitals read from record     2100.2  Type=RHF/CANONICAL (state 1.1)

 Number of N-1 electron functions:              11
 Number of N-2 electron functions:              66
 Number of singly external CSFs:              1177
 Number of doubly external CSFs:            693253
 Total number of CSFs:                      694431

 Length of J-op  integral file:               0.00 MB
 Length of K-op  integral file:               1.06 MB

 Integral transformation finished. Total CPU:   0.47 sec, npass=  1  Memory used:   1.98 MW

 Memory needed for MP2:                      0.07 MW

 SCS-MP2 correlation energy:           -0.548021553649   (PS=  1.200000  PT=  0.333333)
 SCS-MP2 total energy:               -155.418508861314


  Reference energy                   -154.870487307665
  MP2 singlet pair energy              -0.357829710402
  MP2 triplet pair energy              -0.190648769731
  MP2 correlation energy               -0.548478480133

 !MP2 total energy                   -155.418965787799


 **********************************************************************************************************************************
 DATASETS  * FILE   NREC   LENGTH (MB)   RECORD NAMES
              1      20      196.20       500      610      700      900      950      970     1000      129      960     1100   
                                          VAR    BASINP    GEOM    SYMINP    ZMAT    AOBASIS   BASIS     P2S    ABASIS      S 
                                         1400     1410     1200     1210     1080     1600     1650     1300     1700     1380   
                                           T        V       H0       H01     AOSYM     SMH    MOLCAS    ERIS     OPER     JKOP   

              2       3        0.79       700     1000     2100   
                                         GEOM     BASIS     RHF  

 PROGRAMS   *        TOTAL       MP2       RHF       INT
 CPU TIMES  *         7.85      0.51      5.20      2.09
 REAL TIME  *         8.97 SEC
 DISK USED  *       729.85 MB      
 GA USED    *         0.00 MB       (max)       0.00 MB       (current)
 **********************************************************************************************************************************

        MP2             RHF-SCF 
   -155.41896579   -154.87048731
 **********************************************************************************************************************************
 Variable memory released
