
 Primary working directories    : /tmp/878919.790.gen6.q
 Secondary working directories  : /tmp/878919.790.gen6.q
 Wavefunction directory         : /home/vulcan/lo21740/wfu/
 Main file repository           : /tmp/878919.790.gen6.q/

 ARCHNAME  : Linux/x86_64
 FC        : /opt/intel/compilers_and_libraries_2016.1.150/linux/bin/intel64/ifort
 FCVERSION : 16.0.1
 BLASLIB   : -mkl
 id        : ccgc

 Nodes     nprocs
 n091         1
 ga_uses_ma=false, calling ma_init with nominal heap.
 GA-space will be limited to   8.0 MW (determined by -G option)

 Using customized tuning parameters: mindgm=10; mindgv=16; mindgc=4; mindgr=1; noblas=0; mincuda=1000; minvec=7
 default implementation of scratch files=df  

 ***,Optimization of formamide
 memory,1000,m
 gthresh,energy=1.0d-12,orbital=1.0d-10,oneint=1.0d-16,twoint=1.0d-16,optgrad=1.0d-6,compress=1.0d-13
 geomtyp=xyz
 
 bohr
 geometry = {
  C   -3.8238260361    0.0863700160   -0.0000000000
  O   -2.7318050670    2.1390379419    0.0000000000
  N   -2.6825442994   -2.1765394287    0.0000000000
  H   -3.7470758585   -3.7531917798    0.0000000000
  H   -0.7498176508   -2.3020076571    0.0000000000
  H   -5.8956513729   -0.0250442607    0.0000000000
  C    3.8283055611   -0.0883429170    0.0000000000
  O    2.7324213438   -2.1408886625    0.0000000000
  N    2.6817248688    2.1805287335   -0.0000000000
  H    3.7357153572    3.7661712423    0.0000000000
  H    0.7494238960    2.3014836766    0.0000000000
  H    5.9031292579    0.0124230954    0.0000000000
 }
 
 basis=VDZ
 {rhf;maxit,200}
 {ccsd(t);maxit,200}

 Variables initialized (661), CPU time= 0.00 sec
 Commands  initialized (458), CPU time= 0.00 sec, 486 directives.
 Default parameters read. Elapsed time= 0.05 sec

 Checking input...
 Passed
1


                                         ***  PROGRAM SYSTEM MOLPRO  ***
                         Copyright, University College Cardiff Consultants Limited, 2008

                                    Version 2010.1 linked May 16 2016 07:17:05


 **********************************************************************************************************************************
 LABEL *   Optimization of formamide                                                     
 Linux-4.4.3/n091(x86_64) 64 bit mpp version                                             DATE: 22-May-23          TIME: 21:38:37  
 **********************************************************************************************************************************

 SHA1:             9e8077add272b0f3cad6f7df79ec5211205f459d
 **********************************************************************************************************************************

 THRESHOLDS:

 ZERO    =  1.00D-12  ONEINT  =  1.00D-16  TWOINT  =  1.00D-16  PREFAC  =  1.00D-14  LOCALI  =  1.00D-09  EORDER  =  1.00D-04
 ENERGY  =  1.00D-12  ETEST   =  0.00D+00  EDENS   =  0.00D+00  THRDEDEF=  1.00D-06  GRADIENT=  1.00D-02  STEP    =  1.00D-03
 ORBITAL =  1.00D-10  CIVEC   =  1.00D-05  COEFF   =  1.00D-04  PRINTCI =  5.00D-02  PUNCHCI =  9.90D+01  OPTGRAD =  1.00D-06
 OPTENERG=  1.00D-06  OPTSTEP =  3.00D-04  THRGRAD =  1.00D-10  COMPRESS=  1.00D-13  VARMIN  =  1.00D-07  VARMAX  =  1.00D-03
 THRDOUB =  0.00D+00  THRDIV  =  1.00D-05  THRRED  =  1.00D-07  THRPSP  =  1.00D+00  THRDC   =  1.00D-10  THRCS   =  1.00D-10
 THRNRM  =  1.00D-08  THREQ   =  0.00D+00  THRDE   =  1.00D+00  THRREF  =  1.00D-05  SPARFAC =  1.00D+00  THRDLP  =  1.00D-07
 THRDIA  =  1.00D-10  THRDLS  =  1.00D-07  THRGPS  =  0.00D+00  THRKEX  =  0.00D+00  THRDIS  =  2.00D-01  THRVAR  =  1.00D-10
 THRLOC  =  1.00D-06  THRGAP  =  1.00D-06  THRLOCT = -1.00D+00  THRGAPT = -1.00D+00  THRORB  =  1.00D-06  THRMLTP =  0.00D+00
 THRCPQCI=  1.00D-10  KEXTA   =  0.00D+00  THRCOARS=  0.00D+00  SYMTOL  =  1.00D-06  GRADTOL =  1.00D-06  THROVL  =  1.00D-08
 THRORTH =  1.00D-08  GRID    =  1.00D-06  GRIDMAX =  1.00D-03  DTMAX   =  0.00D+00

 SETTING GEOMTYP        =    XYZ
 ZUNIT=BOHR
 

 Variable memory set to 1000000000 words,  buffer space   230000 words

 SETTING BASIS          =    VDZ


 Recomputing integrals since basis changed


 Using spherical harmonics

 Library entry C      S cc-pVDZ              selected for orbital group  1
 Library entry C      P cc-pVDZ              selected for orbital group  1
 Library entry C      D cc-pVDZ              selected for orbital group  1
 Library entry O      S cc-pVDZ              selected for orbital group  2
 Library entry O      P cc-pVDZ              selected for orbital group  2
 Library entry O      D cc-pVDZ              selected for orbital group  2
 Library entry N      S cc-pVDZ              selected for orbital group  3
 Library entry N      P cc-pVDZ              selected for orbital group  3
 Library entry N      D cc-pVDZ              selected for orbital group  3
 Library entry H      S cc-pVDZ              selected for orbital group  4
 Library entry H      P cc-pVDZ              selected for orbital group  4

1PROGRAM * SEWARD (Integral evaluation for generally contracted gaussian basis sets)     Author: Roland Lindh, 1990

 Geometry written to block  1 of record 700


 Point group  Cs  



 ATOMIC COORDINATES

 NR  ATOM    CHARGE       X              Y              Z

   1  C       6.00   -3.823826036    0.086370016    0.000000000
   2  O       8.00   -2.731805067    2.139037942    0.000000000
   3  N       7.00   -2.682544299   -2.176539429    0.000000000
   4  H       1.00   -3.747075859   -3.753191780    0.000000000
   5  H       1.00   -0.749817651   -2.302007657    0.000000000
   6  H       1.00   -5.895651373   -0.025044261    0.000000000
   7  C       6.00    3.828305561   -0.088342917    0.000000000
   8  O       8.00    2.732421344   -2.140888663    0.000000000
   9  N       7.00    2.681724869    2.180528734    0.000000000
  10  H       1.00    3.735715357    3.766171242    0.000000000
  11  H       1.00    0.749423896    2.301483677    0.000000000
  12  H       1.00    5.903129258    0.012423095    0.000000000

 Bond lengths in Bohr (Angstrom)

 1-2  2.325071055  1-3  2.534419688  1-6  2.074818876  3-4  1.902382737  3-5  1.936794923
     ( 1.230374612)     ( 1.341157137)     ( 1.097946862)     ( 1.006697587)     ( 1.024907732)

  7- 8  2.326780234   7- 9  2.542130180   7-12  2.077269160   9-10  1.903984799   9-11  1.936082939
       ( 1.231279070)       ( 1.345237353)       ( 1.099243496)       ( 1.007545362)       ( 1.024530966)

 Bond angles

  1-3-4  119.20962274   1-3-5  120.47805754   2-1-3  125.22322962   2-1-6  121.09118026

  3- 1- 6  113.68559012   4- 3- 5  120.31231972   7- 9-10  119.57778426   7- 9-11  120.39171276

  8- 7- 9  125.09170806   8- 7-12  120.87885676   9- 7-12  114.02943518  10- 9-11  120.03050298

 NUCLEAR CHARGE:                   48
 NUMBER OF PRIMITIVE AOS:         204
 NUMBER OF SYMMETRY AOS:          198
 NUMBER OF CONTRACTIONS:          114   (  84A'  +  30A"  )
 NUMBER OF CORE ORBITALS:           6   (   6A'  +   0A"  )
 NUMBER OF VALENCE ORBITALS:       30   (  24A'  +   6A"  )


 NUCLEAR REPULSION ENERGY  230.48236190


 Eigenvalues of metric

         1 0.555E-02 0.571E-02 0.108E-01 0.113E-01 0.153E-01 0.154E-01 0.239E-01 0.242E-01
         2 0.105E+00 0.106E+00 0.169E+00 0.173E+00 0.192E+00 0.196E+00 0.400E+00 0.408E+00


 Contracted 2-electron integrals neglected if value below      1.0D-16
 AO integral compression algorithm  1   Integral accuracy      1.0D-16

     84.935 MB (compressed) written to integral file ( 85.9%)

     Node minimum: 84.935 MB, node maximum: 84.935 MB


 NUMBER OF SORTED TWO-ELECTRON INTEGRALS:   11462730.     BUFFER LENGTH:  32768
 NUMBER OF SEGMENTS:   1  SEGMENT LENGTH:   11462730      RECORD LENGTH: 524288

 Memory used in sort:      12.02 MW

 SORT1 READ    12321022. AND WROTE    11136321. INTEGRALS IN     32 RECORDS. CPU TIME:     0.15 SEC, REAL TIME:     0.21 SEC
 SORT2 READ    11136321. AND WROTE    11462730. INTEGRALS IN    324 RECORDS. CPU TIME:     0.12 SEC, REAL TIME:     0.16 SEC

 FILE SIZES:   FILE 1:    81.1 MBYTE,  FILE 4:   134.3 MBYTE,   TOTAL:    215.3 MBYTE

 OPERATOR DM      FOR CENTER  0  COORDINATES:    0.000000    0.000000    0.000000


 **********************************************************************************************************************************
 DATASETS  * FILE   NREC   LENGTH (MB)   RECORD NAMES
              1      19       81.15       500      610      700      900      950      970     1000      129      960     1100   
                                          VAR    BASINP    GEOM    SYMINP    ZMAT    AOBASIS   BASIS     P2S    ABASIS      S 
                                         1400     1410     1200     1210     1080     1600     1650     1300     1700   
                                           T        V       H0       H01     AOSYM     SMH    MOLCAS    ERIS     OPER   

 PROGRAMS   *        TOTAL       INT
 CPU TIMES  *         2.14      2.10
 REAL TIME  *         2.51 SEC
 DISK USED  *       301.10 MB      
 GA USED    *         0.00 MB       (max)       0.00 MB       (current)
 **********************************************************************************************************************************

1PROGRAM * RHF-SCF (CLOSED SHELL)       Authors: W. Meyer, H.-J. Werner


 NUMBER OF ELECTRONS:      24+   24-
 CONVERGENCE THRESHOLDS:    1.00E-10 (Density)    1.00E-13 (Energy)
 MAX. NUMBER OF ITERATIONS:      200
 INTERPOLATION TYPE:            DIIS
 INTERPOLATION STEPS:              2 (START)      1 (STEP)
 LEVEL SHIFTS:                  0.00 (CLOSED)  0.00 (OPEN) 



 Orbital guess generated from atomic densities. Full valence occupancy:   30   6

 Molecular orbital dump at record        2100.2

 Initial alpha occupancy:  20   4
 Initial beta  occupancy:  20   4
 Wave function symmetry:    1

 ITERATION    DDIFF          GRAD             ENERGY        2-EL.EN.            DIPOLE MOMENTS         DIIS
    1      0.000D+00      0.000D+00      -337.77932165    705.376917    0.00491   -0.00590    0.00000    0
    2      0.000D+00      0.121D-01      -337.85787656    700.179218    0.00223   -0.00514    0.00000    1
    3      0.242D-01      0.862D-02      -337.91343191    702.652756    0.00368   -0.00430    0.00000    2
    4      0.928D-02      0.114D-02      -337.91553888    702.639388    0.00351   -0.00513    0.00000    3
    5      0.205D-02      0.400D-03      -337.91580685    702.567024    0.00353   -0.00470    0.00000    4
    6      0.737D-03      0.134D-03      -337.91587493    702.586276    0.00346   -0.00498    0.00000    5
    7      0.342D-03      0.598D-04      -337.91588633    702.581782    0.00348   -0.00483    0.00000    6
    8      0.173D-03      0.157D-04      -337.91588703    702.582224    0.00344   -0.00505    0.00000    7
    9      0.442D-04      0.430D-05      -337.91588708    702.581933    0.00349   -0.00478    0.00000    7
   10      0.113D-04      0.206D-05      -337.91588709    702.581975    0.00345   -0.00495    0.00000    7
   11      0.374D-05      0.541D-06      -337.91588709    702.582041    0.00346   -0.00493    0.00000    8
   12      0.128D-05      0.866D-07      -337.91588709    702.582013    0.00346   -0.00493    0.00000    8
   13      0.207D-06      0.334D-07      -337.91588709    702.582019    0.00346   -0.00493    0.00000    8
   14      0.662D-07      0.119D-07      -337.91588709    702.582022    0.00346   -0.00493    0.00000    7
   15      0.313D-07      0.328D-08      -337.91588709    702.582021    0.00346   -0.00493    0.00000    7
   16      0.637D-08      0.742D-09      -337.91588709    702.582021    0.00346   -0.00493    0.00000    7
   17      0.162D-08      0.341D-09      -337.91588709    702.582021    0.00346   -0.00493    0.00000    7
   18      0.724D-09      0.123D-09      -337.91588709    702.582021    0.00346   -0.00493    0.00000    7
   19      0.324D-09      0.478D-10      -337.91588709    702.582021    0.00346   -0.00493    0.00000    8
   20      0.876D-10      0.174D-10      -337.91588709    702.582021    0.00346   -0.00493    0.00000    0

 Final occupancy:  20   4

 !RHF STATE 1.1 Energy               -337.915887085983
 Nuclear energy                       230.48236190
 One-electron energy                 -919.68925936
 Two-electron energy                  351.29101038
 Virial quotient                       -1.00145703
 !RHF STATE 1.1 Dipole moment           0.00346092    -0.00492842     0.00000000
 Dipole moment /Debye                   0.00879622    -0.01252597     0.00000000

 Orbital energies:

         1.1          2.1          3.1          4.1          5.1          6.1          7.1          8.1          9.1         10.1
    -20.525667   -20.524968   -15.577546   -15.577522   -11.359497   -11.358442    -1.378249    -1.373509    -1.208016    -1.201653

        11.1         12.1         13.1         14.1         15.1         16.1         17.1         18.1         19.1         20.1
     -0.851806    -0.826700    -0.739907    -0.730950    -0.695404    -0.633962    -0.610074    -0.583555    -0.443523    -0.418493

        21.1         22.1
      0.185981     0.187913

         1.2          2.2          3.2          4.2          5.2          6.2
     -0.565080    -0.557597    -0.410516    -0.400983     0.194580     0.201549


 **********************************************************************************************************************************
 DATASETS  * FILE   NREC   LENGTH (MB)   RECORD NAMES
              1      19       81.15       500      610      700      900      950      970     1000      129      960     1100   
                                          VAR    BASINP    GEOM    SYMINP    ZMAT    AOBASIS   BASIS     P2S    ABASIS      S 
                                         1400     1410     1200     1210     1080     1600     1650     1300     1700   
                                           T        V       H0       H01     AOSYM     SMH    MOLCAS    ERIS     OPER   

              2       3        0.62       700     1000     2100   
                                         GEOM     BASIS     RHF  

 PROGRAMS   *        TOTAL       RHF       INT
 CPU TIMES  *         3.38      1.24      2.10
 REAL TIME  *         3.91 SEC
 DISK USED  *       301.10 MB      
 GA USED    *         0.00 MB       (max)       0.00 MB       (current)
 **********************************************************************************************************************************


1PROGRAM * CCSD (Closed-shell coupled cluster)     Authors: C. Hampel, H.-J. Werner, 1991, M. Deegan, P.J. Knowles, 1992


 Convergence thresholds:  THRVAR = 1.00D-08  THRDEN = 1.00D-12

 CCSD(T)     terms to be evaluated (factor= 1.000)


 Number of core orbitals:           6 (   6   0 )
 Number of closed-shell orbitals:  18 (  14   4 )
 Number of external orbitals:      90 (  64  26 )

 Molecular orbitals read from record     2100.2  Type=RHF/CANONICAL (state 1.1)

 Number of N-1 electron functions:              18
 Number of N-2 electron functions:             171
 Number of singly external CSFs:              1000
 Number of doubly external CSFs:            693010
 Total number of CSFs:                      694011

 Length of J-op  integral file:               0.00 MB
 Length of K-op  integral file:               0.59 MB
 Length of 3-ext integral record:             0.00 MB

 Memory could be reduced to 9.94 Mwords without degradation in triples

 Integral transformation finished. Total CPU:   0.38 sec, npass=  1  Memory used:   5.91 MW

 Reference energy:                   -337.91588709

 MP2 singlet pair energy:              -0.58964541
 MP2 triplet pair energy:              -0.38313646
 MP2 correlation energy:               -0.97278187
 MP2 total energy:                   -338.88866896

 SCS-MP2 correlation energy:           -0.94597052   (PS=  1.200000  PT=  0.333333)
 SCS-MP2 total energy:               -338.86185760

 ITER.      SQ.NORM     CORR.ENERGY   TOTAL ENERGY   ENERGY CHANGE        DEN1      VAR(S)    VAR(P)  DIIS     TIME
   1      1.29770130    -1.00474493  -338.92063201    -0.03196305    -0.00230915  0.96D-02  0.55D-02  1  1     1.53
   2      1.32260929    -1.00739123  -338.92327832    -0.00264631    -0.02515424  0.22D-03  0.11D-02  2  2     2.73
   3      1.33527029    -1.00836683  -338.92425392    -0.00097560    -0.00560893  0.22D-03  0.47D-04  3  3     3.92
   4      1.34063937    -1.00813831  -338.92402539     0.00022853    -0.00169807  0.20D-04  0.81D-05  4  4     5.12
   5      1.34275351    -1.00807452  -338.92396161     0.00006379    -0.00043602  0.19D-05  0.10D-05  5  5     6.31
   6      1.34322277    -1.00804373  -338.92393082     0.00003079    -0.00004171  0.15D-06  0.13D-06  6  6     7.51
   7      1.34332852    -1.00803400  -338.92392109     0.00000973    -0.00000531  0.15D-07  0.15D-07  6  2     8.70
   8      1.34334663    -1.00803409  -338.92392117    -0.00000009    -0.00000001  0.18D-08  0.17D-08  6  1     9.89
   9      1.34334814    -1.00803377  -338.92392086     0.00000031     0.00000150  0.30D-09  0.22D-09  6  4    11.09
  10      1.34335119    -1.00803374  -338.92392082     0.00000004    -0.00000043  0.78D-10  0.21D-10  6  3    12.29
  11      1.34335109    -1.00803381  -338.92392089    -0.00000007     0.00000017  0.15D-10  0.50D-11  6  5    13.49
  12      1.34335090    -1.00803383  -338.92392091    -0.00000002     0.00000008  0.32D-11  0.13D-11  6  6    14.68
  13      1.34335065    -1.00803386  -338.92392095    -0.00000003     0.00000010  0.42D-12  0.20D-12  6  2    15.89
  14      1.34335055    -1.00803387  -338.92392095    -0.00000001     0.00000003  0.86D-13  0.31D-13  6  1    17.08
  15      1.34335053    -1.00803387  -338.92392095    -0.00000000     0.00000000  0.14D-13  0.77D-14  6  4    18.28
  16      1.34335051    -1.00803387  -338.92392095    -0.00000000    -0.00000000  0.34D-14  0.13D-14  6  3    19.48
  17      1.34335051    -1.00803387  -338.92392095    -0.00000000    -0.00000000  0.85D-15  0.19D-15  6  5    20.68
  18      1.34335051    -1.00803387  -338.92392095    -0.00000000     0.00000000  0.62D-16  0.57D-16  6  6    21.88
  19      1.34335051    -1.00803387  -338.92392095    -0.00000000     0.00000000  0.28D-16  0.56D-17  6  4    23.07
  20      1.34335051    -1.00803387  -338.92392095    -0.00000000     0.00000000  0.16D-17  0.86D-18  6  2    24.27
  21      1.34335051    -1.00803387  -338.92392095    -0.00000000     0.00000000  0.34D-18  0.15D-18  6  1    25.47
  22      1.34335051    -1.00803387  -338.92392095     0.00000000    -0.00000000  0.76D-19  0.18D-19  6  3    26.65
  23      1.34335051    -1.00803387  -338.92392095     0.00000000    -0.00000000  0.11D-19  0.58D-20  6  5    27.85
  24      1.34335051    -1.00803387  -338.92392095     0.00000000    -0.00000000  0.15D-20  0.61D-21  6  6    29.05
  25      1.34335051    -1.00803387  -338.92392095     0.00000000    -0.00000000  0.24D-21  0.12D-21  6  4    30.24
  26      1.34335051    -1.00803387  -338.92392095    -0.00000000     0.00000000  0.66D-22  0.20D-22  6  2    31.43

 Norm of t1 vector:      0.14907231      S-energy:     0.00000000      T1 diagnostic:  0.01756834
                                                                       D1 diagnostic:  0.06227691

 Singles amplitudes (print threshold =  0.500E-01):

         I         SYM. A    A   T(IA)

        15         2         1      0.05723846
        16         2         2     -0.05816364


 Total CPU time for triples:     16.44 sec


 RESULTS
 =======

  Reference energy                   -337.915887085983
  CCSD singlet pair energy             -0.667933113737
  CCSD triplet pair energy             -0.340100755258
  CCSD correlation energy              -1.008033868985

  Triples (T) contribution             -0.032247323666
  Total correlation energy             -1.040281192651

  CCSD total energy                  -338.923920954969
  CCSD[T] energy                     -338.959163394166
  CCSD-T energy                      -338.955190398317
 !CCSD(T) total energy               -338.956168278634

 Timing summary (sec):

 STEP                 CPU(USER)    SYS     CPU(TOT)    WALL
 Transformation          0.40      0.07      0.47      0.47
 CCSD iterations        31.04      0.99     32.03     32.08
 Triples                16.44      0.50     16.94     16.95

 Program statistics:

 Available memory in ccsd:               999998604
 Min. memory needed in ccsd:               1904590
 Max. memory used in ccsd:                 2522532
 Max. memory used in cckext:               2734922 (26 integral passes)



 **********************************************************************************************************************************
 DATASETS  * FILE   NREC   LENGTH (MB)   RECORD NAMES
              1      20      123.95       500      610      700      900      950      970     1000      129      960     1100   
                                          VAR    BASINP    GEOM    SYMINP    ZMAT    AOBASIS   BASIS     P2S    ABASIS      S 
                                         1400     1410     1200     1210     1080     1600     1650     1300     1700     1380   
                                           T        V       H0       H01     AOSYM     SMH    MOLCAS    ERIS     OPER     JKOP   

              2       3        0.62       700     1000     2100   
                                         GEOM     BASIS     RHF  

 PROGRAMS   *        TOTAL   CCSD(T)       RHF       INT
 CPU TIMES  *        51.27     47.89      1.24      2.10
 REAL TIME  *        53.45 SEC
 DISK USED  *       332.22 MB      
 GA USED    *         0.00 MB       (max)       0.00 MB       (current)
 **********************************************************************************************************************************

        CCSD(T)         RHF-SCF 
   -338.95616828   -337.91588709
 **********************************************************************************************************************************
 Variable memory released
