
 Primary working directories    : /tmp/917005.582.gen4.q
 Secondary working directories  : /tmp/917005.582.gen4.q
 Wavefunction directory         : /home/vulcan/lo21740/wfu/
 Main file repository           : /tmp/917005.582.gen4.q/

 ARCHNAME  : Linux/x86_64
 FC        : /opt/intel/compilers_and_libraries_2016.1.150/linux/bin/intel64/ifort
 FCVERSION : 16.0.1
 BLASLIB   : -mkl
 id        : ccgc

 Nodes     nprocs
 n067         1
 ga_uses_ma=false, calling ma_init with nominal heap.
 GA-space will be limited to   8.0 MW (determined by -G option)

 Using customized tuning parameters: mindgm=10; mindgv=16; mindgc=4; mindgr=1; noblas=0; mincuda=1000; minvec=7
 default implementation of scratch files=df  

 ***,Optimization of h2o_2
 memory,1000,m
 gthresh,energy=1.0d-12,orbital=1.0d-10,oneint=1.0d-16,twoint=1.0d-16,optgrad=1.0d-6,compress=1.0d-13
 geomtyp=xyz
 
 bohr
 geometry = {
  C    0.0009489507   -3.4209979754    0.0000440281
  H   -0.9700475493   -2.7312877653   -1.6805871955
  H   -0.9700465915   -2.7327291807    1.6812666219
  H    1.9413996720   -2.7298370979    0.0003398148
  H    0.0024831497   -5.4808090726   -0.0008391289
  C   -0.0043778779    3.4190679250   -0.0012378908
  H    0.0073733259    5.4788462560   -0.0010889924
  H    0.9707628071    2.7336218230   -1.6812140728
  H    0.9673307928    2.7333983801    1.6806346433
  H   -1.9458266796    2.7307267078    0.0026821724
 }
 
 basis=VDZ
 {rhf;maxit,200}
 {ccsd(t);maxit,200}

 Variables initialized (661), CPU time= 0.00 sec
 Commands  initialized (458), CPU time= 0.01 sec, 486 directives.
 Default parameters read. Elapsed time= 0.04 sec

 Checking input...
 Passed
1


                                         ***  PROGRAM SYSTEM MOLPRO  ***
                         Copyright, University College Cardiff Consultants Limited, 2008

                                    Version 2010.1 linked May 16 2016 07:17:05


 **********************************************************************************************************************************
 LABEL *   Optimization of h2o_2                                                         
 Linux-4.4.3/n067(x86_64) 64 bit mpp version                                             DATE: 19-Jul-23          TIME: 16:22:11  
 **********************************************************************************************************************************

 SHA1:             9e8077add272b0f3cad6f7df79ec5211205f459d
 **********************************************************************************************************************************

 THRESHOLDS:

 ZERO    =  1.00D-12  ONEINT  =  1.00D-16  TWOINT  =  1.00D-16  PREFAC  =  1.00D-14  LOCALI  =  1.00D-09  EORDER  =  1.00D-04
 ENERGY  =  1.00D-12  ETEST   =  0.00D+00  EDENS   =  0.00D+00  THRDEDEF=  1.00D-06  GRADIENT=  1.00D-02  STEP    =  1.00D-03
 ORBITAL =  1.00D-10  CIVEC   =  1.00D-05  COEFF   =  1.00D-04  PRINTCI =  5.00D-02  PUNCHCI =  9.90D+01  OPTGRAD =  1.00D-06
 OPTENERG=  1.00D-06  OPTSTEP =  3.00D-04  THRGRAD =  1.00D-10  COMPRESS=  1.00D-13  VARMIN  =  1.00D-07  VARMAX  =  1.00D-03
 THRDOUB =  0.00D+00  THRDIV  =  1.00D-05  THRRED  =  1.00D-07  THRPSP  =  1.00D+00  THRDC   =  1.00D-10  THRCS   =  1.00D-10
 THRNRM  =  1.00D-08  THREQ   =  0.00D+00  THRDE   =  1.00D+00  THRREF  =  1.00D-05  SPARFAC =  1.00D+00  THRDLP  =  1.00D-07
 THRDIA  =  1.00D-10  THRDLS  =  1.00D-07  THRGPS  =  0.00D+00  THRKEX  =  0.00D+00  THRDIS  =  2.00D-01  THRVAR  =  1.00D-10
 THRLOC  =  1.00D-06  THRGAP  =  1.00D-06  THRLOCT = -1.00D+00  THRGAPT = -1.00D+00  THRORB  =  1.00D-06  THRMLTP =  0.00D+00
 THRCPQCI=  1.00D-10  KEXTA   =  0.00D+00  THRCOARS=  0.00D+00  SYMTOL  =  1.00D-06  GRADTOL =  1.00D-06  THROVL  =  1.00D-08
 THRORTH =  1.00D-08  GRID    =  1.00D-06  GRIDMAX =  1.00D-03  DTMAX   =  0.00D+00

 SETTING GEOMTYP        =    XYZ
 ZUNIT=BOHR
 

 Variable memory set to 1000000000 words,  buffer space   230000 words

 SETTING BASIS          =    VDZ


 Recomputing integrals since basis changed


 Using spherical harmonics

 Library entry C      S cc-pVDZ              selected for orbital group  1
 Library entry C      P cc-pVDZ              selected for orbital group  1
 Library entry C      D cc-pVDZ              selected for orbital group  1
 Library entry H      S cc-pVDZ              selected for orbital group  2
 Library entry H      P cc-pVDZ              selected for orbital group  2

1PROGRAM * SEWARD (Integral evaluation for generally contracted gaussian basis sets)     Author: Roland Lindh, 1990

 Geometry written to block  1 of record 700


 Point group  C1  



 ATOMIC COORDINATES

 NR  ATOM    CHARGE       X              Y              Z

   1  C       6.00    0.000948951   -3.420997975    0.000044028
   2  H       1.00   -0.970047549   -2.731287765   -1.680587196
   3  H       1.00   -0.970046592   -2.732729181    1.681266622
   4  H       1.00    1.941399672   -2.729837098    0.000339815
   5  H       1.00    0.002483150   -5.480809073   -0.000839129
   6  C       6.00   -0.004377878    3.419067925   -0.001237891
   7  H       1.00    0.007373326    5.478846256   -0.001088992
   8  H       1.00    0.970762807    2.733621823   -1.681214073
   9  H       1.00    0.967330793    2.733398380    1.680634643
  10  H       1.00   -1.945826680    2.730726708    0.002682172

 Bond lengths in Bohr (Angstrom)

 1-2  2.059867881  1-3  2.059867881  1-4  2.059867095  1-5  2.059811858  6-7  2.059811857
     ( 1.090035136)     ( 1.090035136)     ( 1.090034720)     ( 1.090005490)     ( 1.090005489)

  6- 8  2.059867881   6- 9  2.059867881   6-10  2.059867095
       ( 1.090035136)       ( 1.090035136)       ( 1.090034720)

 Bond angles

  2-1-3  109.37992579   2-1-4  109.37980975   2-1-5  109.56240831   3-1-4  109.37980975

  3-1-5  109.56240831   4-1-5  109.56250040   7-6-8  109.27575374   7-6-9  109.27575372

  7- 6-10  109.84880358   8- 6- 9  109.37975010   8- 6-10  109.66611295   9- 6-10  109.37963405

 NUCLEAR CHARGE:                   20
 NUMBER OF PRIMITIVE AOS:         110
 NUMBER OF SYMMETRY AOS:          108
 NUMBER OF CONTRACTIONS:           68   (  68A   )
 NUMBER OF CORE ORBITALS:           2   (   2A   )
 NUMBER OF VALENCE ORBITALS:       16   (  16A   )


 NUCLEAR REPULSION ENERGY   41.34660915


 Eigenvalues of metric

         1 0.113E-01 0.127E-01 0.348E-01 0.348E-01 0.356E-01 0.375E-01 0.383E-01 0.383E-01


 Contracted 2-electron integrals neglected if value below      1.0D-16
 AO integral compression algorithm  1   Integral accuracy      1.0D-16

     21.758 MB (compressed) written to integral file ( 86.6%)

     Node minimum: 21.758 MB, node maximum: 21.758 MB


 NUMBER OF SORTED TWO-ELECTRON INTEGRALS:    2753031.     BUFFER LENGTH:  32768
 NUMBER OF SEGMENTS:   1  SEGMENT LENGTH:    2753031      RECORD LENGTH: 524288

 Memory used in sort:       3.31 MW

 SORT1 READ     3104305. AND WROTE     2686380. INTEGRALS IN      8 RECORDS. CPU TIME:     0.03 SEC, REAL TIME:     0.04 SEC
 SORT2 READ     2686380. AND WROTE     2753031. INTEGRALS IN     83 RECORDS. CPU TIME:     0.05 SEC, REAL TIME:     0.06 SEC

 FILE SIZES:   FILE 1:    21.5 MBYTE,  FILE 4:    33.6 MBYTE,   TOTAL:     55.1 MBYTE

 OPERATOR DM      FOR CENTER  0  COORDINATES:    0.000000    0.000000    0.000000


 **********************************************************************************************************************************
 DATASETS  * FILE   NREC   LENGTH (MB)   RECORD NAMES
              1      19       21.56       500      610      700      900      950      970     1000      129      960     1100   
                                          VAR    BASINP    GEOM    SYMINP    ZMAT    AOBASIS   BASIS     P2S    ABASIS      S 
                                         1400     1410     1200     1210     1080     1600     1650     1300     1700   
                                           T        V       H0       H01     AOSYM     SMH    MOLCAS    ERIS     OPER   

 PROGRAMS   *        TOTAL       INT
 CPU TIMES  *         0.49      0.45
 REAL TIME  *         0.69 SEC
 DISK USED  *        77.62 MB      
 GA USED    *         0.00 MB       (max)       0.00 MB       (current)
 **********************************************************************************************************************************

1PROGRAM * RHF-SCF (CLOSED SHELL)       Authors: W. Meyer, H.-J. Werner


 NUMBER OF ELECTRONS:      10+   10-    SPACE SYMMETRY=1    SPIN SYMMETRY: Singlet 
 CONVERGENCE THRESHOLDS:    1.00E-10 (Density)    1.00E-13 (Energy)
 MAX. NUMBER OF ITERATIONS:      200
 INTERPOLATION TYPE:            DIIS
 INTERPOLATION STEPS:              2 (START)      1 (STEP)
 LEVEL SHIFTS:                  0.00 (CLOSED)  0.00 (OPEN) 



 Orbital guess generated from atomic densities. Full valence occupancy:   18

 Molecular orbital dump at record        2100.2

 ITERATION    DDIFF          GRAD             ENERGY        2-EL.EN.            DIPOLE MOMENTS         DIIS
    1      0.000D+00      0.000D+00       -80.35961876    134.839636    0.00282    0.00164    0.00099    0
    2      0.000D+00      0.637D-02       -80.39229042    132.559450    0.00099    0.00072    0.00029    1
    3      0.132D-01      0.234D-02       -80.39615256    133.361005    0.00128    0.00080    0.00039    2
    4      0.460D-02      0.630D-03       -80.39668126    133.224148    0.00111    0.00069    0.00032    3
    5      0.165D-02      0.664D-04       -80.39668578    133.230171    0.00109    0.00067    0.00032    4
    6      0.233D-03      0.393D-05       -80.39668580    133.230033    0.00109    0.00067    0.00032    5
    7      0.205D-04      0.234D-06       -80.39668580    133.230031    0.00109    0.00067    0.00032    5
    8      0.749D-06      0.408D-07       -80.39668580    133.230033    0.00109    0.00067    0.00032    4
    9      0.109D-06      0.111D-07       -80.39668580    133.230033    0.00109    0.00067    0.00032    4
   10      0.375D-07      0.234D-08       -80.39668580    133.230033    0.00109    0.00067    0.00032    5
   11      0.793D-08      0.301D-09       -80.39668580    133.230033    0.00109    0.00067    0.00032    5
   12      0.739D-09      0.941D-10       -80.39668580    133.230033    0.00109    0.00067    0.00032    6
   13      0.224D-09      0.279D-10       -80.39668580    133.230033    0.00109    0.00067    0.00032    6
   14      0.828D-10      0.445D-11       -80.39668580    133.230033    0.00109    0.00067    0.00032    0

 Final occupancy:  10

 !RHF STATE 1.1 Energy                -80.396685799738
 Nuclear energy                        41.34660915
 One-electron energy                 -188.35831151
 Two-electron energy                   66.61501656
 Virial quotient                       -1.00229870
 !RHF STATE 1.1 Dipole moment           0.00109041     0.00067186     0.00031570
 Dipole moment /Debye                   0.00277136     0.00170759     0.00080237

 Orbital energies:

         1.1          2.1          3.1          4.1          5.1          6.1          7.1          8.1          9.1         10.1
    -11.215305   -11.215276    -0.944255    -0.938376    -0.549562    -0.545622    -0.545255    -0.538310    -0.537928    -0.534250

        11.1         12.1
      0.172489     0.229236


 **********************************************************************************************************************************
 DATASETS  * FILE   NREC   LENGTH (MB)   RECORD NAMES
              1      19       21.56       500      610      700      900      950      970     1000      129      960     1100   
                                          VAR    BASINP    GEOM    SYMINP    ZMAT    AOBASIS   BASIS     P2S    ABASIS      S 
                                         1400     1410     1200     1210     1080     1600     1650     1300     1700   
                                           T        V       H0       H01     AOSYM     SMH    MOLCAS    ERIS     OPER   

              2       3        0.51       700     1000     2100   
                                         GEOM     BASIS     RHF  

 PROGRAMS   *        TOTAL       RHF       INT
 CPU TIMES  *         0.80      0.31      0.45
 REAL TIME  *         1.05 SEC
 DISK USED  *        77.62 MB      
 GA USED    *         0.00 MB       (max)       0.00 MB       (current)
 **********************************************************************************************************************************


1PROGRAM * CCSD (Closed-shell coupled cluster)     Authors: C. Hampel, H.-J. Werner, 1991, M. Deegan, P.J. Knowles, 1992


 Convergence thresholds:  THRVAR = 1.00D-08  THRDEN = 1.00D-12

 CCSD(T)     terms to be evaluated (factor= 1.000)


 Number of core orbitals:           2 (   2 )
 Number of closed-shell orbitals:   8 (   8 )
 Number of external orbitals:      58 (  58 )

 Molecular orbitals read from record     2100.2  Type=RHF/CANONICAL (state 1.1)

 Number of N-1 electron functions:               8
 Number of N-2 electron functions:              36
 Number of singly external CSFs:               464
 Number of doubly external CSFs:            107880
 Total number of CSFs:                      108345

 Length of J-op  integral file:               0.00 MB
 Length of K-op  integral file:               0.35 MB
 Length of 3-ext integral record:             0.00 MB

 Memory could be reduced to 2.66 Mwords without degradation in triples

 Integral transformation finished. Total CPU:   0.08 sec, npass=  1  Memory used:   1.86 MW

 Reference energy:                    -80.39668580

 MP2 singlet pair energy:              -0.23207883
 MP2 triplet pair energy:              -0.09155018
 MP2 correlation energy:               -0.32362901
 MP2 total energy:                    -80.72031481

 SCS-MP2 correlation energy:           -0.33545915   (PS=  1.200000  PT=  0.333333)
 SCS-MP2 total energy:                -80.73214495

 ITER.      SQ.NORM     CORR.ENERGY   TOTAL ENERGY   ENERGY CHANGE        DEN1      VAR(S)    VAR(P)  DIIS     TIME
   1      1.13421074    -0.36753045   -80.76421625    -0.04390144    -0.03297757  0.50D-03  0.24D-02  1  1     0.22
   2      1.14681945    -0.37032781   -80.76701361    -0.00279736    -0.01276531  0.15D-04  0.96D-04  2  2     0.37
   3      1.14861115    -0.37049883   -80.76718463    -0.00017101    -0.00095503  0.17D-05  0.56D-05  3  3     0.52
   4      1.14897902    -0.37051913   -80.76720493    -0.00002030    -0.00016589  0.25D-07  0.35D-06  4  4     0.67
   5      1.14902492    -0.37051665   -80.76720245     0.00000248    -0.00002390  0.18D-08  0.18D-07  5  5     0.82
   6      1.14902621    -0.37051659   -80.76720239     0.00000006    -0.00000010  0.19D-09  0.12D-08  6  6     0.98
   7      1.14902630    -0.37051685   -80.76720265    -0.00000026     0.00000014  0.13D-10  0.71D-10  6  1     1.12
   8      1.14902648    -0.37051685   -80.76720264     0.00000001    -0.00000013  0.15D-11  0.41D-11  6  2     1.27
   9      1.14902650    -0.37051683   -80.76720263     0.00000001    -0.00000003  0.15D-12  0.26D-12  6  3     1.42
  10      1.14902649    -0.37051683   -80.76720263     0.00000000     0.00000001  0.11D-13  0.23D-13  6  4     1.57
  11      1.14902649    -0.37051683   -80.76720263    -0.00000000     0.00000001  0.80D-15  0.19D-14  6  5     1.72
  12      1.14902648    -0.37051683   -80.76720263    -0.00000000     0.00000000  0.43D-16  0.23D-15  6  6     1.87
  13      1.14902648    -0.37051683   -80.76720263    -0.00000000     0.00000000  0.33D-17  0.28D-16  6  1     2.02
  14      1.14902648    -0.37051683   -80.76720263     0.00000000     0.00000000  0.59D-18  0.37D-17  6  2     2.17
  15      1.14902648    -0.37051683   -80.76720263     0.00000000     0.00000000  0.71D-19  0.37D-18  6  3     2.32
  16      1.14902648    -0.37051683   -80.76720263    -0.00000000     0.00000000  0.15D-20  0.20D-19  6  5     2.47
  17      1.14902648    -0.37051683   -80.76720263    -0.00000000     0.00000000  0.18D-21  0.56D-21  6  4     2.62
  18      1.14902648    -0.37051683   -80.76720263     0.00000000    -0.00000000  0.45D-22  0.51D-22  6  6     2.76

 Norm of t1 vector:      0.03062693      S-energy:    -0.00000000      T1 diagnostic:  0.00541413
                                                                       D1 diagnostic:  0.00879231


 Total CPU time for triples:      1.09 sec


 RESULTS
 =======

  Reference energy                    -80.396685799738
  CCSD singlet pair energy             -0.281842271219
  CCSD triplet pair energy             -0.088674559836
  CCSD correlation energy              -0.370516831056

  Triples (T) contribution             -0.007535833583
  Total correlation energy             -0.378052664639

  CCSD total energy                   -80.767202630793
  CCSD[T] energy                      -80.774914660326
  CCSD-T energy                       -80.774644021691
 !CCSD(T) total energy                -80.774738464377

 Timing summary (sec):

 STEP                 CPU(USER)    SYS     CPU(TOT)    WALL
 Transformation          0.08      0.01      0.09      0.10
 CCSD iterations         2.69      0.12      2.81      2.82
 Triples                 1.09      0.03      1.12      1.11

 Program statistics:

 Available memory in ccsd:               999999644
 Min. memory needed in ccsd:                356281
 Max. memory used in ccsd:                  442401
 Max. memory used in cckext:                403930 (18 integral passes)



 **********************************************************************************************************************************
 DATASETS  * FILE   NREC   LENGTH (MB)   RECORD NAMES
              1      20       30.02       500      610      700      900      950      970     1000      129      960     1100   
                                          VAR    BASINP    GEOM    SYMINP    ZMAT    AOBASIS   BASIS     P2S    ABASIS      S 
                                         1400     1410     1200     1210     1080     1600     1650     1300     1700     1380   
                                           T        V       H0       H01     AOSYM     SMH    MOLCAS    ERIS     OPER     JKOP   

              2       3        0.51       700     1000     2100   
                                         GEOM     BASIS     RHF  

 PROGRAMS   *        TOTAL   CCSD(T)       RHF       INT
 CPU TIMES  *         4.67      3.87      0.31      0.45
 REAL TIME  *         5.12 SEC
 DISK USED  *        77.62 MB      
 GA USED    *         0.00 MB       (max)       0.00 MB       (current)
 **********************************************************************************************************************************

        CCSD(T)         RHF-SCF 
    -80.77473846    -80.39668580
 **********************************************************************************************************************************
 Variable memory released
