
 Primary working directories    : /tmp/985636.80.gen5.q
 Secondary working directories  : /tmp/985636.80.gen5.q
 Wavefunction directory         : /home/vulcan/jj04645/wfu/
 Main file repository           : /tmp/985636.80.gen5.q/

 ARCHNAME  : Linux/x86_64
 FC        : /opt/intel/compilers_and_libraries_2016.1.150/linux/bin/intel64/ifort
 FCVERSION : 16.0.1
 BLASLIB   : -mkl
 id        : ccgc

 Nodes     nprocs
 n070         1
 ga_uses_ma=false, calling ma_init with nominal heap.
 GA-space will be limited to   8.0 MW (determined by -G option)

 Using customized tuning parameters: mindgm=10; mindgv=16; mindgc=4; mindgr=1; noblas=0; mincuda=1000; minvec=7
 default implementation of scratch files=df  

 ***,Optimization of tetrahydrothiopyran
 memory,1000,m
 gthresh,energy=1.0d-12,orbital=1.0d-10,oneint=1.0d-16,twoint=1.0d-16,optgrad=1.0d-6,compress=1.0d-13
 geomtyp=xyz
 
 bohr
 geometry = {
  S    0.3468771894    2.7062174711    0.0000000000
  C   -0.3276442715   -3.3699165532   -0.0000000000
  C   -0.6627331161    0.6720889771   -2.5862334001
  C   -0.6627331161    0.6720889771    2.5862334001
  C    0.4706165766   -1.9835467521   -2.4185079092
  C    0.4706165766   -1.9835467521    2.4185079092
  H   -2.7290229850    0.5751844747   -2.5956097751
  H   -2.7290229850    0.5751844747    2.5956097751
  H   -0.0690319370    1.6273180333   -4.3150168586
  H   -0.0690319370    1.6273180333    4.3150168586
  H    2.5326441103   -1.8403667930   -2.4898218833
  H    2.5326441103   -1.8403667930    2.4898218833
  H   -0.1331971117   -3.0762576622   -4.0688945758
  H   -0.1331971117   -3.0762576622    4.0688945758
  H    0.4729325866   -5.2745472296   -0.0000000000
  H   -2.3894515951   -3.5904156610   -0.0000000000
 }
 
 basis=VDZ
 {rhf;maxit,200}
 {ccsd(t);maxit,200}

 Variables initialized (661), CPU time= 0.01 sec
 Commands  initialized (458), CPU time= 0.01 sec, 486 directives.
 Default parameters read. Elapsed time= 0.11 sec

 Checking input...
 Passed
1


                                         ***  PROGRAM SYSTEM MOLPRO  ***
                         Copyright, University College Cardiff Consultants Limited, 2008

                                    Version 2010.1 linked May 16 2016 07:17:05


 **********************************************************************************************************************************
 LABEL *   Optimization of tetrahydrothiopyran                                           
 Linux-4.4.3/n070(x86_64) 64 bit mpp version                                             DATE: 26-Jan-24          TIME: 10:28:03  
 **********************************************************************************************************************************

 SHA1:             9e8077add272b0f3cad6f7df79ec5211205f459d
 **********************************************************************************************************************************

 THRESHOLDS:

 ZERO    =  1.00D-12  ONEINT  =  1.00D-16  TWOINT  =  1.00D-16  PREFAC  =  1.00D-14  LOCALI  =  1.00D-09  EORDER  =  1.00D-04
 ENERGY  =  1.00D-12  ETEST   =  0.00D+00  EDENS   =  0.00D+00  THRDEDEF=  1.00D-06  GRADIENT=  1.00D-02  STEP    =  1.00D-03
 ORBITAL =  1.00D-10  CIVEC   =  1.00D-05  COEFF   =  1.00D-04  PRINTCI =  5.00D-02  PUNCHCI =  9.90D+01  OPTGRAD =  1.00D-06
 OPTENERG=  1.00D-06  OPTSTEP =  3.00D-04  THRGRAD =  1.00D-10  COMPRESS=  1.00D-13  VARMIN  =  1.00D-07  VARMAX  =  1.00D-03
 THRDOUB =  0.00D+00  THRDIV  =  1.00D-05  THRRED  =  1.00D-07  THRPSP  =  1.00D+00  THRDC   =  1.00D-10  THRCS   =  1.00D-10
 THRNRM  =  1.00D-08  THREQ   =  0.00D+00  THRDE   =  1.00D+00  THRREF  =  1.00D-05  SPARFAC =  1.00D+00  THRDLP  =  1.00D-07
 THRDIA  =  1.00D-10  THRDLS  =  1.00D-07  THRGPS  =  0.00D+00  THRKEX  =  0.00D+00  THRDIS  =  2.00D-01  THRVAR  =  1.00D-10
 THRLOC  =  1.00D-06  THRGAP  =  1.00D-06  THRLOCT = -1.00D+00  THRGAPT = -1.00D+00  THRORB  =  1.00D-06  THRMLTP =  0.00D+00
 THRCPQCI=  1.00D-10  KEXTA   =  0.00D+00  THRCOARS=  0.00D+00  SYMTOL  =  1.00D-06  GRADTOL =  1.00D-06  THROVL  =  1.00D-08
 THRORTH =  1.00D-08  GRID    =  1.00D-06  GRIDMAX =  1.00D-03  DTMAX   =  0.00D+00

 SETTING GEOMTYP        =    XYZ
 ZUNIT=BOHR
 

 Variable memory set to 1000000000 words,  buffer space   230000 words

 SETTING BASIS          =    VDZ


 Recomputing integrals since basis changed


 Using spherical harmonics

 Library entry S      S cc-pVDZ              selected for orbital group  1
 Library entry S      P cc-pVDZ              selected for orbital group  1
 Library entry S      D cc-pVDZ              selected for orbital group  1
 Library entry C      S cc-pVDZ              selected for orbital group  2
 Library entry C      P cc-pVDZ              selected for orbital group  2
 Library entry C      D cc-pVDZ              selected for orbital group  2
 Library entry H      S cc-pVDZ              selected for orbital group  3
 Library entry H      P cc-pVDZ              selected for orbital group  3

1PROGRAM * SEWARD (Integral evaluation for generally contracted gaussian basis sets)     Author: Roland Lindh, 1990

 Geometry written to block  1 of record 700


 Point group  Cs  



 ATOMIC COORDINATES

 NR  ATOM    CHARGE       X              Y              Z

   1  S      16.00    0.346877189    2.706217471    0.000000000
   2  C       6.00   -0.327644271   -3.369916553    0.000000000
   3  C       6.00   -0.662733116    0.672088977   -2.586233400
   4  C       6.00   -0.662733116    0.672088977    2.586233400
   5  C       6.00    0.470616577   -1.983546752   -2.418507909
   6  C       6.00    0.470616577   -1.983546752    2.418507909
   7  H       1.00   -2.729022985    0.575184475   -2.595609775
   8  H       1.00   -2.729022985    0.575184475    2.595609775
   9  H       1.00   -0.069031937    1.627318033   -4.315016859
  10  H       1.00   -0.069031937    1.627318033    4.315016859
  11  H       1.00    2.532644110   -1.840366793   -2.489821883
  12  H       1.00    2.532644110   -1.840366793    2.489821883
  13  H       1.00   -0.133197112   -3.076257662   -4.068894576
  14  H       1.00   -0.133197112   -3.076257662    4.068894576
  15  H       1.00    0.472932587   -5.274547230    0.000000000
  16  H       1.00   -2.389451595   -3.590415661    0.000000000

 Bond lengths in Bohr (Angstrom)

  1- 3  3.441743003   1- 4  3.441743003   2- 5  2.899727938   2- 6  2.899727938   2-15  2.066044849
       ( 1.821291956)       ( 1.821291956)       ( 1.534469937)       ( 1.534469937)       ( 1.093303847)

  2-16  2.073564394   3- 5  2.892233478   3- 7  2.068582177   3- 9  2.062434456   4- 6  2.892233478
       ( 1.097283019)       ( 1.530504040)       ( 1.094646543)       ( 1.091393309)       ( 1.530504040)

  4- 8  2.068582177   4-10  2.062434456   5-11  2.068222361   5-13  2.069392242   6-12  2.068222361
       ( 1.094646543)       ( 1.091393309)       ( 1.094456136)       ( 1.095075211)       ( 1.094456136)

  6-14  2.069392242
       ( 1.095075211)

 Bond angles

  1-3-5  112.59055629   1-3-7  108.91168846   1-3-9  105.76499134   1-4-6  112.59055629

  1- 4- 8  108.91168846   1- 4-10  105.76499134   2- 5- 3  112.30183608   2- 5-11  109.65286393

  2- 5-13  109.41397171   2- 6- 4  112.30183608   2- 6-12  109.65286393   2- 6-14  109.41397171

  3- 1- 4   97.42902720   3- 5-11  108.97290949   3- 5-13  108.92022607   4- 6-12  108.97290949

  4- 6-14  108.92022607   5- 2- 6  113.03336480   5- 2-15  109.51650868   5- 2-16  108.93940233

  5- 3- 7  110.40627222   5- 3- 9  111.16625983   6- 2-15  109.51650868   6- 2-16  108.93940233

  6- 4- 8  110.40627222   6- 4-10  111.16625983   7- 3- 9  107.78480239   8- 4-10  107.78480239

 11- 5-13  107.45549995  12- 6-14  107.45549995  15- 2-16  106.69429283

 NUCLEAR CHARGE:                   56
 NUMBER OF PRIMITIVE AOS:         247
 NUMBER OF SYMMETRY AOS:          241
 NUMBER OF CONTRACTIONS:          138   (  79A'  +  59A"  )
 NUMBER OF CORE ORBITALS:          10   (   7A'  +   3A"  )
 NUMBER OF VALENCE ORBITALS:       34   (  20A'  +  14A"  )


 NUCLEAR REPULSION ENERGY  311.71465867


 Eigenvalues of metric

         1 0.307E-02 0.428E-02 0.636E-02 0.157E-01 0.198E-01 0.238E-01 0.284E-01 0.343E-01
         2 0.289E-02 0.707E-02 0.152E-01 0.196E-01 0.220E-01 0.344E-01 0.352E-01 0.358E-01


 Contracted 2-electron integrals neglected if value below      1.0D-16
 AO integral compression algorithm  1   Integral accuracy      1.0D-16

     207.094 MB (compressed) written to integral file ( 97.6%)

     Node minimum: 207.094 MB, node maximum: 207.094 MB


 NUMBER OF SORTED TWO-ELECTRON INTEGRALS:   23341315.     BUFFER LENGTH:  32768
 NUMBER OF SEGMENTS:   2  SEGMENT LENGTH:   15994315      RECORD LENGTH: 524288

 Memory used in sort:      16.55 MW

 SORT1 READ    26508670. AND WROTE    23261969. INTEGRALS IN     68 RECORDS. CPU TIME:     0.32 SEC, REAL TIME:     0.49 SEC
 SORT2 READ    23261969. AND WROTE    23341315. INTEGRALS IN    790 RECORDS. CPU TIME:     0.26 SEC, REAL TIME:     0.36 SEC

 FILE SIZES:   FILE 1:   187.9 MBYTE,  FILE 4:   285.2 MBYTE,   TOTAL:    473.1 MBYTE

 OPERATOR DM      FOR CENTER  0  COORDINATES:    0.000000    0.000000    0.000000


 **********************************************************************************************************************************
 DATASETS  * FILE   NREC   LENGTH (MB)   RECORD NAMES
              1      19      187.99       500      610      700      900      950      970     1000      129      960     1100   
                                          VAR    BASINP    GEOM    SYMINP    ZMAT    AOBASIS   BASIS     P2S    ABASIS      S 
                                         1400     1410     1200     1210     1080     1600     1650     1300     1700   
                                           T        V       H0       H01     AOSYM     SMH    MOLCAS    ERIS     OPER   

 PROGRAMS   *        TOTAL       INT
 CPU TIMES  *         4.21      4.08
 REAL TIME  *         5.12 SEC
 DISK USED  *       681.21 MB      
 GA USED    *         0.00 MB       (max)       0.00 MB       (current)
 **********************************************************************************************************************************

1PROGRAM * RHF-SCF (CLOSED SHELL)       Authors: W. Meyer, H.-J. Werner


 NUMBER OF ELECTRONS:      28+   28-
 CONVERGENCE THRESHOLDS:    1.00E-10 (Density)    1.00E-13 (Energy)
 MAX. NUMBER OF ITERATIONS:      200
 INTERPOLATION TYPE:            DIIS
 INTERPOLATION STEPS:              2 (START)      1 (STEP)
 LEVEL SHIFTS:                  0.00 (CLOSED)  0.00 (OPEN) 



 Orbital guess generated from atomic densities. Full valence occupancy:   27  17

 Molecular orbital dump at record        2100.2

 Initial alpha occupancy:  18  10
 Initial beta  occupancy:  18  10
 Wave function symmetry:    1

 ITERATION    DDIFF          GRAD             ENERGY        2-EL.EN.            DIPOLE MOMENTS         DIIS
    1      0.000D+00      0.000D+00      -592.64413063   1055.973292   -0.40646   -0.80850    0.00000    0
    2      0.000D+00      0.551D-02      -592.70500536   1053.441594   -0.20698   -0.74086    0.00000    1
    3      0.108D-01      0.184D-02      -592.71091212   1054.847679   -0.27962   -0.67968    0.00000    2
    4      0.374D-02      0.748D-03      -592.71190812   1054.239955   -0.25200   -0.71231    0.00000    3
    5      0.129D-02      0.107D-03      -592.71193350   1054.301320   -0.24825   -0.70383    0.00000    4
    6      0.251D-03      0.367D-04      -592.71193596   1054.270659   -0.24993   -0.70416    0.00000    5
    7      0.693D-04      0.862D-05      -592.71193616   1054.273926   -0.24926   -0.70404    0.00000    6
    8      0.228D-04      0.241D-05      -592.71193618   1054.273052   -0.24925   -0.70391    0.00000    7
    9      0.749D-05      0.629D-06      -592.71193618   1054.272939   -0.24923   -0.70386    0.00000    7
   10      0.177D-05      0.225D-06      -592.71193618   1054.272976   -0.24922   -0.70386    0.00000    7
   11      0.668D-06      0.478D-07      -592.71193618   1054.272962   -0.24923   -0.70386    0.00000    7
   12      0.159D-06      0.955D-08      -592.71193618   1054.272967   -0.24922   -0.70386    0.00000    7
   13      0.254D-07      0.398D-08      -592.71193618   1054.272964   -0.24922   -0.70386    0.00000    7
   14      0.875D-08      0.117D-08      -592.71193618   1054.272965   -0.24922   -0.70386    0.00000    7
   15      0.315D-08      0.377D-09      -592.71193618   1054.272965   -0.24922   -0.70386    0.00000    7
   16      0.905D-09      0.117D-09      -592.71193618   1054.272965   -0.24922   -0.70386    0.00000    8
   17      0.279D-09      0.249D-10      -592.71193618   1054.272965   -0.24922   -0.70386    0.00000    7
   18      0.661D-10      0.732D-11      -592.71193618   1054.272965   -0.24922   -0.70386    0.00000    7
   19      0.225D-10      0.209D-11      -592.71193618   1054.272965   -0.24922   -0.70386    0.00000    0

 Final occupancy:  18  10

 !RHF STATE 1.1 Energy               -592.711936182409
 Nuclear energy                       311.71465867
 One-electron energy                -1431.56307738
 Two-electron energy                  527.13648253
 Virial quotient                       -1.00023771
 !RHF STATE 1.1 Dipole moment          -0.24922480    -0.70386142     0.00000000
 Dipole moment /Debye                  -0.63342477    -1.78892011     0.00000000

 Orbital energies:

         1.1          2.1          3.1          4.1          5.1          6.1          7.1          8.1          9.1         10.1
    -91.930004   -11.255341   -11.231494   -11.229558    -8.933787    -6.614246    -6.612049    -1.118282    -1.005896    -0.835857

        11.1         12.1         13.1         14.1         15.1         16.1         17.1         18.1         19.1         20.1
     -0.755357    -0.645944    -0.609762    -0.578215    -0.495258    -0.472841    -0.411549    -0.328746     0.176741     0.201444

         1.2          2.2          3.2          4.2          5.2          6.2          7.2          8.2          9.2         10.2
    -11.255354   -11.231415    -6.615680    -1.019358    -0.842471    -0.614094    -0.546658    -0.523297    -0.497810    -0.434734

        11.2         12.2
      0.190180     0.222749


 **********************************************************************************************************************************
 DATASETS  * FILE   NREC   LENGTH (MB)   RECORD NAMES
              1      19      187.99       500      610      700      900      950      970     1000      129      960     1100   
                                          VAR    BASINP    GEOM    SYMINP    ZMAT    AOBASIS   BASIS     P2S    ABASIS      S 
                                         1400     1410     1200     1210     1080     1600     1650     1300     1700   
                                           T        V       H0       H01     AOSYM     SMH    MOLCAS    ERIS     OPER   

              2       3        0.73       700     1000     2100   
                                         GEOM     BASIS     RHF  

 PROGRAMS   *        TOTAL       RHF       INT
 CPU TIMES  *         6.47      2.26      4.08
 REAL TIME  *         7.89 SEC
 DISK USED  *       681.21 MB      
 GA USED    *         0.00 MB       (max)       0.00 MB       (current)
 **********************************************************************************************************************************


1PROGRAM * CCSD (Closed-shell coupled cluster)     Authors: C. Hampel, H.-J. Werner, 1991, M. Deegan, P.J. Knowles, 1992


 Convergence thresholds:  THRVAR = 1.00D-08  THRDEN = 1.00D-12

 CCSD(T)     terms to be evaluated (factor= 1.000)


 Number of core orbitals:          10 (   7   3 )
 Number of closed-shell orbitals:  18 (  11   7 )
 Number of external orbitals:     110 (  61  49 )

 Molecular orbitals read from record     2100.2  Type=RHF/CANONICAL (state 1.1)

 Number of N-1 electron functions:              18
 Number of N-2 electron functions:             171
 Number of singly external CSFs:              1014
 Number of doubly external CSFs:            981666
 Total number of CSFs:                      982681

 Length of J-op  integral file:               0.00 MB
 Length of K-op  integral file:               0.70 MB
 Length of 3-ext integral record:             0.00 MB

 Memory could be reduced to 16.31 Mwords without degradation in triples

 Integral transformation finished. Total CPU:   1.04 sec, npass=  1  Memory used:  10.63 MW

 Reference energy:                   -592.71193618

 MP2 singlet pair energy:              -0.53958200
 MP2 triplet pair energy:              -0.30423143
 MP2 correlation energy:               -0.84381343
 MP2 total energy:                   -593.55574961

 SCS-MP2 correlation energy:           -0.83679795   (PS=  1.200000  PT=  0.333333)
 SCS-MP2 total energy:               -593.54873414

 ITER.      SQ.NORM     CORR.ENERGY   TOTAL ENERGY   ENERGY CHANGE        DEN1      VAR(S)    VAR(P)  DIIS     TIME
   1      1.33999570    -0.91086533  -593.62280151    -0.06705190    -0.04307304  0.26D-02  0.55D-02  1  1     2.88
   2      1.36704038    -0.91622462  -593.62816080    -0.00535929    -0.02580098  0.69D-04  0.46D-03  2  2     4.77
   3      1.37239050    -0.91635396  -593.62829014    -0.00012934    -0.00304478  0.16D-04  0.28D-04  3  3     6.67
   4      1.37389009    -0.91641218  -593.62834836    -0.00005822    -0.00059624  0.77D-06  0.20D-05  4  4     8.56
   5      1.37413227    -0.91641887  -593.62835505    -0.00000669    -0.00007128  0.17D-06  0.17D-06  5  5    10.47
   6      1.37417819    -0.91641441  -593.62835059     0.00000446    -0.00001401  0.30D-07  0.14D-07  6  6    12.37
   7      1.37418580    -0.91641429  -593.62835047     0.00000011     0.00000064  0.53D-08  0.23D-08  6  2    14.30
   8      1.37419190    -0.91641398  -593.62835016     0.00000031    -0.00000125  0.73D-09  0.27D-09  6  1    16.20
   9      1.37419272    -0.91641391  -593.62835010     0.00000006     0.00000051  0.66D-10  0.44D-10  6  4    18.13
  10      1.37419361    -0.91641388  -593.62835006     0.00000003    -0.00000011  0.47D-11  0.35D-11  6  3    20.03
  11      1.37419362    -0.91641388  -593.62835006    -0.00000000     0.00000004  0.11D-11  0.54D-12  6  5    21.95
  12      1.37419359    -0.91641388  -593.62835007    -0.00000000     0.00000002  0.17D-12  0.77D-13  6  6    23.86
  13      1.37419353    -0.91641389  -593.62835007    -0.00000000     0.00000002  0.24D-13  0.11D-13  6  1    25.81
  14      1.37419352    -0.91641389  -593.62835007    -0.00000000     0.00000000  0.32D-14  0.12D-14  6  2    27.71
  15      1.37419352    -0.91641389  -593.62835007     0.00000000    -0.00000000  0.70D-15  0.32D-15  6  4    29.60
  16      1.37419353    -0.91641389  -593.62835007     0.00000000    -0.00000000  0.33D-16  0.24D-16  6  5    31.48
  17      1.37419353    -0.91641389  -593.62835007     0.00000000    -0.00000000  0.60D-17  0.25D-17  6  3    33.43
  18      1.37419353    -0.91641389  -593.62835007     0.00000000    -0.00000000  0.15D-17  0.44D-18  6  5    35.32
  19      1.37419353    -0.91641389  -593.62835007     0.00000000    -0.00000000  0.19D-18  0.67D-19  6  6    37.29
  20      1.37419353    -0.91641389  -593.62835007     0.00000000     0.00000000  0.15D-19  0.69D-20  6  1    39.18
  21      1.37419353    -0.91641389  -593.62835007    -0.00000000     0.00000000  0.24D-20  0.10D-20  6  2    41.36

 Norm of t1 vector:      0.07017852      S-energy:    -0.00000000      T1 diagnostic:  0.00827062
                                                                       D1 diagnostic:  0.02116304


 Total CPU time for triples:     34.07 sec


 RESULTS
 =======

  Reference energy                   -592.711936182408
  CCSD singlet pair energy             -0.634441605884
  CCSD triplet pair energy             -0.281972280078
  CCSD correlation energy              -0.916413885962

  Triples (T) contribution             -0.029896092987
  Total correlation energy             -0.946309978949

  CCSD total energy                  -593.628350068370
  CCSD[T] energy                     -593.658866807926
  CCSD-T energy                      -593.657933956610
 !CCSD(T) total energy               -593.658246161357

 Timing summary (sec):

 STEP                 CPU(USER)    SYS     CPU(TOT)    WALL
 Transformation          1.07      0.16      1.23      1.23
 CCSD iterations        40.29      1.69     41.98     42.08
 Triples                34.07      1.02     35.09     35.10

 Program statistics:

 Available memory in ccsd:               999998604
 Min. memory needed in ccsd:               2548392
 Max. memory used in ccsd:                 3412984
 Max. memory used in cckext:               3730705 (21 integral passes)



 **********************************************************************************************************************************
 DATASETS  * FILE   NREC   LENGTH (MB)   RECORD NAMES
              1      20      256.16       500      610      700      900      950      970     1000      129      960     1100   
                                          VAR    BASINP    GEOM    SYMINP    ZMAT    AOBASIS   BASIS     P2S    ABASIS      S 
                                         1400     1410     1200     1210     1080     1600     1650     1300     1700     1380   
                                           T        V       H0       H01     AOSYM     SMH    MOLCAS    ERIS     OPER     JKOP   

              2       3        0.73       700     1000     2100   
                                         GEOM     BASIS     RHF  

 PROGRAMS   *        TOTAL   CCSD(T)       RHF       INT
 CPU TIMES  *        81.92     75.44      2.26      4.08
 REAL TIME  *        86.35 SEC
 DISK USED  *       681.21 MB      
 GA USED    *         0.00 MB       (max)       0.00 MB       (current)
 **********************************************************************************************************************************

        CCSD(T)         RHF-SCF 
   -593.65824616   -592.71193618
 **********************************************************************************************************************************
 Variable memory released
