
 Primary working directories    : /tmp/984724.366.gen4.q
 Secondary working directories  : /tmp/984724.366.gen4.q
 Wavefunction directory         : /home/vulcan/mel64643/wfu/
 Main file repository           : /tmp/984724.366.gen4.q/

 ARCHNAME  : Linux/x86_64
 FC        : /opt/intel/compilers_and_libraries_2016.1.150/linux/bin/intel64/ifort
 FCVERSION : 16.0.1
 BLASLIB   : -mkl
 id        : ccgc

 Nodes     nprocs
 n067         1
 ga_uses_ma=false, calling ma_init with nominal heap.
 GA-space will be limited to   8.0 MW (determined by -G option)

 Using customized tuning parameters: mindgm=10; mindgv=16; mindgc=4; mindgr=1; noblas=0; mincuda=1000; minvec=7
 default implementation of scratch files=df  

 ***,Optimization of formic acid
 memory,1000,m
 gthresh,energy=1.0d-12,orbital=1.0d-10,oneint=1.0d-16,twoint=1.0d-16,optgrad=1.0d-6,compress=1.0d-13
 geomtyp=xyz
 
 
 
 bohr
 geometry = {
  C   -3.4930829407   -0.8332143831    0.0000000000
  O   -3.0889458186    1.6205912907   -0.0000000000
  O   -1.8881334870   -2.4936563673    0.0000000000
  H   -5.5134976414   -1.2704329751    0.0000000000
  H   -1.2394685068    1.9666343655   -0.0000000000
  C    3.4930829407    0.8332143831    0.0000000000
  O    3.0889458186   -1.6205912907   -0.0000000000
  O    1.8881334870    2.4936563673    0.0000000000
  H    5.5134976414    1.2704329751    0.0000000000
  H    1.2394685068   -1.9666343655   -0.0000000000
 }
 
 basis=AVDZ, H=VDZ
 {rhf;maxit,200}
 {ccsd(t);maxit,200}

 Variables initialized (661), CPU time= 0.01 sec
 Commands  initialized (458), CPU time= 0.00 sec, 486 directives.
 Default parameters read. Elapsed time= 0.05 sec

 Checking input...
 Passed
1


                                         ***  PROGRAM SYSTEM MOLPRO  ***
                         Copyright, University College Cardiff Consultants Limited, 2008

                                    Version 2010.1 linked May 16 2016 07:17:05


 **********************************************************************************************************************************
 LABEL *   Optimization of formic acid                                                   
 Linux-4.4.3/n067(x86_64) 64 bit mpp version                                             DATE: 22-Jan-24          TIME: 17:16:59  
 **********************************************************************************************************************************

 SHA1:             9e8077add272b0f3cad6f7df79ec5211205f459d
 **********************************************************************************************************************************

 THRESHOLDS:

 ZERO    =  1.00D-12  ONEINT  =  1.00D-16  TWOINT  =  1.00D-16  PREFAC  =  1.00D-14  LOCALI  =  1.00D-09  EORDER  =  1.00D-04
 ENERGY  =  1.00D-12  ETEST   =  0.00D+00  EDENS   =  0.00D+00  THRDEDEF=  1.00D-06  GRADIENT=  1.00D-02  STEP    =  1.00D-03
 ORBITAL =  1.00D-10  CIVEC   =  1.00D-05  COEFF   =  1.00D-04  PRINTCI =  5.00D-02  PUNCHCI =  9.90D+01  OPTGRAD =  1.00D-06
 OPTENERG=  1.00D-06  OPTSTEP =  3.00D-04  THRGRAD =  1.00D-10  COMPRESS=  1.00D-13  VARMIN  =  1.00D-07  VARMAX  =  1.00D-03
 THRDOUB =  0.00D+00  THRDIV  =  1.00D-05  THRRED  =  1.00D-07  THRPSP  =  1.00D+00  THRDC   =  1.00D-10  THRCS   =  1.00D-10
 THRNRM  =  1.00D-08  THREQ   =  0.00D+00  THRDE   =  1.00D+00  THRREF  =  1.00D-05  SPARFAC =  1.00D+00  THRDLP  =  1.00D-07
 THRDIA  =  1.00D-10  THRDLS  =  1.00D-07  THRGPS  =  0.00D+00  THRKEX  =  0.00D+00  THRDIS  =  2.00D-01  THRVAR  =  1.00D-10
 THRLOC  =  1.00D-06  THRGAP  =  1.00D-06  THRLOCT = -1.00D+00  THRGAPT = -1.00D+00  THRORB  =  1.00D-06  THRMLTP =  0.00D+00
 THRCPQCI=  1.00D-10  KEXTA   =  0.00D+00  THRCOARS=  0.00D+00  SYMTOL  =  1.00D-06  GRADTOL =  1.00D-06  THROVL  =  1.00D-08
 THRORTH =  1.00D-08  GRID    =  1.00D-06  GRIDMAX =  1.00D-03  DTMAX   =  0.00D+00

 SETTING GEOMTYP        =    XYZ
 ZUNIT=BOHR
 

 Variable memory set to 1000000000 words,  buffer space   230000 words

 SETTING BASIS          =    AVDZ,H=VDZ


 Recomputing integrals since basis changed


 Using spherical harmonics

 Library entry C      S aug-cc-pVDZ          selected for orbital group  1
 Library entry C      P aug-cc-pVDZ          selected for orbital group  1
 Library entry C      D aug-cc-pVDZ          selected for orbital group  1
 Library entry O      S aug-cc-pVDZ          selected for orbital group  2
 Library entry O      P aug-cc-pVDZ          selected for orbital group  2
 Library entry O      D aug-cc-pVDZ          selected for orbital group  2
 Library entry H      S cc-pVDZ              selected for orbital group  3
 Library entry H      P cc-pVDZ              selected for orbital group  3

1PROGRAM * SEWARD (Integral evaluation for generally contracted gaussian basis sets)     Author: Roland Lindh, 1990

 Geometry written to block  1 of record 700


 Point group  C2h 



 ATOMIC COORDINATES

 NR  ATOM    CHARGE       X              Y              Z

   1  C       6.00   -3.493082941   -0.833214383    0.000000000
   2  C       6.00    3.493082941    0.833214383    0.000000000
   3  O       8.00   -3.088945819    1.620591291    0.000000000
   4  O       8.00    3.088945819   -1.620591291    0.000000000
   5  O       8.00   -1.888133487   -2.493656367    0.000000000
   6  O       8.00    1.888133487    2.493656367    0.000000000
   7  H       1.00   -5.513497641   -1.270432975    0.000000000
   8  H       1.00    5.513497641    1.270432975    0.000000000
   9  H       1.00   -1.239468507    1.966634366    0.000000000
  10  H       1.00    1.239468507   -1.966634366    0.000000000

 Bond lengths in Bohr (Angstrom)

 1-3  2.486863305  1-5  2.309313823  1-7  2.067180607  2-4  2.486863305  2-6  2.309313823
     ( 1.315991383)     ( 1.222036243)     ( 1.093904864)     ( 1.315991383)     ( 1.222036243)

  2- 8  2.067180607   3- 9  1.881571720   4-10  1.881571720
       ( 1.093904864)       ( 0.995684871)       ( 0.995684871)

 Bond angles

  1- 3- 9  109.95023431   2- 4-10  109.95023431   3- 1- 5  126.62105408   3- 1- 7  111.56309604

  4-2-6  126.62105408   4-2-8  111.56309604   5-1-7  121.81584988   6-2-8  121.81584988

 NUCLEAR CHARGE:                   48
 NUMBER OF PRIMITIVE AOS:         250
 NUMBER OF SYMMETRY AOS:          238
 NUMBER OF CONTRACTIONS:          158   (  56Ag  +  23Au  +  56Bu  +  23Bg  )
 NUMBER OF CORE ORBITALS:           6   (   3Ag  +   0Au  +   3Bu  +   0Bg  )
 NUMBER OF VALENCE ORBITALS:       28   (  11Ag  +   3Au  +  11Bu  +   3Bg  )


 NUCLEAR REPULSION ENERGY  235.47267561


 Eigenvalues of metric

         1 0.127E-02 0.143E-02 0.277E-02 0.696E-02 0.734E-02 0.775E-02 0.121E-01 0.126E-01
         2 0.379E-01 0.472E-01 0.742E-01 0.106E+00 0.149E+00 0.218E+00 0.250E+00 0.279E+00
         3 0.776E-03 0.199E-02 0.422E-02 0.473E-02 0.702E-02 0.842E-02 0.112E-01 0.116E-01
         4 0.270E-01 0.516E-01 0.617E-01 0.138E+00 0.162E+00 0.222E+00 0.259E+00 0.284E+00


 Contracted 2-electron integrals neglected if value below      1.0D-16
 AO integral compression algorithm  1   Integral accuracy      1.0D-16

     221.250 MB (compressed) written to integral file (100.0%)

     Node minimum: 221.250 MB, node maximum: 221.250 MB


 NUMBER OF SORTED TWO-ELECTRON INTEGRALS:   20758224.     BUFFER LENGTH:  32768
 NUMBER OF SEGMENTS:   2  SEGMENT LENGTH:   15997776      RECORD LENGTH: 524288

 Memory used in sort:      16.55 MW

 SORT1 READ    26969232. AND WROTE    20758224. INTEGRALS IN     60 RECORDS. CPU TIME:     0.38 SEC, REAL TIME:     0.52 SEC
 SORT2 READ    20758224. AND WROTE    20758224. INTEGRALS IN    844 RECORDS. CPU TIME:     0.27 SEC, REAL TIME:     0.37 SEC

 FILE SIZES:   FILE 1:   173.7 MBYTE,  FILE 4:   251.7 MBYTE,   TOTAL:    425.4 MBYTE

 OPERATOR DM      FOR CENTER  0  COORDINATES:    0.000000    0.000000    0.000000


 **********************************************************************************************************************************
 DATASETS  * FILE   NREC   LENGTH (MB)   RECORD NAMES
              1      19      173.79       500      610      700      900      950      970     1000      129      960     1100   
                                          VAR    BASINP    GEOM    SYMINP    ZMAT    AOBASIS   BASIS     P2S    ABASIS      S 
                                         1400     1410     1200     1210     1080     1600     1650     1300     1700   
                                           T        V       H0       H01     AOSYM     SMH    MOLCAS    ERIS     OPER   

 PROGRAMS   *        TOTAL       INT
 CPU TIMES  *         2.83      2.78
 REAL TIME  *         3.34 SEC
 DISK USED  *       647.46 MB      
 GA USED    *         0.00 MB       (max)       0.00 MB       (current)
 **********************************************************************************************************************************

1PROGRAM * RHF-SCF (CLOSED SHELL)       Authors: W. Meyer, H.-J. Werner


 NUMBER OF ELECTRONS:      24+   24-
 CONVERGENCE THRESHOLDS:    1.00E-10 (Density)    1.00E-13 (Energy)
 MAX. NUMBER OF ITERATIONS:      200
 INTERPOLATION TYPE:            DIIS
 INTERPOLATION STEPS:              2 (START)      1 (STEP)
 LEVEL SHIFTS:                  0.00 (CLOSED)  0.00 (OPEN) 



 Orbital guess generated from atomic densities. Full valence occupancy:   14   3  14   3

 Molecular orbital dump at record        2100.2

 Initial alpha occupancy:  10   2  10   2
 Initial beta  occupancy:  10   2  10   2
 Wave function symmetry:    1

 ITERATION    DDIFF          GRAD             ENERGY        2-EL.EN.            DIPOLE MOMENTS         DIIS
    1      0.000D+00      0.000D+00      -377.47457266    746.146641    0.00000    0.00000    0.00000    0
    2      0.000D+00      0.133D-01      -377.56264952    743.390565    0.00000    0.00000    0.00000    1
    3      0.251D-01      0.834D-02      -377.60993059    745.646510    0.00000    0.00000    0.00000    2
    4      0.939D-02      0.119D-02      -377.61154100    745.251102    0.00000    0.00000    0.00000    3
    5      0.183D-02      0.505D-03      -377.61182394    745.287865    0.00000    0.00000    0.00000    4
    6      0.760D-03      0.142D-03      -377.61186761    745.339703    0.00000    0.00000    0.00000    5
    7      0.255D-03      0.631D-04      -377.61187806    745.321680    0.00000    0.00000    0.00000    6
    8      0.147D-03      0.199D-04      -377.61187930    745.327197    0.00000    0.00000    0.00000    7
    9      0.541D-04      0.656D-05      -377.61187941    745.325861    0.00000    0.00000    0.00000    8
   10      0.177D-04      0.180D-05      -377.61187942    745.326094    0.00000    0.00000    0.00000    7
   11      0.492D-05      0.529D-06      -377.61187942    745.326016    0.00000    0.00000    0.00000    8
   12      0.143D-05      0.163D-06      -377.61187942    745.326049    0.00000    0.00000    0.00000    8
   13      0.405D-06      0.660D-07      -377.61187942    745.326030    0.00000    0.00000    0.00000    8
   14      0.120D-06      0.214D-07      -377.61187942    745.326034    0.00000    0.00000    0.00000    8
   15      0.499D-07      0.722D-08      -377.61187942    745.326034    0.00000    0.00000    0.00000    8
   16      0.138D-07      0.226D-08      -377.61187942    745.326034    0.00000    0.00000    0.00000    8
   17      0.399D-08      0.567D-09      -377.61187942    745.326034    0.00000    0.00000    0.00000    8
   18      0.105D-08      0.176D-09      -377.61187942    745.326034    0.00000    0.00000    0.00000    8
   19      0.359D-09      0.547D-10      -377.61187942    745.326034    0.00000    0.00000    0.00000    8
   20      0.117D-09      0.147D-10      -377.61187942    745.326034    0.00000    0.00000    0.00000    7
   21      0.358D-10      0.354D-11      -377.61187942    745.326034    0.00000    0.00000    0.00000    7
   22      0.902D-11      0.132D-11      -377.61187942    745.326034    0.00000    0.00000    0.00000    0

 Final occupancy:  10   2  10   2

 !RHF STATE 1.1 Energy               -377.611879422833
 Nuclear energy                       235.47267561
 One-electron energy                 -985.74757194
 Two-electron energy                  372.66301691
 Virial quotient                       -1.00164917
 !RHF STATE 1.1 Dipole moment           0.00000000     0.00000000     0.00000000
 Dipole moment /Debye                   0.00000000     0.00000000     0.00000000

 Orbital energies:

         1.1          2.1          3.1          4.1          5.1          6.1          7.1          8.1          9.1         10.1
    -20.626572   -20.587921   -11.420040    -1.490027    -1.378785    -0.922249    -0.735449    -0.698665    -0.621659    -0.498249

        11.1         12.1
      0.070585     0.092968

         1.2          2.2          3.2          4.2
     -0.645711    -0.495501     0.080750     0.140420

         1.3          2.3          3.3          4.3          5.3          6.3          7.3          8.3          9.3         10.3
    -20.626572   -20.587922   -11.420041    -1.477332    -1.392780    -0.886656    -0.771742    -0.726618    -0.582119    -0.475513

        11.3         12.3
      0.069605     0.088193

         1.4          2.4          3.4          4.4
     -0.635361    -0.507285     0.093146     0.174933


 **********************************************************************************************************************************
 DATASETS  * FILE   NREC   LENGTH (MB)   RECORD NAMES
              1      19      173.79       500      610      700      900      950      970     1000      129      960     1100   
                                          VAR    BASINP    GEOM    SYMINP    ZMAT    AOBASIS   BASIS     P2S    ABASIS      S 
                                         1400     1410     1200     1210     1080     1600     1650     1300     1700   
                                           T        V       H0       H01     AOSYM     SMH    MOLCAS    ERIS     OPER   

              2       3        0.59       700     1000     2100   
                                         GEOM     BASIS     RHF  

 PROGRAMS   *        TOTAL       RHF       INT
 CPU TIMES  *         4.21      1.38      2.78
 REAL TIME  *         5.04 SEC
 DISK USED  *       647.46 MB      
 GA USED    *         0.00 MB       (max)       0.00 MB       (current)
 **********************************************************************************************************************************


1PROGRAM * CCSD (Closed-shell coupled cluster)     Authors: C. Hampel, H.-J. Werner, 1991, M. Deegan, P.J. Knowles, 1992


 Convergence thresholds:  THRVAR = 1.00D-08  THRDEN = 1.00D-12

 CCSD(T)     terms to be evaluated (factor= 1.000)


 Number of core orbitals:           6 (   3   0   3   0 )
 Number of closed-shell orbitals:  18 (   7   2   7   2 )
 Number of external orbitals:     134 (  46  21  46  21 )

 Molecular orbitals read from record     2100.2  Type=RHF/CANONICAL (state 1.1)

 Number of N-1 electron functions:              18
 Number of N-2 electron functions:             171
 Number of singly external CSFs:               728
 Number of doubly external CSFs:            759674
 Total number of CSFs:                      760403

 Length of J-op  integral file:               0.00 MB
 Length of K-op  integral file:               0.54 MB
 Length of 3-ext integral record:             0.00 MB

 Memory could be reduced to 14.96 Mwords without degradation in triples

 Integral transformation finished. Total CPU:   0.59 sec, npass=  1  Memory used:   4.79 MW

 Reference energy:                   -377.61187942

 MP2 singlet pair energy:              -0.63201609
 MP2 triplet pair energy:              -0.43058113
 MP2 correlation energy:               -1.06259722
 MP2 total energy:                   -378.67447664

 SCS-MP2 correlation energy:           -1.02633646   (PS=  1.200000  PT=  0.333333)
 SCS-MP2 total energy:               -378.63821588

 ITER.      SQ.NORM     CORR.ENERGY   TOTAL ENERGY   ENERGY CHANGE        DEN1      VAR(S)    VAR(P)  DIIS     TIME
   1      1.30282300    -1.07994488  -378.69182430    -0.01734766     0.01550590  0.11D-01  0.60D-02  1  1     1.67
   2      1.32742395    -1.08104527  -378.69292469    -0.00110039    -0.02621671  0.24D-03  0.10D-02  2  2     2.83
   3      1.34060629    -1.08189826  -378.69377769    -0.00085299    -0.00594471  0.21D-03  0.45D-04  3  3     4.00
   4      1.34593061    -1.08163016  -378.69350959     0.00026810    -0.00176624  0.18D-04  0.80D-05  4  4     5.16
   5      1.34801790    -1.08154088  -378.69342030     0.00008928    -0.00046852  0.17D-05  0.73D-06  5  5     6.33
   6      1.34840011    -1.08152066  -378.69340008     0.00002022    -0.00002181  0.14D-06  0.84D-07  6  6     7.51
   7      1.34848249    -1.08151117  -378.69339060     0.00000948    -0.00000602  0.12D-07  0.12D-07  6  2     8.68
   8      1.34848831    -1.08151200  -378.69339142    -0.00000082     0.00000232  0.19D-08  0.11D-08  6  1     9.84
   9      1.34848900    -1.08151182  -378.69339125     0.00000017     0.00000127  0.30D-09  0.17D-09  6  4    11.01
  10      1.34849076    -1.08151166  -378.69339108     0.00000017    -0.00000050  0.70D-10  0.22D-10  6  3    12.19
  11      1.34849027    -1.08151177  -378.69339119    -0.00000012     0.00000023  0.16D-10  0.40D-11  6  5    13.36
  12      1.34849001    -1.08151179  -378.69339121    -0.00000002     0.00000004  0.29D-11  0.10D-11  6  6    14.52
  13      1.34848973    -1.08151183  -378.69339125    -0.00000004     0.00000010  0.48D-12  0.20D-12  6  1    15.69
  14      1.34848963    -1.08151183  -378.69339126    -0.00000001     0.00000002  0.66D-13  0.31D-13  6  2    16.85
  15      1.34848961    -1.08151183  -378.69339126    -0.00000000     0.00000000  0.12D-13  0.50D-14  6  4    18.02
  16      1.34848960    -1.08151183  -378.69339126    -0.00000000    -0.00000000  0.24D-14  0.11D-14  6  3    19.19
  17      1.34848960    -1.08151183  -378.69339126     0.00000000    -0.00000000  0.28D-15  0.17D-15  6  6    20.34
  18      1.34848960    -1.08151183  -378.69339126    -0.00000000     0.00000000  0.36D-16  0.17D-16  6  5    21.52
  19      1.34848960    -1.08151183  -378.69339126    -0.00000000     0.00000000  0.89D-17  0.27D-17  6  1    22.68
  20      1.34848960    -1.08151183  -378.69339126     0.00000000    -0.00000000  0.16D-17  0.79D-18  6  5    23.85
  21      1.34848960    -1.08151183  -378.69339126    -0.00000000     0.00000000  0.16D-18  0.87D-19  6  2    25.02
  22      1.34848960    -1.08151183  -378.69339126     0.00000000    -0.00000000  0.11D-19  0.12D-19  6  3    26.19
  23      1.34848960    -1.08151183  -378.69339126     0.00000000     0.00000000  0.12D-20  0.59D-21  6  4    27.37
  24      1.34848960    -1.08151183  -378.69339126     0.00000000     0.00000000  0.35D-21  0.10D-21  6  6    28.53

 Norm of t1 vector:      0.15401334      S-energy:     0.00000000      T1 diagnostic:  0.01815065
                                                                       D1 diagnostic:  0.06236372

 Singles amplitudes (print threshold =  0.500E-01):

         I         SYM. A    A   T(IA)

        17         4         2     -0.05264641


 Total CPU time for triples:     29.21 sec


 RESULTS
 =======

  Reference energy                   -377.611879422833
  CCSD singlet pair energy             -0.702960421415
  CCSD triplet pair energy             -0.378551412925
  CCSD correlation energy              -1.081511834339

  Triples (T) contribution             -0.039472452621
  Total correlation energy             -1.120984286959

  CCSD total energy                  -378.693391257172
  CCSD[T] energy                     -378.736511847373
  CCSD-T energy                      -378.731608161031
 !CCSD(T) total energy               -378.732863709793

 Timing summary (sec):

 STEP                 CPU(USER)    SYS     CPU(TOT)    WALL
 Transformation          0.61      0.11      0.72      0.73
 CCSD iterations        27.92      1.39     29.31     29.34
 Triples                29.21      1.00     30.21     30.22

 Program statistics:

 Available memory in ccsd:               999998604
 Min. memory needed in ccsd:               1971250
 Max. memory used in ccsd:                 2664424
 Max. memory used in cckext:               2549270 (24 integral passes)



 **********************************************************************************************************************************
 DATASETS  * FILE   NREC   LENGTH (MB)   RECORD NAMES
              1      20      233.03       500      610      700      900      950      970     1000      129      960     1100   
                                          VAR    BASINP    GEOM    SYMINP    ZMAT    AOBASIS   BASIS     P2S    ABASIS      S 
                                         1400     1410     1200     1210     1080     1600     1650     1300     1700     1380   
                                           T        V       H0       H01     AOSYM     SMH    MOLCAS    ERIS     OPER     JKOP   

              2       3        0.59       700     1000     2100   
                                         GEOM     BASIS     RHF  

 PROGRAMS   *        TOTAL   CCSD(T)       RHF       INT
 CPU TIMES  *        61.97     57.75      1.38      2.78
 REAL TIME  *        65.37 SEC
 DISK USED  *       647.46 MB      
 GA USED    *         0.00 MB       (max)       0.00 MB       (current)
 **********************************************************************************************************************************

        CCSD(T)         RHF-SCF 
   -378.73286371   -377.61187942
 **********************************************************************************************************************************
 Variable memory released
