
 Primary working directories    : /tmp/880701.790.gen4.q
 Secondary working directories  : /tmp/880701.790.gen4.q
 Wavefunction directory         : /home/vulcan/lo21740/wfu/
 Main file repository           : /tmp/880701.790.gen4.q/

 ARCHNAME  : Linux/x86_64
 FC        : /opt/intel/compilers_and_libraries_2016.1.150/linux/bin/intel64/ifort
 FCVERSION : 16.0.1
 BLASLIB   : -mkl
 id        : ccgc

 Nodes     nprocs
 n058         1
 ga_uses_ma=false, calling ma_init with nominal heap.
 GA-space will be limited to   8.0 MW (determined by -G option)

 Using customized tuning parameters: mindgm=10; mindgv=16; mindgc=4; mindgr=1; noblas=0; mincuda=1000; minvec=7
 default implementation of scratch files=df  

 ***,Optimization of formamide
 memory,1000,m
 gthresh,energy=1.0d-12,orbital=1.0d-10,oneint=1.0d-16,twoint=1.0d-16,optgrad=1.0d-6,compress=1.0d-13
 geomtyp=xyz
 
 bohr
 geometry = {
  C   -3.8238260361    0.0863700160   -0.0000000000
  O   -2.7318050670    2.1390379419    0.0000000000
  N   -2.6825442994   -2.1765394287    0.0000000000
  H   -3.7470758585   -3.7531917798    0.0000000000
  H   -0.7498176508   -2.3020076571    0.0000000000
  H   -5.8956513729   -0.0250442607    0.0000000000
  C    3.8283055611   -0.0883429170    0.0000000000
  O    2.7324213438   -2.1408886625    0.0000000000
  N    2.6817248688    2.1805287335   -0.0000000000
  H    3.7357153572    3.7661712423    0.0000000000
  H    0.7494238960    2.3014836766    0.0000000000
  H    5.9031292579    0.0124230954    0.0000000000
 }
 
 basis=AVDZ
 {rhf;maxit,200}
 {ccsd(t);maxit,200}

 Variables initialized (661), CPU time= 0.00 sec
 Commands  initialized (458), CPU time= 0.01 sec, 486 directives.
 Default parameters read. Elapsed time= 0.05 sec

 Checking input...
 Passed
1


                                         ***  PROGRAM SYSTEM MOLPRO  ***
                         Copyright, University College Cardiff Consultants Limited, 2008

                                    Version 2010.1 linked May 16 2016 07:17:05


 **********************************************************************************************************************************
 LABEL *   Optimization of formamide                                                     
 Linux-4.4.3/n058(x86_64) 64 bit mpp version                                             DATE: 25-May-23          TIME: 04:05:23  
 **********************************************************************************************************************************

 SHA1:             9e8077add272b0f3cad6f7df79ec5211205f459d
 **********************************************************************************************************************************

 THRESHOLDS:

 ZERO    =  1.00D-12  ONEINT  =  1.00D-16  TWOINT  =  1.00D-16  PREFAC  =  1.00D-14  LOCALI  =  1.00D-09  EORDER  =  1.00D-04
 ENERGY  =  1.00D-12  ETEST   =  0.00D+00  EDENS   =  0.00D+00  THRDEDEF=  1.00D-06  GRADIENT=  1.00D-02  STEP    =  1.00D-03
 ORBITAL =  1.00D-10  CIVEC   =  1.00D-05  COEFF   =  1.00D-04  PRINTCI =  5.00D-02  PUNCHCI =  9.90D+01  OPTGRAD =  1.00D-06
 OPTENERG=  1.00D-06  OPTSTEP =  3.00D-04  THRGRAD =  1.00D-10  COMPRESS=  1.00D-13  VARMIN  =  1.00D-07  VARMAX  =  1.00D-03
 THRDOUB =  0.00D+00  THRDIV  =  1.00D-05  THRRED  =  1.00D-07  THRPSP  =  1.00D+00  THRDC   =  1.00D-10  THRCS   =  1.00D-10
 THRNRM  =  1.00D-08  THREQ   =  0.00D+00  THRDE   =  1.00D+00  THRREF  =  1.00D-05  SPARFAC =  1.00D+00  THRDLP  =  1.00D-07
 THRDIA  =  1.00D-10  THRDLS  =  1.00D-07  THRGPS  =  0.00D+00  THRKEX  =  0.00D+00  THRDIS  =  2.00D-01  THRVAR  =  1.00D-10
 THRLOC  =  1.00D-06  THRGAP  =  1.00D-06  THRLOCT = -1.00D+00  THRGAPT = -1.00D+00  THRORB  =  1.00D-06  THRMLTP =  0.00D+00
 THRCPQCI=  1.00D-10  KEXTA   =  0.00D+00  THRCOARS=  0.00D+00  SYMTOL  =  1.00D-06  GRADTOL =  1.00D-06  THROVL  =  1.00D-08
 THRORTH =  1.00D-08  GRID    =  1.00D-06  GRIDMAX =  1.00D-03  DTMAX   =  0.00D+00

 SETTING GEOMTYP        =    XYZ
 ZUNIT=BOHR
 

 Variable memory set to 1000000000 words,  buffer space   230000 words

 SETTING BASIS          =    AVDZ


 Recomputing integrals since basis changed


 Using spherical harmonics

 Library entry C      S aug-cc-pVDZ          selected for orbital group  1
 Library entry C      P aug-cc-pVDZ          selected for orbital group  1
 Library entry C      D aug-cc-pVDZ          selected for orbital group  1
 Library entry O      S aug-cc-pVDZ          selected for orbital group  2
 Library entry O      P aug-cc-pVDZ          selected for orbital group  2
 Library entry O      D aug-cc-pVDZ          selected for orbital group  2
 Library entry N      S aug-cc-pVDZ          selected for orbital group  3
 Library entry N      P aug-cc-pVDZ          selected for orbital group  3
 Library entry N      D aug-cc-pVDZ          selected for orbital group  3
 Library entry H      S aug-cc-pVDZ          selected for orbital group  4
 Library entry H      P aug-cc-pVDZ          selected for orbital group  4

1PROGRAM * SEWARD (Integral evaluation for generally contracted gaussian basis sets)     Author: Roland Lindh, 1990

 Geometry written to block  1 of record 700


 Point group  Cs  



 ATOMIC COORDINATES

 NR  ATOM    CHARGE       X              Y              Z

   1  C       6.00   -3.823826036    0.086370016    0.000000000
   2  O       8.00   -2.731805067    2.139037942    0.000000000
   3  N       7.00   -2.682544299   -2.176539429    0.000000000
   4  H       1.00   -3.747075859   -3.753191780    0.000000000
   5  H       1.00   -0.749817651   -2.302007657    0.000000000
   6  H       1.00   -5.895651373   -0.025044261    0.000000000
   7  C       6.00    3.828305561   -0.088342917    0.000000000
   8  O       8.00    2.732421344   -2.140888663    0.000000000
   9  N       7.00    2.681724869    2.180528734    0.000000000
  10  H       1.00    3.735715357    3.766171242    0.000000000
  11  H       1.00    0.749423896    2.301483677    0.000000000
  12  H       1.00    5.903129258    0.012423095    0.000000000

 Bond lengths in Bohr (Angstrom)

 1-2  2.325071055  1-3  2.534419688  1-6  2.074818876  3-4  1.902382737  3-5  1.936794923
     ( 1.230374612)     ( 1.341157137)     ( 1.097946862)     ( 1.006697587)     ( 1.024907732)

  7- 8  2.326780234   7- 9  2.542130180   7-12  2.077269160   9-10  1.903984799   9-11  1.936082939
       ( 1.231279070)       ( 1.345237353)       ( 1.099243496)       ( 1.007545362)       ( 1.024530966)

 Bond angles

  1-3-4  119.20962274   1-3-5  120.47805754   2-1-3  125.22322962   2-1-6  121.09118026

  3- 1- 6  113.68559012   4- 3- 5  120.31231972   7- 9-10  119.57778426   7- 9-11  120.39171276

  8- 7- 9  125.09170806   8- 7-12  120.87885676   9- 7-12  114.02943518  10- 9-11  120.03050298

 NUCLEAR CHARGE:                   48
 NUMBER OF PRIMITIVE AOS:         288
 NUMBER OF SYMMETRY AOS:          276
 NUMBER OF CONTRACTIONS:          192   ( 138A'  +  54A"  )
 NUMBER OF CORE ORBITALS:           6   (   6A'  +   0A"  )
 NUMBER OF VALENCE ORBITALS:       30   (  24A'  +   6A"  )


 NUCLEAR REPULSION ENERGY  230.48236190


 Eigenvalues of metric

         1 0.231E-03 0.270E-03 0.525E-03 0.527E-03 0.562E-03 0.702E-03 0.714E-03 0.719E-03
         2 0.182E-01 0.198E-01 0.282E-01 0.284E-01 0.335E-01 0.338E-01 0.417E-01 0.452E-01


 Contracted 2-electron integrals neglected if value below      1.0D-16
 AO integral compression algorithm  1   Integral accuracy      1.0D-16

     746.324 MB (compressed) written to integral file ( 93.7%)

     Node minimum: 746.324 MB, node maximum: 746.324 MB


 NUMBER OF SORTED TWO-ELECTRON INTEGRALS:   89829696.     BUFFER LENGTH:  32768
 NUMBER OF SEGMENTS:   6  SEGMENT LENGTH:   15998004      RECORD LENGTH: 524288

 Memory used in sort:      16.56 MW

 SORT1 READ    99568560. AND WROTE    89009749. INTEGRALS IN    258 RECORDS. CPU TIME:     1.14 SEC, REAL TIME:     1.75 SEC
 SORT2 READ    89009749. AND WROTE    89829696. INTEGRALS IN   2847 RECORDS. CPU TIME:     0.77 SEC, REAL TIME:     1.09 SEC

 FILE SIZES:   FILE 1:   691.9 MBYTE,  FILE 4:  1082.2 MBYTE,   TOTAL:   1774.1 MBYTE

 OPERATOR DM      FOR CENTER  0  COORDINATES:    0.000000    0.000000    0.000000


 **********************************************************************************************************************************
 DATASETS  * FILE   NREC   LENGTH (MB)   RECORD NAMES
              1      19      692.15       500      610      700      900      950      970     1000      129      960     1100   
                                          VAR    BASINP    GEOM    SYMINP    ZMAT    AOBASIS   BASIS     P2S    ABASIS      S 
                                         1400     1410     1200     1210     1080     1600     1650     1300     1700   
                                           T        V       H0       H01     AOSYM     SMH    MOLCAS    ERIS     OPER   

 PROGRAMS   *        TOTAL       INT
 CPU TIMES  *         8.65      8.61
 REAL TIME  *        10.11 SEC
 DISK USED  *         2.52 GB      
 GA USED    *         0.00 MB       (max)       0.00 MB       (current)
 **********************************************************************************************************************************

1PROGRAM * RHF-SCF (CLOSED SHELL)       Authors: W. Meyer, H.-J. Werner


 NUMBER OF ELECTRONS:      24+   24-
 CONVERGENCE THRESHOLDS:    1.00E-10 (Density)    1.00E-13 (Energy)
 MAX. NUMBER OF ITERATIONS:      200
 INTERPOLATION TYPE:            DIIS
 INTERPOLATION STEPS:              2 (START)      1 (STEP)
 LEVEL SHIFTS:                  0.00 (CLOSED)  0.00 (OPEN) 



 Orbital guess generated from atomic densities. Full valence occupancy:   30   6

 Molecular orbital dump at record        2100.2

 Initial alpha occupancy:  20   4
 Initial beta  occupancy:  20   4
 Wave function symmetry:    1

 ITERATION    DDIFF          GRAD             ENERGY        2-EL.EN.            DIPOLE MOMENTS         DIIS
    1      0.000D+00      0.000D+00      -337.80610751    704.655009    0.00483   -0.00616    0.00000    0
    2      0.000D+00      0.728D-02      -337.88351297    699.045420    0.00172   -0.00537    0.00000    1
    3      0.138D-01      0.530D-02      -337.94115014    701.778750    0.00332   -0.00461    0.00000    2
    4      0.561D-02      0.701D-03      -337.94336586    701.685045    0.00317   -0.00539    0.00000    3
    5      0.134D-02      0.241D-03      -337.94363458    701.617206    0.00318   -0.00497    0.00000    4
    6      0.457D-03      0.795D-04      -337.94369611    701.642982    0.00313   -0.00525    0.00000    5
    7      0.202D-03      0.352D-04      -337.94370718    701.634144    0.00316   -0.00510    0.00000    6
    8      0.962D-04      0.105D-04      -337.94370813    701.639590    0.00312   -0.00529    0.00000    7
    9      0.302D-04      0.323D-05      -337.94370820    701.637258    0.00316   -0.00512    0.00000    8
   10      0.784D-05      0.122D-05      -337.94370821    701.637582    0.00313   -0.00525    0.00000    7
   11      0.338D-05      0.491D-06      -337.94370821    701.637693    0.00314   -0.00518    0.00000    8
   12      0.798D-06      0.163D-06      -337.94370821    701.637639    0.00314   -0.00519    0.00000    9
   13      0.386D-06      0.237D-07      -337.94370821    701.637639    0.00314   -0.00519    0.00000    8
   14      0.629D-07      0.858D-08      -337.94370821    701.637643    0.00314   -0.00519    0.00000    7
   15      0.230D-07      0.323D-08      -337.94370821    701.637642    0.00314   -0.00519    0.00000    8
   16      0.682D-08      0.614D-09      -337.94370821    701.637642    0.00314   -0.00519    0.00000    8
   17      0.133D-08      0.295D-09      -337.94370821    701.637642    0.00314   -0.00519    0.00000    8
   18      0.511D-09      0.650D-10      -337.94370821    701.637642    0.00314   -0.00519    0.00000    7
   19      0.141D-09      0.265D-10      -337.94370821    701.637642    0.00314   -0.00519    0.00000    7
   20      0.443D-10      0.111D-10      -337.94370821    701.637642    0.00314   -0.00519    0.00000    8
   21      0.170D-10      0.363D-11      -337.94370821    701.637642    0.00314   -0.00519    0.00000    8
   22      0.852D-11      0.172D-11      -337.94370821    701.637642    0.00314   -0.00519    0.00000    8
   23      0.630D-11      0.541D-12      -337.94370821    701.637642    0.00314   -0.00519    0.00000    8
   24      0.548D-11      0.229D-12      -337.94370821    701.637642    0.00314   -0.00519    0.00000    9
   25      0.416D-11      0.153D-12      -337.94370821    701.637642    0.00314   -0.00519    0.00000    9
   26      0.271D-11      0.121D-12      -337.94370821    701.637642    0.00314   -0.00519    0.00000    9
   27      0.178D-11      0.102D-12      -337.94370821    701.637642    0.00314   -0.00519    0.00000    9
   28      0.148D-11      0.114D-12      -337.94370821    701.637642    0.00314   -0.00519    0.00000    9
   29      0.970D-12      0.881D-13      -337.94370821    701.637642    0.00314   -0.00519    0.00000    9
   30      0.670D-12      0.911D-13      -337.94370821    701.637642    0.00314   -0.00519    0.00000    9
   31      0.640D-12      0.976D-13      -337.94370821    701.637642    0.00314   -0.00519    0.00000    9
   32      0.465D-12      0.875D-13      -337.94370821    701.637642    0.00314   -0.00519    0.00000    9
   33      0.408D-12      0.825D-13      -337.94370821    701.637642    0.00314   -0.00519    0.00000    0

 Final occupancy:  20   4

 !RHF STATE 1.1 Energy               -337.943708214478
 Nuclear energy                       230.48236190
 One-electron energy                 -919.24489110
 Two-electron energy                  350.81882099
 Virial quotient                       -1.00174063
 !RHF STATE 1.1 Dipole moment           0.00313916    -0.00519466     0.00000000
 Dipole moment /Debye                   0.00797842    -0.01320264     0.00000000

 Orbital energies:

         1.1          2.1          3.1          4.1          5.1          6.1          7.1          8.1          9.1         10.1
    -20.541505   -20.540821   -15.589196   -15.589178   -11.368000   -11.366895    -1.389555    -1.384841    -1.218242    -1.211861

        11.1         12.1         13.1         14.1         15.1         16.1         17.1         18.1         19.1         20.1
     -0.860877    -0.835665    -0.749522    -0.740470    -0.705837    -0.644982    -0.619294    -0.593711    -0.454514    -0.429024

        21.1         22.1
      0.033364     0.036339

         1.2          2.2          3.2          4.2          5.2          6.2
     -0.573820    -0.565751    -0.420309    -0.409755     0.092365     0.103415


 **********************************************************************************************************************************
 DATASETS  * FILE   NREC   LENGTH (MB)   RECORD NAMES
              1      19      692.15       500      610      700      900      950      970     1000      129      960     1100   
                                          VAR    BASINP    GEOM    SYMINP    ZMAT    AOBASIS   BASIS     P2S    ABASIS      S 
                                         1400     1410     1200     1210     1080     1600     1650     1300     1700   
                                           T        V       H0       H01     AOSYM     SMH    MOLCAS    ERIS     OPER   

              2       3        0.91       700     1000     2100   
                                         GEOM     BASIS     RHF  

 PROGRAMS   *        TOTAL       RHF       INT
 CPU TIMES  *        26.40     17.75      8.61
 REAL TIME  *        30.39 SEC
 DISK USED  *         2.52 GB      
 GA USED    *         0.00 MB       (max)       0.00 MB       (current)
 **********************************************************************************************************************************


1PROGRAM * CCSD (Closed-shell coupled cluster)     Authors: C. Hampel, H.-J. Werner, 1991, M. Deegan, P.J. Knowles, 1992


 Convergence thresholds:  THRVAR = 1.00D-08  THRDEN = 1.00D-12

 CCSD(T)     terms to be evaluated (factor= 1.000)


 Number of core orbitals:           6 (   6   0 )
 Number of closed-shell orbitals:  18 (  14   4 )
 Number of external orbitals:     168 ( 118  50 )

 Molecular orbitals read from record     2100.2  Type=RHF/CANONICAL (state 1.1)

 Number of N-1 electron functions:              18
 Number of N-2 electron functions:             171
 Number of singly external CSFs:              1852
 Number of doubly external CSFs:           2403256
 Total number of CSFs:                     2405109

 Length of J-op  integral file:               0.00 MB
 Length of K-op  integral file:               1.55 MB
 Length of 3-ext integral record:             0.00 MB

 Memory could be reduced to 56.93 Mwords without degradation in triples

 Integral transformation finished. Total CPU:   3.76 sec, npass=  1  Memory used:  23.60 MW

 Reference energy:                   -337.94370821

 MP2 singlet pair energy:              -0.62279051
 MP2 triplet pair energy:              -0.40619003
 MP2 correlation energy:               -1.02898054
 MP2 total energy:                   -338.97268876

 SCS-MP2 correlation energy:           -1.00008908   (PS=  1.200000  PT=  0.333333)
 SCS-MP2 total energy:               -338.94379729

 ITER.      SQ.NORM     CORR.ENERGY   TOTAL ENERGY   ENERGY CHANGE        DEN1      VAR(S)    VAR(P)  DIIS     TIME
   1      1.31940477    -1.05749354  -339.00120175    -0.02851300     0.00279630  0.10D-01  0.60D-02  1  1    11.35
   2      1.34492277    -1.05938368  -339.00309190    -0.00189014    -0.02596008  0.22D-03  0.11D-02  2  2    19.10
   3      1.35756382    -1.06027627  -339.00398449    -0.00089259    -0.00556739  0.22D-03  0.52D-04  3  3    26.85
   4      1.36277529    -1.06001257  -339.00372079     0.00026370    -0.00169502  0.22D-04  0.96D-05  4  4    34.60
   5      1.36492306    -1.05995528  -339.00366350     0.00005729    -0.00044966  0.27D-05  0.12D-05  5  5    42.39
   6      1.36544477    -1.05992668  -339.00363489     0.00002860    -0.00004991  0.28D-06  0.19D-06  6  6    50.18
   7      1.36557235    -1.05991437  -339.00362258     0.00001231    -0.00000197  0.35D-07  0.23D-07  6  1    57.96
   8      1.36560978    -1.05991318  -339.00362139     0.00000120    -0.00000703  0.75D-08  0.33D-08  6  2    65.73
   9      1.36561133    -1.05991335  -339.00362156    -0.00000017     0.00000266  0.13D-08  0.49D-09  6  3    73.51
  10      1.36561613    -1.05991281  -339.00362102     0.00000054    -0.00000111  0.32D-09  0.69D-10  6  4    81.30
  11      1.36561589    -1.05991306  -339.00362128    -0.00000026     0.00000046  0.58D-10  0.13D-10  6  5    89.08
  12      1.36561590    -1.05991304  -339.00362125     0.00000003     0.00000002  0.46D-11  0.35D-11  6  6    96.86
  13      1.36561562    -1.05991308  -339.00362129    -0.00000004     0.00000012  0.11D-11  0.39D-12  6  1   104.64
  14      1.36561552    -1.05991309  -339.00362130    -0.00000001     0.00000004  0.90D-13  0.75D-13  6  2   112.42
  15      1.36561550    -1.05991309  -339.00362130     0.00000000     0.00000001  0.23D-13  0.12D-13  6  3   120.21
  16      1.36561549    -1.05991309  -339.00362130    -0.00000000     0.00000000  0.49D-14  0.22D-14  6  4   128.01
  17      1.36561549    -1.05991309  -339.00362130     0.00000000    -0.00000000  0.92D-15  0.45D-15  6  5   135.79
  18      1.36561550    -1.05991309  -339.00362130     0.00000000    -0.00000000  0.25D-15  0.96D-16  6  2   143.58
  19      1.36561550    -1.05991309  -339.00362130     0.00000000    -0.00000000  0.43D-16  0.14D-16  6  6   151.37
  20      1.36561550    -1.05991309  -339.00362130    -0.00000000     0.00000000  0.12D-16  0.28D-17  6  1   159.14
  21      1.36561550    -1.05991309  -339.00362130     0.00000000    -0.00000000  0.32D-17  0.11D-17  6  4   166.93
  22      1.36561550    -1.05991309  -339.00362130    -0.00000000     0.00000000  0.98D-18  0.23D-18  6  3   174.73
  23      1.36561550    -1.05991309  -339.00362130     0.00000000    -0.00000000  0.49D-19  0.30D-19  6  5   182.53
  24      1.36561550    -1.05991309  -339.00362130     0.00000000    -0.00000000  0.12D-19  0.52D-20  6  2   190.35
  25      1.36561550    -1.05991309  -339.00362130    -0.00000000     0.00000000  0.16D-20  0.10D-20  6  4   198.13
  26      1.36561550    -1.05991309  -339.00362130     0.00000000    -0.00000000  0.11D-21  0.98D-22  6  6   205.92

 Norm of t1 vector:      0.14827361      S-energy:     0.00000000      T1 diagnostic:  0.01747421
                                                                       D1 diagnostic:  0.05904167


 Total CPU time for triples:    195.03 sec


 RESULTS
 =======

  Reference energy                   -337.943708214478
  CCSD singlet pair energy             -0.699732071089
  CCSD triplet pair energy             -0.360181018127
  CCSD correlation energy              -1.059913089215

  Triples (T) contribution             -0.039947471362
  Total correlation energy             -1.099860560577

  CCSD total energy                  -339.003621303693
  CCSD[T] energy                     -339.046788953410
  CCSD-T energy                      -339.042446358409
 !CCSD(T) total energy               -339.043568775055

 Timing summary (sec):

 STEP                 CPU(USER)    SYS     CPU(TOT)    WALL
 Transformation          3.86      0.35      4.21      4.21
 CCSD iterations       202.06      5.17    207.23    207.31
 Triples               195.03      4.15    199.18    199.22

 Program statistics:

 Available memory in ccsd:               999998604
 Min. memory needed in ccsd:               6087664
 Max. memory used in ccsd:                 8297292
 Max. memory used in cckext:               8019339 (26 integral passes)



 **********************************************************************************************************************************
 DATASETS  * FILE   NREC   LENGTH (MB)   RECORD NAMES
              1      20      912.65       500      610      700      900      950      970     1000      129      960     1100   
                                          VAR    BASINP    GEOM    SYMINP    ZMAT    AOBASIS   BASIS     P2S    ABASIS      S 
                                         1400     1410     1200     1210     1080     1600     1650     1300     1700     1380   
                                           T        V       H0       H01     AOSYM     SMH    MOLCAS    ERIS     OPER     JKOP   

              2       3        0.91       700     1000     2100   
                                         GEOM     BASIS     RHF  

 PROGRAMS   *        TOTAL   CCSD(T)       RHF       INT
 CPU TIMES  *       427.36    400.96     17.75      8.61
 REAL TIME  *       441.20 SEC
 DISK USED  *         2.52 GB      
 GA USED    *         0.00 MB       (max)       0.00 MB       (current)
 **********************************************************************************************************************************

        CCSD(T)         RHF-SCF 
   -339.04356878   -337.94370821
 **********************************************************************************************************************************
 Variable memory released
