
 Primary working directories    : /tmp/862637.330.gen6.q
 Secondary working directories  : /tmp/862637.330.gen6.q
 Wavefunction directory         : /home/vulcan/lo21740/wfu/
 Main file repository           : /tmp/862637.330.gen6.q/

 ARCHNAME  : Linux/x86_64
 FC        : /opt/intel/compilers_and_libraries_2016.1.150/linux/bin/intel64/ifort
 FCVERSION : 16.0.1
 BLASLIB   : -mkl
 id        : ccgc

 Nodes     nprocs
 n083         1
 ga_uses_ma=false, calling ma_init with nominal heap.
 GA-space will be limited to   8.0 MW (determined by -G option)

 Using customized tuning parameters: mindgm=10; mindgv=16; mindgc=4; mindgr=1; noblas=0; mincuda=1000; minvec=7
 default implementation of scratch files=df  

 ***,Optimization of formic acid
 memory,1000,m
 gthresh,energy=1.0d-12,orbital=1.0d-10,oneint=1.0d-16,twoint=1.0d-16,optgrad=1.0d-6,compress=1.0d-13
 geomtyp=xyz
 
 bohr
 geometry = {
  C   -3.5002397858   -0.8309254905   -0.0000000000
  O   -3.0962761399    1.6227062182    0.0000000000
  O   -1.8837502008   -2.4810992366   -0.0000000000
  H   -5.5200620744   -1.2731307922   -0.0000000000
  H   -1.2391908125    1.9542230454    0.0000000000
  C    3.5002397858    0.8309254905    0.0000000000
  O    3.0962761399   -1.6227062182   -0.0000000000
  O    1.8837502008    2.4810992366    0.0000000000
  H    5.5200620744    1.2731307922    0.0000000000
  H    1.2391908125   -1.9542230454   -0.0000000000
 }
 
 basis=AVDZ, H=VDZ
 {rhf;maxit,200}
 {ccsd(t);maxit,200}

 Variables initialized (661), CPU time= 0.00 sec
 Commands  initialized (458), CPU time= 0.01 sec, 486 directives.
 Default parameters read. Elapsed time= 0.04 sec

 Checking input...
 Passed
1


                                         ***  PROGRAM SYSTEM MOLPRO  ***
                         Copyright, University College Cardiff Consultants Limited, 2008

                                    Version 2010.1 linked May 16 2016 07:17:05


 **********************************************************************************************************************************
 LABEL *   Optimization of formic acid                                                   
 Linux-4.4.3/n083(x86_64) 64 bit mpp version                                             DATE: 27-Apr-23          TIME: 16:21:21  
 **********************************************************************************************************************************

 SHA1:             9e8077add272b0f3cad6f7df79ec5211205f459d
 **********************************************************************************************************************************

 THRESHOLDS:

 ZERO    =  1.00D-12  ONEINT  =  1.00D-16  TWOINT  =  1.00D-16  PREFAC  =  1.00D-14  LOCALI  =  1.00D-09  EORDER  =  1.00D-04
 ENERGY  =  1.00D-12  ETEST   =  0.00D+00  EDENS   =  0.00D+00  THRDEDEF=  1.00D-06  GRADIENT=  1.00D-02  STEP    =  1.00D-03
 ORBITAL =  1.00D-10  CIVEC   =  1.00D-05  COEFF   =  1.00D-04  PRINTCI =  5.00D-02  PUNCHCI =  9.90D+01  OPTGRAD =  1.00D-06
 OPTENERG=  1.00D-06  OPTSTEP =  3.00D-04  THRGRAD =  1.00D-10  COMPRESS=  1.00D-13  VARMIN  =  1.00D-07  VARMAX  =  1.00D-03
 THRDOUB =  0.00D+00  THRDIV  =  1.00D-05  THRRED  =  1.00D-07  THRPSP  =  1.00D+00  THRDC   =  1.00D-10  THRCS   =  1.00D-10
 THRNRM  =  1.00D-08  THREQ   =  0.00D+00  THRDE   =  1.00D+00  THRREF  =  1.00D-05  SPARFAC =  1.00D+00  THRDLP  =  1.00D-07
 THRDIA  =  1.00D-10  THRDLS  =  1.00D-07  THRGPS  =  0.00D+00  THRKEX  =  0.00D+00  THRDIS  =  2.00D-01  THRVAR  =  1.00D-10
 THRLOC  =  1.00D-06  THRGAP  =  1.00D-06  THRLOCT = -1.00D+00  THRGAPT = -1.00D+00  THRORB  =  1.00D-06  THRMLTP =  0.00D+00
 THRCPQCI=  1.00D-10  KEXTA   =  0.00D+00  THRCOARS=  0.00D+00  SYMTOL  =  1.00D-06  GRADTOL =  1.00D-06  THROVL  =  1.00D-08
 THRORTH =  1.00D-08  GRID    =  1.00D-06  GRIDMAX =  1.00D-03  DTMAX   =  0.00D+00

 SETTING GEOMTYP        =    XYZ
 ZUNIT=BOHR
 

 Variable memory set to 1000000000 words,  buffer space   230000 words

 SETTING BASIS          =    AVDZ,H=VDZ


 Recomputing integrals since basis changed


 Using spherical harmonics

 Library entry C      S aug-cc-pVDZ          selected for orbital group  1
 Library entry C      P aug-cc-pVDZ          selected for orbital group  1
 Library entry C      D aug-cc-pVDZ          selected for orbital group  1
 Library entry O      S aug-cc-pVDZ          selected for orbital group  2
 Library entry O      P aug-cc-pVDZ          selected for orbital group  2
 Library entry O      D aug-cc-pVDZ          selected for orbital group  2
 Library entry H      S cc-pVDZ              selected for orbital group  3
 Library entry H      P cc-pVDZ              selected for orbital group  3

1PROGRAM * SEWARD (Integral evaluation for generally contracted gaussian basis sets)     Author: Roland Lindh, 1990

 Geometry written to block  1 of record 700


 Point group  C2h 



 ATOMIC COORDINATES

 NR  ATOM    CHARGE       X              Y              Z

   1  C       6.00   -3.500239786   -0.830925490    0.000000000
   2  C       6.00    3.500239786    0.830925490    0.000000000
   3  O       8.00   -3.096276140    1.622706218    0.000000000
   4  O       8.00    3.096276140   -1.622706218    0.000000000
   5  O       8.00   -1.883750201   -2.481099237    0.000000000
   6  O       8.00    1.883750201    2.481099237    0.000000000
   7  H       1.00   -5.520062074   -1.273130792    0.000000000
   8  H       1.00    5.520062074    1.273130792    0.000000000
   9  H       1.00   -1.239190812    1.954223045    0.000000000
  10  H       1.00    1.239190812   -1.954223045    0.000000000

 Bond lengths in Bohr (Angstrom)

 1-3  2.486663465  1-5  2.310002591  1-7  2.067662353  2-4  2.486663465  2-6  2.310002591
     ( 1.315885632)     ( 1.222400724)     ( 1.094159793)     ( 1.315885632)     ( 1.222400724)

  2- 8  2.067662353   3- 9  1.886443564   4-10  1.886443564
       ( 1.094159793)       ( 0.998262940)       ( 0.998262940)

 Bond angles

  1- 3- 9  109.47076802   2- 4-10  109.47076802   3- 1- 5  126.24153151   3- 1- 7  111.69833331

  4-2-6  126.24153151   4-2-8  111.69833331   5-1-7  122.06013518   6-2-8  122.06013518

 NUCLEAR CHARGE:                   48
 NUMBER OF PRIMITIVE AOS:         250
 NUMBER OF SYMMETRY AOS:          238
 NUMBER OF CONTRACTIONS:          158   (  56Ag  +  23Au  +  56Bu  +  23Bg  )
 NUMBER OF CORE ORBITALS:           6   (   3Ag  +   0Au  +   3Bu  +   0Bg  )
 NUMBER OF VALENCE ORBITALS:       28   (  11Ag  +   3Au  +  11Bu  +   3Bg  )


 NUCLEAR REPULSION ENERGY  235.49737163


 Eigenvalues of metric

         1 0.127E-02 0.143E-02 0.276E-02 0.695E-02 0.733E-02 0.775E-02 0.121E-01 0.127E-01
         2 0.379E-01 0.473E-01 0.743E-01 0.105E+00 0.149E+00 0.219E+00 0.250E+00 0.279E+00
         3 0.779E-03 0.198E-02 0.420E-02 0.474E-02 0.703E-02 0.841E-02 0.112E-01 0.117E-01
         4 0.270E-01 0.519E-01 0.617E-01 0.138E+00 0.162E+00 0.222E+00 0.260E+00 0.284E+00


 Contracted 2-electron integrals neglected if value below      1.0D-16
 AO integral compression algorithm  1   Integral accuracy      1.0D-16

     221.250 MB (compressed) written to integral file (100.0%)

     Node minimum: 221.250 MB, node maximum: 221.250 MB


 NUMBER OF SORTED TWO-ELECTRON INTEGRALS:   20758224.     BUFFER LENGTH:  32768
 NUMBER OF SEGMENTS:   2  SEGMENT LENGTH:   15997776      RECORD LENGTH: 524288

 Memory used in sort:      16.55 MW

 SORT1 READ    26969232. AND WROTE    20758224. INTEGRALS IN     60 RECORDS. CPU TIME:     0.36 SEC, REAL TIME:     0.49 SEC
 SORT2 READ    20758224. AND WROTE    20758224. INTEGRALS IN    844 RECORDS. CPU TIME:     0.24 SEC, REAL TIME:     0.34 SEC

 FILE SIZES:   FILE 1:   173.7 MBYTE,  FILE 4:   251.7 MBYTE,   TOTAL:    425.4 MBYTE

 OPERATOR DM      FOR CENTER  0  COORDINATES:    0.000000    0.000000    0.000000


 **********************************************************************************************************************************
 DATASETS  * FILE   NREC   LENGTH (MB)   RECORD NAMES
              1      19      173.79       500      610      700      900      950      970     1000      129      960     1100   
                                          VAR    BASINP    GEOM    SYMINP    ZMAT    AOBASIS   BASIS     P2S    ABASIS      S 
                                         1400     1410     1200     1210     1080     1600     1650     1300     1700   
                                           T        V       H0       H01     AOSYM     SMH    MOLCAS    ERIS     OPER   

 PROGRAMS   *        TOTAL       INT
 CPU TIMES  *         2.41      2.37
 REAL TIME  *         2.90 SEC
 DISK USED  *       647.46 MB      
 GA USED    *         0.00 MB       (max)       0.00 MB       (current)
 **********************************************************************************************************************************

1PROGRAM * RHF-SCF (CLOSED SHELL)       Authors: W. Meyer, H.-J. Werner


 NUMBER OF ELECTRONS:      24+   24-
 CONVERGENCE THRESHOLDS:    1.00E-10 (Density)    1.00E-13 (Energy)
 MAX. NUMBER OF ITERATIONS:      200
 INTERPOLATION TYPE:            DIIS
 INTERPOLATION STEPS:              2 (START)      1 (STEP)
 LEVEL SHIFTS:                  0.00 (CLOSED)  0.00 (OPEN) 



 Orbital guess generated from atomic densities. Full valence occupancy:   14   3  14   3

 Molecular orbital dump at record        2100.2

 Initial alpha occupancy:  10   2  10   2
 Initial beta  occupancy:  10   2  10   2
 Wave function symmetry:    1

 ITERATION    DDIFF          GRAD             ENERGY        2-EL.EN.            DIPOLE MOMENTS         DIIS
    1      0.000D+00      0.000D+00      -377.47422334    746.240483    0.00000    0.00000    0.00000    0
    2      0.000D+00      0.133D-01      -377.56240556    743.451308    0.00000    0.00000    0.00000    1
    3      0.251D-01      0.834D-02      -377.60968411    745.724336    0.00000    0.00000    0.00000    2
    4      0.940D-02      0.119D-02      -377.61129271    745.325839    0.00000    0.00000    0.00000    3
    5      0.183D-02      0.505D-03      -377.61157550    745.363584    0.00000    0.00000    0.00000    4
    6      0.760D-03      0.142D-03      -377.61161937    745.415295    0.00000    0.00000    0.00000    5
    7      0.255D-03      0.633D-04      -377.61162990    745.397253    0.00000    0.00000    0.00000    6
    8      0.147D-03      0.199D-04      -377.61163114    745.402768    0.00000    0.00000    0.00000    7
    9      0.543D-04      0.657D-05      -377.61163126    745.401434    0.00000    0.00000    0.00000    8
   10      0.177D-04      0.181D-05      -377.61163127    745.401667    0.00000    0.00000    0.00000    7
   11      0.494D-05      0.531D-06      -377.61163127    745.401589    0.00000    0.00000    0.00000    8
   12      0.144D-05      0.164D-06      -377.61163127    745.401623    0.00000    0.00000    0.00000    8
   13      0.407D-06      0.662D-07      -377.61163127    745.401603    0.00000    0.00000    0.00000    8
   14      0.120D-06      0.215D-07      -377.61163127    745.401607    0.00000    0.00000    0.00000    8
   15      0.502D-07      0.727D-08      -377.61163127    745.401608    0.00000    0.00000    0.00000    8
   16      0.139D-07      0.227D-08      -377.61163127    745.401607    0.00000    0.00000    0.00000    8
   17      0.402D-08      0.573D-09      -377.61163127    745.401607    0.00000    0.00000    0.00000    8
   18      0.106D-08      0.178D-09      -377.61163127    745.401607    0.00000    0.00000    0.00000    8
   19      0.364D-09      0.552D-10      -377.61163127    745.401607    0.00000    0.00000    0.00000    8
   20      0.118D-09      0.148D-10      -377.61163127    745.401607    0.00000    0.00000    0.00000    7
   21      0.362D-10      0.358D-11      -377.61163127    745.401607    0.00000    0.00000    0.00000    7
   22      0.911D-11      0.139D-11      -377.61163127    745.401607    0.00000    0.00000    0.00000    7
   23      0.330D-11      0.352D-12      -377.61163127    745.401607    0.00000    0.00000    0.00000    0

 Final occupancy:  10   2  10   2

 !RHF STATE 1.1 Energy               -377.611631269850
 Nuclear energy                       235.49737163
 One-electron energy                 -985.80980643
 Two-electron energy                  372.70080353
 Virial quotient                       -1.00166981
 !RHF STATE 1.1 Dipole moment           0.00000000     0.00000000     0.00000000
 Dipole moment /Debye                   0.00000000     0.00000000     0.00000000

 Orbital energies:

         1.1          2.1          3.1          4.1          5.1          6.1          7.1          8.1          9.1         10.1
    -20.626360   -20.587731   -11.420011    -1.490008    -1.377966    -0.921504    -0.735330    -0.697750    -0.622338    -0.498134

        11.1         12.1
      0.070578     0.092951

         1.2          2.2          3.2          4.2
     -0.645531    -0.495102     0.080708     0.140176

         1.3          2.3          3.3          4.3          5.3          6.3          7.3          8.3          9.3         10.3
    -20.626359   -20.587732   -11.420013    -1.477316    -1.391939    -0.885633    -0.771331    -0.726683    -0.581706    -0.475606

        11.3         12.3
      0.069512     0.088198

         1.4          2.4          3.4          4.4
     -0.635189    -0.506832     0.092999     0.174859


 **********************************************************************************************************************************
 DATASETS  * FILE   NREC   LENGTH (MB)   RECORD NAMES
              1      19      173.79       500      610      700      900      950      970     1000      129      960     1100   
                                          VAR    BASINP    GEOM    SYMINP    ZMAT    AOBASIS   BASIS     P2S    ABASIS      S 
                                         1400     1410     1200     1210     1080     1600     1650     1300     1700   
                                           T        V       H0       H01     AOSYM     SMH    MOLCAS    ERIS     OPER   

              2       3        0.59       700     1000     2100   
                                         GEOM     BASIS     RHF  

 PROGRAMS   *        TOTAL       RHF       INT
 CPU TIMES  *         3.62      1.21      2.37
 REAL TIME  *         4.41 SEC
 DISK USED  *       647.46 MB      
 GA USED    *         0.00 MB       (max)       0.00 MB       (current)
 **********************************************************************************************************************************


1PROGRAM * CCSD (Closed-shell coupled cluster)     Authors: C. Hampel, H.-J. Werner, 1991, M. Deegan, P.J. Knowles, 1992


 Convergence thresholds:  THRVAR = 1.00D-08  THRDEN = 1.00D-12

 CCSD(T)     terms to be evaluated (factor= 1.000)


 Number of core orbitals:           6 (   3   0   3   0 )
 Number of closed-shell orbitals:  18 (   7   2   7   2 )
 Number of external orbitals:     134 (  46  21  46  21 )

 Molecular orbitals read from record     2100.2  Type=RHF/CANONICAL (state 1.1)

 Number of N-1 electron functions:              18
 Number of N-2 electron functions:             171
 Number of singly external CSFs:               728
 Number of doubly external CSFs:            759674
 Total number of CSFs:                      760403

 Length of J-op  integral file:               0.00 MB
 Length of K-op  integral file:               0.54 MB
 Length of 3-ext integral record:             0.00 MB

 Memory could be reduced to 14.96 Mwords without degradation in triples

 Integral transformation finished. Total CPU:   0.48 sec, npass=  1  Memory used:   4.79 MW

 Reference energy:                   -377.61163127

 MP2 singlet pair energy:              -0.63217392
 MP2 triplet pair energy:              -0.43073734
 MP2 correlation energy:               -1.06291127
 MP2 total energy:                   -378.67454254

 SCS-MP2 correlation energy:           -1.02662306   (PS=  1.200000  PT=  0.333333)
 SCS-MP2 total energy:               -378.63825433

 ITER.      SQ.NORM     CORR.ENERGY   TOTAL ENERGY   ENERGY CHANGE        DEN1      VAR(S)    VAR(P)  DIIS     TIME
   1      1.30297481    -1.08019932  -378.69183059    -0.01728806     0.01559917  0.11D-01  0.60D-02  1  1     1.40
   2      1.32760183    -1.08129874  -378.69293001    -0.00109941    -0.02623815  0.24D-03  0.10D-02  2  2     2.36
   3      1.34081125    -1.08215390  -378.69378517    -0.00085516    -0.00595413  0.21D-03  0.45D-04  3  3     3.33
   4      1.34614742    -1.08188537  -378.69351664     0.00026853    -0.00176894  0.19D-04  0.81D-05  4  4     4.30
   5      1.34824035    -1.08179616  -378.69342743     0.00008921    -0.00046922  0.17D-05  0.73D-06  5  5     5.28
   6      1.34862404    -1.08177580  -378.69340707     0.00002036    -0.00002193  0.14D-06  0.85D-07  6  6     6.26
   7      1.34870665    -1.08176631  -378.69339758     0.00000949    -0.00000601  0.12D-07  0.12D-07  6  2     7.23
   8      1.34871247    -1.08176713  -378.69339840    -0.00000082     0.00000233  0.19D-08  0.11D-08  6  1     8.21
   9      1.34871317    -1.08176695  -378.69339822     0.00000018     0.00000128  0.30D-09  0.17D-09  6  4     9.19
  10      1.34871492    -1.08176678  -378.69339805     0.00000017    -0.00000050  0.70D-10  0.22D-10  6  3    10.16
  11      1.34871442    -1.08176690  -378.69339817    -0.00000012     0.00000023  0.16D-10  0.40D-11  6  5    11.14
  12      1.34871417    -1.08176692  -378.69339819    -0.00000002     0.00000004  0.29D-11  0.10D-11  6  6    12.12
  13      1.34871388    -1.08176695  -378.69339822    -0.00000004     0.00000010  0.48D-12  0.20D-12  6  1    13.09
  14      1.34871378    -1.08176696  -378.69339823    -0.00000001     0.00000002  0.67D-13  0.31D-13  6  2    14.07
  15      1.34871376    -1.08176696  -378.69339823    -0.00000000     0.00000000  0.12D-13  0.51D-14  6  4    15.04
  16      1.34871375    -1.08176696  -378.69339823    -0.00000000    -0.00000000  0.24D-14  0.11D-14  6  3    16.02
  17      1.34871375    -1.08176696  -378.69339823     0.00000000    -0.00000000  0.28D-15  0.17D-15  6  6    17.00
  18      1.34871375    -1.08176696  -378.69339823    -0.00000000     0.00000000  0.36D-16  0.17D-16  6  5    17.98
  19      1.34871375    -1.08176696  -378.69339823    -0.00000000     0.00000000  0.89D-17  0.27D-17  6  1    18.96
  20      1.34871375    -1.08176696  -378.69339823     0.00000000    -0.00000000  0.16D-17  0.79D-18  6  5    19.94
  21      1.34871375    -1.08176696  -378.69339823    -0.00000000     0.00000000  0.16D-18  0.87D-19  6  2    20.91
  22      1.34871375    -1.08176696  -378.69339823     0.00000000    -0.00000000  0.11D-19  0.12D-19  6  3    21.88
  23      1.34871375    -1.08176696  -378.69339823     0.00000000     0.00000000  0.12D-20  0.59D-21  6  4    22.86
  24      1.34871375    -1.08176696  -378.69339823     0.00000000     0.00000000  0.35D-21  0.10D-21  6  6    23.84

 Norm of t1 vector:      0.15417290      S-energy:    -0.00000000      T1 diagnostic:  0.01816945
                                                                       D1 diagnostic:  0.06248230

 Singles amplitudes (print threshold =  0.500E-01):

         I         SYM. A    A   T(IA)

        17         4         2     -0.05272336


 Total CPU time for triples:     22.02 sec


 RESULTS
 =======

  Reference energy                   -377.611631269850
  CCSD singlet pair energy             -0.703120704441
  CCSD triplet pair energy             -0.378646255566
  CCSD correlation energy              -1.081766960007

  Triples (T) contribution             -0.039510309569
  Total correlation energy             -1.121277269576

  CCSD total energy                  -378.693398229857
  CCSD[T] energy                     -378.736562721569
  CCSD-T energy                      -378.731651704480
 !CCSD(T) total energy               -378.732908539426

 Timing summary (sec):

 STEP                 CPU(USER)    SYS     CPU(TOT)    WALL
 Transformation          0.50      0.09      0.59      0.58
 CCSD iterations        23.34      1.20     24.54     24.70
 Triples                22.02      0.85     22.87     22.88

 Program statistics:

 Available memory in ccsd:               999998604
 Min. memory needed in ccsd:               1971250
 Max. memory used in ccsd:                 2664424
 Max. memory used in cckext:               2549270 (24 integral passes)



 **********************************************************************************************************************************
 DATASETS  * FILE   NREC   LENGTH (MB)   RECORD NAMES
              1      20      233.03       500      610      700      900      950      970     1000      129      960     1100   
                                          VAR    BASINP    GEOM    SYMINP    ZMAT    AOBASIS   BASIS     P2S    ABASIS      S 
                                         1400     1410     1200     1210     1080     1600     1650     1300     1700     1380   
                                           T        V       H0       H01     AOSYM     SMH    MOLCAS    ERIS     OPER     JKOP   

              2       3        0.59       700     1000     2100   
                                         GEOM     BASIS     RHF  

 PROGRAMS   *        TOTAL   CCSD(T)       RHF       INT
 CPU TIMES  *        49.49     45.87      1.21      2.37
 REAL TIME  *        52.61 SEC
 DISK USED  *       647.46 MB      
 GA USED    *         0.00 MB       (max)       0.00 MB       (current)
 **********************************************************************************************************************************

        CCSD(T)         RHF-SCF 
   -378.73290854   -377.61163127
 **********************************************************************************************************************************
 Variable memory released
