
 Primary working directories    : /tmp/943168.280.gen4.q
 Secondary working directories  : /tmp/943168.280.gen4.q
 Wavefunction directory         : /home/vulcan/mel64643/wfu/
 Main file repository           : /tmp/943168.280.gen4.q/

 ARCHNAME  : Linux/x86_64
 FC        : /opt/intel/compilers_and_libraries_2016.1.150/linux/bin/intel64/ifort
 FCVERSION : 16.0.1
 BLASLIB   : -mkl
 id        : ccgc

 Nodes     nprocs
 n056         1
 ga_uses_ma=false, calling ma_init with nominal heap.
 GA-space will be limited to   8.0 MW (determined by -G option)

 Using customized tuning parameters: mindgm=10; mindgv=16; mindgc=4; mindgr=1; noblas=0; mincuda=1000; minvec=7
 default implementation of scratch files=df  

 ***,Optimization of h2o_2
 memory,1000,m
 gthresh,energy=1.0d-12,orbital=1.0d-10,oneint=1.0d-16,twoint=1.0d-16,optgrad=1.0d-6,compress=1.0d-13
 geomtyp=xyz
 
 bohr
 geometry = {
  C    0.0013761126   -3.4224245588   -0.0012142384
  H   -0.9717458377   -2.7333492092   -1.6808762639
  H   -0.9670629948   -2.7329159049    1.6809745734
  H    1.9420400368   -2.7318681274   -0.0040064638
  H    0.0022690284   -5.4822362062   -0.0009499960
  C    0.0006101556    3.4210734243   -0.0020952204
  H    0.0035623458    5.4858737239   -0.0083414330
  H    0.9652118460    2.7265870078   -1.6783154324
  H    0.9603643292    2.7334409124    1.6919274507
  H   -1.9366250220    2.7358189383    0.0028970238
 }
 
 basis=AVDZ
 {rhf;maxit,200}
 {ccsd(t);maxit,200}

 Variables initialized (661), CPU time= 0.00 sec
 Commands  initialized (458), CPU time= 0.00 sec, 486 directives.
 Default parameters read. Elapsed time= 0.05 sec

 Checking input...
 Passed
1


                                         ***  PROGRAM SYSTEM MOLPRO  ***
                         Copyright, University College Cardiff Consultants Limited, 2008

                                    Version 2010.1 linked May 16 2016 07:17:05


 **********************************************************************************************************************************
 LABEL *   Optimization of h2o_2                                                         
 Linux-4.4.3/n056(x86_64) 64 bit mpp version                                             DATE: 23-Oct-23          TIME: 11:00:19  
 **********************************************************************************************************************************

 SHA1:             9e8077add272b0f3cad6f7df79ec5211205f459d
 **********************************************************************************************************************************

 THRESHOLDS:

 ZERO    =  1.00D-12  ONEINT  =  1.00D-16  TWOINT  =  1.00D-16  PREFAC  =  1.00D-14  LOCALI  =  1.00D-09  EORDER  =  1.00D-04
 ENERGY  =  1.00D-12  ETEST   =  0.00D+00  EDENS   =  0.00D+00  THRDEDEF=  1.00D-06  GRADIENT=  1.00D-02  STEP    =  1.00D-03
 ORBITAL =  1.00D-10  CIVEC   =  1.00D-05  COEFF   =  1.00D-04  PRINTCI =  5.00D-02  PUNCHCI =  9.90D+01  OPTGRAD =  1.00D-06
 OPTENERG=  1.00D-06  OPTSTEP =  3.00D-04  THRGRAD =  1.00D-10  COMPRESS=  1.00D-13  VARMIN  =  1.00D-07  VARMAX  =  1.00D-03
 THRDOUB =  0.00D+00  THRDIV  =  1.00D-05  THRRED  =  1.00D-07  THRPSP  =  1.00D+00  THRDC   =  1.00D-10  THRCS   =  1.00D-10
 THRNRM  =  1.00D-08  THREQ   =  0.00D+00  THRDE   =  1.00D+00  THRREF  =  1.00D-05  SPARFAC =  1.00D+00  THRDLP  =  1.00D-07
 THRDIA  =  1.00D-10  THRDLS  =  1.00D-07  THRGPS  =  0.00D+00  THRKEX  =  0.00D+00  THRDIS  =  2.00D-01  THRVAR  =  1.00D-10
 THRLOC  =  1.00D-06  THRGAP  =  1.00D-06  THRLOCT = -1.00D+00  THRGAPT = -1.00D+00  THRORB  =  1.00D-06  THRMLTP =  0.00D+00
 THRCPQCI=  1.00D-10  KEXTA   =  0.00D+00  THRCOARS=  0.00D+00  SYMTOL  =  1.00D-06  GRADTOL =  1.00D-06  THROVL  =  1.00D-08
 THRORTH =  1.00D-08  GRID    =  1.00D-06  GRIDMAX =  1.00D-03  DTMAX   =  0.00D+00

 SETTING GEOMTYP        =    XYZ
 ZUNIT=BOHR
 

 Variable memory set to 1000000000 words,  buffer space   230000 words

 SETTING BASIS          =    AVDZ


 Recomputing integrals since basis changed


 Using spherical harmonics

 Library entry C      S aug-cc-pVDZ          selected for orbital group  1
 Library entry C      P aug-cc-pVDZ          selected for orbital group  1
 Library entry C      D aug-cc-pVDZ          selected for orbital group  1
 Library entry H      S aug-cc-pVDZ          selected for orbital group  2
 Library entry H      P aug-cc-pVDZ          selected for orbital group  2

1PROGRAM * SEWARD (Integral evaluation for generally contracted gaussian basis sets)     Author: Roland Lindh, 1990

 Geometry written to block  1 of record 700


 Point group  C1  



 ATOMIC COORDINATES

 NR  ATOM    CHARGE       X              Y              Z

   1  C       6.00    0.001376113   -3.422424559   -0.001214238
   2  H       1.00   -0.971745838   -2.733349209   -1.680876264
   3  H       1.00   -0.967062995   -2.732915905    1.680974573
   4  H       1.00    1.942040037   -2.731868127   -0.004006464
   5  H       1.00    0.002269028   -5.482236206   -0.000949996
   6  C       6.00    0.000610156    3.421073424   -0.002095220
   7  H       1.00    0.003562346    5.485873724   -0.008341433
   8  H       1.00    0.965211846    2.726587008   -1.678315432
   9  H       1.00    0.960364329    2.733440912    1.691927451
  10  H       1.00   -1.936625022    2.735818938    0.002897024

 Bond lengths in Bohr (Angstrom)

 1-2  2.059867881  1-3  2.059867881  1-4  2.059867095  1-5  2.059811858  6-7  2.064811858
     ( 1.090035136)     ( 1.090035136)     ( 1.090034720)     ( 1.090005490)     ( 1.092651376)

  6- 8  2.054867880   6- 9  2.064867878   6-10  2.054867092
       ( 1.087389249)       ( 1.092681021)       ( 1.087388833)

 Bond angles

  2-1-3  109.37992579   2-1-4  109.37980975   2-1-5  109.56240830   3-1-4  109.37980975

  3-1-5  109.56240831   4-1-5  109.56250040   7-6-8  109.56223832   7-6-9  109.56223830

  7- 6-10  109.56233056   8- 6- 9  109.78489835   8- 6-10  109.37963975   9- 6-10  108.97449747

 NUCLEAR CHARGE:                   20
 NUMBER OF PRIMITIVE AOS:         162
 NUMBER OF SYMMETRY AOS:          158
 NUMBER OF CONTRACTIONS:          118   ( 118A   )
 NUMBER OF CORE ORBITALS:           2   (   2A   )
 NUMBER OF VALENCE ORBITALS:       16   (  16A   )


 NUCLEAR REPULSION ENERGY   41.34134298


 Eigenvalues of metric

         1 0.370E-03 0.569E-03 0.574E-03 0.613E-03 0.726E-03 0.730E-03 0.780E-03 0.101E-02


 Contracted 2-electron integrals neglected if value below      1.0D-16
 AO integral compression algorithm  1   Integral accuracy      1.0D-16

     212.074 MB (compressed) written to integral file ( 92.8%)

     Node minimum: 212.074 MB, node maximum: 212.074 MB


 NUMBER OF SORTED TWO-ELECTRON INTEGRALS:   24650731.     BUFFER LENGTH:  32768
 NUMBER OF SEGMENTS:   2  SEGMENT LENGTH:   15997996      RECORD LENGTH: 524288

 Memory used in sort:      16.56 MW

 SORT1 READ    28594353. AND WROTE    24449940. INTEGRALS IN     71 RECORDS. CPU TIME:     0.28 SEC, REAL TIME:     0.41 SEC
 SORT2 READ    24449940. AND WROTE    24650731. INTEGRALS IN    809 RECORDS. CPU TIME:     0.24 SEC, REAL TIME:     0.34 SEC

 FILE SIZES:   FILE 1:   189.1 MBYTE,  FILE 4:   297.8 MBYTE,   TOTAL:    487.0 MBYTE

 OPERATOR DM      FOR CENTER  0  COORDINATES:    0.000000    0.000000    0.000000


 **********************************************************************************************************************************
 DATASETS  * FILE   NREC   LENGTH (MB)   RECORD NAMES
              1      19      189.29       500      610      700      900      950      970     1000      129      960     1100   
                                          VAR    BASINP    GEOM    SYMINP    ZMAT    AOBASIS   BASIS     P2S    ABASIS      S 
                                         1400     1410     1200     1210     1080     1600     1650     1300     1700   
                                           T        V       H0       H01     AOSYM     SMH    MOLCAS    ERIS     OPER   

 PROGRAMS   *        TOTAL       INT
 CPU TIMES  *         1.64      1.60
 REAL TIME  *         2.14 SEC
 DISK USED  *       699.81 MB      
 GA USED    *         0.00 MB       (max)       0.00 MB       (current)
 **********************************************************************************************************************************

1PROGRAM * RHF-SCF (CLOSED SHELL)       Authors: W. Meyer, H.-J. Werner


 NUMBER OF ELECTRONS:      10+   10-    SPACE SYMMETRY=1    SPIN SYMMETRY: Singlet 
 CONVERGENCE THRESHOLDS:    1.00E-10 (Density)    1.00E-13 (Energy)
 MAX. NUMBER OF ITERATIONS:      200
 INTERPOLATION TYPE:            DIIS
 INTERPOLATION STEPS:              2 (START)      1 (STEP)
 LEVEL SHIFTS:                  0.00 (CLOSED)  0.00 (OPEN) 



 Orbital guess generated from atomic densities. Full valence occupancy:   18

 Molecular orbital dump at record        2100.2

 ITERATION    DDIFF          GRAD             ENERGY        2-EL.EN.            DIPOLE MOMENTS         DIIS
    1      0.000D+00      0.000D+00       -80.36231349    134.793012   -0.00104    0.00164    0.00334    0
    2      0.000D+00      0.368D-02       -80.39420569    132.487463   -0.00121   -0.00085   -0.00078    1
    3      0.809D-02      0.137D-02       -80.39818034    133.314926   -0.00146   -0.00092   -0.00047    2
    4      0.256D-02      0.371D-03       -80.39876727    133.184107   -0.00150   -0.00124   -0.00084    3
    5      0.868D-03      0.458D-04       -80.39877600    133.190993   -0.00152   -0.00129   -0.00090    4
    6      0.875D-04      0.296D-05       -80.39877605    133.190832   -0.00152   -0.00130   -0.00089    5
    7      0.107D-04      0.225D-06       -80.39877605    133.190813   -0.00152   -0.00130   -0.00090    5
    8      0.155D-05      0.360D-07       -80.39877605    133.190813   -0.00152   -0.00130   -0.00090    4
    9      0.289D-06      0.620D-08       -80.39877605    133.190814   -0.00152   -0.00130   -0.00090    4
   10      0.223D-07      0.134D-08       -80.39877605    133.190813   -0.00152   -0.00130   -0.00090    5
   11      0.333D-08      0.285D-09       -80.39877605    133.190814   -0.00152   -0.00130   -0.00090    5
   12      0.128D-08      0.887D-10       -80.39877605    133.190813   -0.00152   -0.00130   -0.00090    6
   13      0.294D-09      0.200D-10       -80.39877605    133.190813   -0.00152   -0.00130   -0.00090    6
   14      0.527D-10      0.447D-11       -80.39877605    133.190813   -0.00152   -0.00130   -0.00090    6
   15      0.182D-10      0.420D-12       -80.39877605    133.190813   -0.00152   -0.00130   -0.00090    6
   16      0.309D-11      0.155D-12       -80.39877605    133.190813   -0.00152   -0.00130   -0.00090    0

 Final occupancy:  10

 !RHF STATE 1.1 Energy                -80.398776050890
 Nuclear energy                        41.34134298
 One-electron energy                 -188.33552576
 Two-electron energy                   66.59540673
 Virial quotient                       -1.00196176
 !RHF STATE 1.1 Dipole moment          -0.00151674    -0.00129933    -0.00089576
 Dipole moment /Debye                  -0.00385492    -0.00330234    -0.00227666

 Orbital energies:

         1.1          2.1          3.1          4.1          5.1          6.1          7.1          8.1          9.1         10.1
    -11.214670   -11.214646    -0.945596    -0.939624    -0.550636    -0.547285    -0.546156    -0.539693    -0.538679    -0.535372

        11.1         12.1
      0.035477     0.045886


 **********************************************************************************************************************************
 DATASETS  * FILE   NREC   LENGTH (MB)   RECORD NAMES
              1      19      189.29       500      610      700      900      950      970     1000      129      960     1100   
                                          VAR    BASINP    GEOM    SYMINP    ZMAT    AOBASIS   BASIS     P2S    ABASIS      S 
                                         1400     1410     1200     1210     1080     1600     1650     1300     1700   
                                           T        V       H0       H01     AOSYM     SMH    MOLCAS    ERIS     OPER   

              2       3        0.70       700     1000     2100   
                                         GEOM     BASIS     RHF  

 PROGRAMS   *        TOTAL       RHF       INT
 CPU TIMES  *         4.69      3.05      1.60
 REAL TIME  *         5.58 SEC
 DISK USED  *       699.81 MB      
 GA USED    *         0.00 MB       (max)       0.00 MB       (current)
 **********************************************************************************************************************************


1PROGRAM * CCSD (Closed-shell coupled cluster)     Authors: C. Hampel, H.-J. Werner, 1991, M. Deegan, P.J. Knowles, 1992


 Convergence thresholds:  THRVAR = 1.00D-08  THRDEN = 1.00D-12

 CCSD(T)     terms to be evaluated (factor= 1.000)


 Number of core orbitals:           2 (   2 )
 Number of closed-shell orbitals:   8 (   8 )
 Number of external orbitals:     108 ( 108 )

 Molecular orbitals read from record     2100.2  Type=RHF/CANONICAL (state 1.1)

 Number of N-1 electron functions:               8
 Number of N-2 electron functions:              36
 Number of singly external CSFs:               864
 Number of doubly external CSFs:            373680
 Total number of CSFs:                      374545

 Length of J-op  integral file:               0.00 MB
 Length of K-op  integral file:               1.00 MB
 Length of 3-ext integral record:             0.00 MB

 Memory could be reduced to 14.62 Mwords without degradation in triples

 Integral transformation finished. Total CPU:   0.72 sec, npass=  1  Memory used:   8.61 MW

 Reference energy:                    -80.39877605

 MP2 singlet pair energy:              -0.24106654
 MP2 triplet pair energy:              -0.09675965
 MP2 correlation energy:               -0.33782619
 MP2 total energy:                    -80.73660224

 SCS-MP2 correlation energy:           -0.34948585   (PS=  1.200000  PT=  0.333333)
 SCS-MP2 total energy:                -80.74826190

 ITER.      SQ.NORM     CORR.ENERGY   TOTAL ENERGY   ENERGY CHANGE        DEN1      VAR(S)    VAR(P)  DIIS     TIME
   1      1.14044048    -0.38147791   -80.78025397    -0.04365173    -0.03251890  0.70D-03  0.24D-02  1  1     1.55
   2      1.15349108    -0.38423361   -80.78300966    -0.00275570    -0.01269518  0.16D-04  0.11D-03  2  2     2.46
   3      1.15560323    -0.38436640   -80.78314245    -0.00013279    -0.00113001  0.25D-05  0.71D-05  3  3     3.38
   4      1.15605030    -0.38438456   -80.78316061    -0.00001816    -0.00017665  0.10D-06  0.45D-06  4  4     4.29
   5      1.15612136    -0.38438125   -80.78315730     0.00000331    -0.00003214  0.39D-08  0.31D-07  5  5     5.19
   6      1.15612525    -0.38438024   -80.78315629     0.00000101    -0.00000142  0.28D-09  0.20D-08  6  6     6.11
   7      1.15612564    -0.38438046   -80.78315651    -0.00000022    -0.00000002  0.24D-10  0.13D-09  6  1     7.01
   8      1.15612571    -0.38438048   -80.78315653    -0.00000002    -0.00000007  0.24D-11  0.96D-11  6  2     7.92
   9      1.15612565    -0.38438048   -80.78315654    -0.00000000     0.00000003  0.45D-12  0.75D-12  6  3     8.83
  10      1.15612561    -0.38438048   -80.78315654    -0.00000000     0.00000002  0.36D-13  0.66D-13  6  4     9.73
  11      1.15612558    -0.38438049   -80.78315654    -0.00000000     0.00000002  0.33D-14  0.72D-14  6  5    10.65
  12      1.15612557    -0.38438049   -80.78315654    -0.00000000     0.00000001  0.28D-15  0.86D-15  6  6    11.56
  13      1.15612557    -0.38438049   -80.78315654    -0.00000000     0.00000000  0.23D-16  0.10D-15  6  1    12.47
  14      1.15612557    -0.38438049   -80.78315654    -0.00000000     0.00000000  0.26D-17  0.12D-16  6  3    13.39
  15      1.15612557    -0.38438049   -80.78315654    -0.00000000     0.00000000  0.20D-18  0.61D-18  6  2    14.31
  16      1.15612556    -0.38438049   -80.78315654    -0.00000000     0.00000000  0.27D-19  0.47D-19  6  4    15.22
  17      1.15612556    -0.38438049   -80.78315654    -0.00000000     0.00000000  0.33D-20  0.59D-20  6  5    16.13
  18      1.15612556    -0.38438049   -80.78315654    -0.00000000     0.00000000  0.38D-21  0.50D-21  6  6    17.04

 Norm of t1 vector:      0.03916604      S-energy:     0.00000000      T1 diagnostic:  0.00692364
                                                                       D1 diagnostic:  0.01253851


 Total CPU time for triples:     10.63 sec


 RESULTS
 =======

  Reference energy                    -80.398776050890
  CCSD singlet pair energy             -0.290158075683
  CCSD triplet pair energy             -0.094222411127
  CCSD correlation energy              -0.384380486810

  Triples (T) contribution             -0.009219705769
  Total correlation energy             -0.393600192579

  CCSD total energy                   -80.783156537700
  CCSD[T] energy                      -80.792597181114
  CCSD-T energy                       -80.792259011422
 !CCSD(T) total energy                -80.792376243469

 Timing summary (sec):

 STEP                 CPU(USER)    SYS     CPU(TOT)    WALL
 Transformation          0.74      0.08      0.82      0.81
 CCSD iterations        16.30      0.72     17.02     17.07
 Triples                10.63      0.20     10.83     10.84

 Program statistics:

 Available memory in ccsd:               999999644
 Min. memory needed in ccsd:               1156281
 Max. memory used in ccsd:                 1468601
 Max. memory used in cckext:               1135046 (18 integral passes)



 **********************************************************************************************************************************
 DATASETS  * FILE   NREC   LENGTH (MB)   RECORD NAMES
              1      20      236.27       500      610      700      900      950      970     1000      129      960     1100   
                                          VAR    BASINP    GEOM    SYMINP    ZMAT    AOBASIS   BASIS     P2S    ABASIS      S 
                                         1400     1410     1200     1210     1080     1600     1650     1300     1700     1380   
                                           T        V       H0       H01     AOSYM     SMH    MOLCAS    ERIS     OPER     JKOP   

              2       3        0.70       700     1000     2100   
                                         GEOM     BASIS     RHF  

 PROGRAMS   *        TOTAL   CCSD(T)       RHF       INT
 CPU TIMES  *        32.37     27.68      3.05      1.60
 REAL TIME  *        34.34 SEC
 DISK USED  *       699.81 MB      
 GA USED    *         0.00 MB       (max)       0.00 MB       (current)
 **********************************************************************************************************************************

        CCSD(T)         RHF-SCF 
    -80.79237624    -80.39877605
 **********************************************************************************************************************************
 Variable memory released
