
 Primary working directories    : /tmp/984684.83.gen4.q
 Secondary working directories  : /tmp/984684.83.gen4.q
 Wavefunction directory         : /home/vulcan/mel64643/wfu/
 Main file repository           : /tmp/984684.83.gen4.q/

 ARCHNAME  : Linux/x86_64
 FC        : /opt/intel/compilers_and_libraries_2016.1.150/linux/bin/intel64/ifort
 FCVERSION : 16.0.1
 BLASLIB   : -mkl
 id        : ccgc

 Nodes     nprocs
 n027         1
 ga_uses_ma=false, calling ma_init with nominal heap.
 GA-space will be limited to   8.0 MW (determined by -G option)

 Using customized tuning parameters: mindgm=10; mindgv=16; mindgc=4; mindgr=1; noblas=0; mincuda=1000; minvec=7
 default implementation of scratch files=df  

 ***,Optimization of nh3_h20
 memory,1000,m
 gthresh,energy=1.0d-12,orbital=1.0d-10,oneint=1.0d-16,twoint=1.0d-16,optgrad=1.0d-6,compress=1.0d-13
 geomtyp=xyz
 
 
 
 bohr
 geometry = {
  O   -3.2233456870    0.0731824153    0.0048311208
  H   -1.3988777230   -0.1596621807    0.0006932346
  H   -3.9039255693   -1.6098003331    0.0012697848
  N    2.3291048136   -0.0236225975   -0.0059971040
  H    2.7013556553    1.8527902061   -0.0012920538
  H    3.2173984305   -0.7521526303   -1.5344633183
  H    3.1931219519   -0.7550330448    1.5349583359
 }
 
 basis=cc-pvdz
 {rhf;maxit,200}
 {mp2}

 Variables initialized (661), CPU time= 0.00 sec
 Commands  initialized (458), CPU time= 0.01 sec, 486 directives.
 Default parameters read. Elapsed time= 0.06 sec

 Checking input...
 Passed
1


                                         ***  PROGRAM SYSTEM MOLPRO  ***
                         Copyright, University College Cardiff Consultants Limited, 2008

                                    Version 2010.1 linked May 16 2016 07:17:05


 **********************************************************************************************************************************
 LABEL *   Optimization of nh3_h20                                                       
 Linux-4.4.3/n027(x86_64) 64 bit mpp version                                             DATE: 22-Jan-24          TIME: 10:55:00  
 **********************************************************************************************************************************

 SHA1:             9e8077add272b0f3cad6f7df79ec5211205f459d
 **********************************************************************************************************************************

 THRESHOLDS:

 ZERO    =  1.00D-12  ONEINT  =  1.00D-16  TWOINT  =  1.00D-16  PREFAC  =  1.00D-14  LOCALI  =  1.00D-09  EORDER  =  1.00D-04
 ENERGY  =  1.00D-12  ETEST   =  0.00D+00  EDENS   =  0.00D+00  THRDEDEF=  1.00D-06  GRADIENT=  1.00D-02  STEP    =  1.00D-03
 ORBITAL =  1.00D-10  CIVEC   =  1.00D-05  COEFF   =  1.00D-04  PRINTCI =  5.00D-02  PUNCHCI =  9.90D+01  OPTGRAD =  1.00D-06
 OPTENERG=  1.00D-06  OPTSTEP =  3.00D-04  THRGRAD =  1.00D-10  COMPRESS=  1.00D-13  VARMIN  =  1.00D-07  VARMAX  =  1.00D-03
 THRDOUB =  0.00D+00  THRDIV  =  1.00D-05  THRRED  =  1.00D-07  THRPSP  =  1.00D+00  THRDC   =  1.00D-10  THRCS   =  1.00D-10
 THRNRM  =  1.00D-08  THREQ   =  0.00D+00  THRDE   =  1.00D+00  THRREF  =  1.00D-05  SPARFAC =  1.00D+00  THRDLP  =  1.00D-07
 THRDIA  =  1.00D-10  THRDLS  =  1.00D-07  THRGPS  =  0.00D+00  THRKEX  =  0.00D+00  THRDIS  =  2.00D-01  THRVAR  =  1.00D-10
 THRLOC  =  1.00D-06  THRGAP  =  1.00D-06  THRLOCT = -1.00D+00  THRGAPT = -1.00D+00  THRORB  =  1.00D-06  THRMLTP =  0.00D+00
 THRCPQCI=  1.00D-10  KEXTA   =  0.00D+00  THRCOARS=  0.00D+00  SYMTOL  =  1.00D-06  GRADTOL =  1.00D-06  THROVL  =  1.00D-08
 THRORTH =  1.00D-08  GRID    =  1.00D-06  GRIDMAX =  1.00D-03  DTMAX   =  0.00D+00

 SETTING GEOMTYP        =    XYZ
 ZUNIT=BOHR
 

 Variable memory set to 1000000000 words,  buffer space   230000 words

 SETTING BASIS          =    CC-PVDZ


 Recomputing integrals since basis changed


 Using spherical harmonics

 Library entry O      S cc-pVDZ              selected for orbital group  1
 Library entry O      P cc-pVDZ              selected for orbital group  1
 Library entry O      D cc-pVDZ              selected for orbital group  1
 Library entry H      S cc-pVDZ              selected for orbital group  2
 Library entry H      P cc-pVDZ              selected for orbital group  2
 Library entry N      S cc-pVDZ              selected for orbital group  3
 Library entry N      P cc-pVDZ              selected for orbital group  3
 Library entry N      D cc-pVDZ              selected for orbital group  3

1PROGRAM * SEWARD (Integral evaluation for generally contracted gaussian basis sets)     Author: Roland Lindh, 1990

 Geometry written to block  1 of record 700


 Point group  C1  



 ATOMIC COORDINATES

 NR  ATOM    CHARGE       X              Y              Z

   1  O       8.00   -3.223345687    0.073182415    0.004831121
   2  H       1.00   -1.398877723   -0.159662181    0.000693235
   3  H       1.00   -3.903925569   -1.609800333    0.001269785
   4  N       7.00    2.329104814   -0.023622597   -0.005997104
   5  H       1.00    2.701355655    1.852790206   -0.001292054
   6  H       1.00    3.217398430   -0.752152630   -1.534463318
   7  H       1.00    3.193121952   -0.755033045    1.534958336

 Bond lengths in Bohr (Angstrom)

 1-2  1.839270801  1-3  1.815387725  4-5  1.912986627  4-6  1.912074927  4-7  1.912074927
     ( 0.973300189)     ( 0.960661809)     ( 1.012308924)     ( 1.011826473)     ( 1.011826473)

 Bond angles

  2-1-3  104.74458363   5-4-6  106.57651529   5-4-7  106.57651535   6-4-7  106.77109015

 NUCLEAR CHARGE:                   20
 NUMBER OF PRIMITIVE AOS:          89
 NUMBER OF SYMMETRY AOS:           87
 NUMBER OF CONTRACTIONS:           53   (  53A   )
 NUMBER OF CORE ORBITALS:           2   (   2A   )
 NUMBER OF VALENCE ORBITALS:       13   (  13A   )


 NUCLEAR REPULSION ENERGY   38.84031351


 Eigenvalues of metric

         1 0.154E-01 0.164E-01 0.389E-01 0.403E-01 0.420E-01 0.450E-01 0.463E-01 0.664E-01


 Contracted 2-electron integrals neglected if value below      1.0D-16
 AO integral compression algorithm  1   Integral accuracy      1.0D-16

     8.651 MB (compressed) written to integral file ( 91.2%)

     Node minimum: 8.651 MB, node maximum: 8.651 MB


 NUMBER OF SORTED TWO-ELECTRON INTEGRALS:    1024596.     BUFFER LENGTH:  32768
 NUMBER OF SEGMENTS:   1  SEGMENT LENGTH:    1024596      RECORD LENGTH: 524288

 Memory used in sort:       1.58 MW

 SORT1 READ     1216809. AND WROTE     1013203. INTEGRALS IN      3 RECORDS. CPU TIME:     0.01 SEC, REAL TIME:     0.01 SEC
 SORT2 READ     1013203. AND WROTE     1024596. INTEGRALS IN     33 RECORDS. CPU TIME:     0.03 SEC, REAL TIME:     0.03 SEC

 FILE SIZES:   FILE 1:    10.0 MBYTE,  FILE 4:    12.6 MBYTE,   TOTAL:     22.6 MBYTE

 OPERATOR DM      FOR CENTER  0  COORDINATES:    0.000000    0.000000    0.000000


 **********************************************************************************************************************************
 DATASETS  * FILE   NREC   LENGTH (MB)   RECORD NAMES
              1      19       10.04       500      610      700      900      950      970     1000      129      960     1100   
                                          VAR    BASINP    GEOM    SYMINP    ZMAT    AOBASIS   BASIS     P2S    ABASIS      S 
                                         1400     1410     1200     1210     1080     1600     1650     1300     1700   
                                           T        V       H0       H01     AOSYM     SMH    MOLCAS    ERIS     OPER   

 PROGRAMS   *        TOTAL       INT
 CPU TIMES  *         0.39      0.34
 REAL TIME  *         0.58 SEC
 DISK USED  *        31.93 MB      
 GA USED    *         0.00 MB       (max)       0.00 MB       (current)
 **********************************************************************************************************************************

1PROGRAM * RHF-SCF (CLOSED SHELL)       Authors: W. Meyer, H.-J. Werner


 NUMBER OF ELECTRONS:      10+   10-    SPACE SYMMETRY=1    SPIN SYMMETRY: Singlet 
 CONVERGENCE THRESHOLDS:    1.00E-10 (Density)    1.00E-13 (Energy)
 MAX. NUMBER OF ITERATIONS:      200
 INTERPOLATION TYPE:            DIIS
 INTERPOLATION STEPS:              2 (START)      1 (STEP)
 LEVEL SHIFTS:                  0.00 (CLOSED)  0.00 (OPEN) 



 Orbital guess generated from atomic densities. Full valence occupancy:   15

 Molecular orbital dump at record        2100.2

 ITERATION    DDIFF          GRAD             ENERGY        2-EL.EN.            DIPOLE MOMENTS         DIIS
    1      0.000D+00      0.000D+00      -132.17173018    177.701581    1.77144   -0.81126    0.00250    0
    2      0.000D+00      0.137D-01      -132.21985241    172.770870    1.38258   -0.48243    0.00165    1
    3      0.257D-01      0.674D-02      -132.23132085    174.714915    1.42041   -0.55503    0.00173    2
    4      0.827D-02      0.950D-03      -132.23178775    174.565662    1.39904   -0.54332    0.00175    3
    5      0.198D-02      0.230D-03      -132.23181619    174.562840    1.39192   -0.54193    0.00171    4
    6      0.479D-03      0.677D-04      -132.23181817    174.570649    1.39088   -0.54122    0.00171    5
    7      0.125D-03      0.209D-04      -132.23181842    174.568382    1.39019   -0.54119    0.00171    6
    8      0.413D-04      0.309D-05      -132.23181843    174.568356    1.39005   -0.54115    0.00171    7
    9      0.879D-05      0.492D-06      -132.23181843    174.568344    1.39003   -0.54115    0.00171    6
   10      0.111D-05      0.124D-06      -132.23181843    174.568340    1.39003   -0.54115    0.00171    6
   11      0.292D-06      0.351D-07      -132.23181843    174.568345    1.39003   -0.54115    0.00171    6
   12      0.930D-07      0.987D-08      -132.23181843    174.568343    1.39003   -0.54115    0.00171    6
   13      0.210D-07      0.374D-08      -132.23181843    174.568344    1.39003   -0.54115    0.00171    6
   14      0.710D-08      0.802D-09      -132.23181843    174.568344    1.39003   -0.54115    0.00171    7
   15      0.175D-08      0.265D-09      -132.23181843    174.568344    1.39003   -0.54115    0.00171    7
   16      0.518D-09      0.875D-10      -132.23181843    174.568344    1.39003   -0.54115    0.00171    7
   17      0.191D-09      0.179D-10      -132.23181843    174.568344    1.39003   -0.54115    0.00171    7
   18      0.520D-10      0.282D-11      -132.23181843    174.568344    1.39003   -0.54115    0.00171    7
   19      0.601D-11      0.631D-12      -132.23181843    174.568344    1.39003   -0.54115    0.00171    6
   20      0.126D-11      0.176D-12      -132.23181843    174.568344    1.39003   -0.54115    0.00171    7
   21      0.351D-12      0.649D-13      -132.23181843    174.568344    1.39003   -0.54115    0.00171    0

 Final occupancy:  10

 !RHF STATE 1.1 Energy               -132.231818431342
 Nuclear energy                        38.84031351
 One-electron energy                 -258.35630376
 Two-electron energy                   87.28417181
 Virial quotient                       -1.00108055
 !RHF STATE 1.1 Dipole moment           1.39003357    -0.54115011     0.00170742
 Dipole moment /Debye                   3.53288153    -1.37537631     0.00433954

 Orbital energies:

         1.1          2.1          3.1          4.1          5.1          6.1          7.1          8.1          9.1         10.1
    -20.502808   -15.567263    -1.288238    -1.162789    -0.658399    -0.646275    -0.643550    -0.529089    -0.449192    -0.446377

        11.1         12.1
      0.166671     0.237491


 **********************************************************************************************************************************
 DATASETS  * FILE   NREC   LENGTH (MB)   RECORD NAMES
              1      19       10.04       500      610      700      900      950      970     1000      129      960     1100   
                                          VAR    BASINP    GEOM    SYMINP    ZMAT    AOBASIS   BASIS     P2S    ABASIS      S 
                                         1400     1410     1200     1210     1080     1600     1650     1300     1700   
                                           T        V       H0       H01     AOSYM     SMH    MOLCAS    ERIS     OPER   

              2       3        0.42       700     1000     2100   
                                         GEOM     BASIS     RHF  

 PROGRAMS   *        TOTAL       RHF       INT
 CPU TIMES  *         0.57      0.17      0.34
 REAL TIME  *         0.81 SEC
 DISK USED  *        31.93 MB      
 GA USED    *         0.00 MB       (max)       0.00 MB       (current)
 **********************************************************************************************************************************


1PROGRAM * MP2 (Closed-shell)     Authors: C. Hampel, H.-J. Werner, 1991, M. Deegan, P.J. Knowles, 1992


 Convergence thresholds:  THRVAR = 1.00D-08  THRDEN = 1.00D-12

 Number of core orbitals:           2 (   2 )
 Number of closed-shell orbitals:   8 (   8 )
 Number of external orbitals:      43 (  43 )

 Molecular orbitals read from record     2100.2  Type=RHF/CANONICAL (state 1.1)

 Number of N-1 electron functions:               8
 Number of N-2 electron functions:              36
 Number of singly external CSFs:               344
 Number of doubly external CSFs:             59340
 Total number of CSFs:                       59685

 Length of J-op  integral file:               0.00 MB
 Length of K-op  integral file:               0.22 MB

 Integral transformation finished. Total CPU:   0.02 sec, npass=  1  Memory used:   0.28 MW

 Memory needed for MP2:                      0.01 MW

 SCS-MP2 correlation energy:           -0.387519708887   (PS=  1.200000  PT=  0.333333)
 SCS-MP2 total energy:               -132.619338140230


  Reference energy                   -132.231818431342
  MP2 singlet pair energy              -0.249106313231
  MP2 triplet pair energy              -0.142380213765
  MP2 correlation energy               -0.391486526997

 !MP2 total energy                   -132.623304958339


 **********************************************************************************************************************************
 DATASETS  * FILE   NREC   LENGTH (MB)   RECORD NAMES
              1      20       11.31       500      610      700      900      950      970     1000      129      960     1100   
                                          VAR    BASINP    GEOM    SYMINP    ZMAT    AOBASIS   BASIS     P2S    ABASIS      S 
                                         1400     1410     1200     1210     1080     1600     1650     1300     1700     1380   
                                           T        V       H0       H01     AOSYM     SMH    MOLCAS    ERIS     OPER     JKOP   

              2       3        0.42       700     1000     2100   
                                         GEOM     BASIS     RHF  

 PROGRAMS   *        TOTAL       MP2       RHF       INT
 CPU TIMES  *         0.61      0.05      0.17      0.34
 REAL TIME  *         0.88 SEC
 DISK USED  *        31.93 MB      
 GA USED    *         0.00 MB       (max)       0.00 MB       (current)
 **********************************************************************************************************************************

        MP2             RHF-SCF 
   -132.62330496   -132.23181843
 **********************************************************************************************************************************
 Variable memory released
