
 Primary working directories    : /tmp/878919.49.gen5.q
 Secondary working directories  : /tmp/878919.49.gen5.q
 Wavefunction directory         : /home/vulcan/lo21740/wfu/
 Main file repository           : /tmp/878919.49.gen5.q/

 ARCHNAME  : Linux/x86_64
 FC        : /opt/intel/compilers_and_libraries_2016.1.150/linux/bin/intel64/ifort
 FCVERSION : 16.0.1
 BLASLIB   : -mkl
 id        : ccgc

 Nodes     nprocs
 n071         1
 ga_uses_ma=false, calling ma_init with nominal heap.
 GA-space will be limited to   8.0 MW (determined by -G option)

 Using customized tuning parameters: mindgm=10; mindgv=16; mindgc=4; mindgr=1; noblas=0; mincuda=1000; minvec=7
 default implementation of scratch files=df  

 ***,Optimization of formamide
 memory,1000,m
 gthresh,energy=1.0d-12,orbital=1.0d-10,oneint=1.0d-16,twoint=1.0d-16,optgrad=1.0d-6,compress=1.0d-13
 geomtyp=xyz
 
 bohr
 geometry = {
  C   -3.8248948258    0.0842733381   -0.0000292445
  O   -2.7260940619    2.1329869806    0.0001364155
  N   -2.6823885178   -2.1778095508    0.0002402016
  H   -3.7374968907   -3.7554009180    0.0000066427
  H   -0.7539409001   -2.2992974232   -0.0003418252
  H   -5.9008553717   -0.0183633921   -0.0000121901
  C    3.8248948258   -0.0842733381   -0.0000292445
  O    2.7260940619   -2.1329869806    0.0001364155
  N    2.6823885178    2.1778095508    0.0002402016
  H    3.7374968907    3.7554009180    0.0000066427
  H    0.7539409001    2.2992974232   -0.0003418252
  H    5.9008553717    0.0183633921   -0.0000121901
 }
 
 basis=VDZ
 {rhf;maxit,200}
 {ccsd(t);maxit,200}

 Variables initialized (661), CPU time= 0.00 sec
 Commands  initialized (458), CPU time= 0.00 sec, 486 directives.
 Default parameters read. Elapsed time= 0.07 sec

 Checking input...
 Passed
1


                                         ***  PROGRAM SYSTEM MOLPRO  ***
                         Copyright, University College Cardiff Consultants Limited, 2008

                                    Version 2010.1 linked May 16 2016 07:17:05


 **********************************************************************************************************************************
 LABEL *   Optimization of formamide                                                     
 Linux-4.4.3/n071(x86_64) 64 bit mpp version                                             DATE: 22-May-23          TIME: 18:12:29  
 **********************************************************************************************************************************

 SHA1:             9e8077add272b0f3cad6f7df79ec5211205f459d
 **********************************************************************************************************************************

 THRESHOLDS:

 ZERO    =  1.00D-12  ONEINT  =  1.00D-16  TWOINT  =  1.00D-16  PREFAC  =  1.00D-14  LOCALI  =  1.00D-09  EORDER  =  1.00D-04
 ENERGY  =  1.00D-12  ETEST   =  0.00D+00  EDENS   =  0.00D+00  THRDEDEF=  1.00D-06  GRADIENT=  1.00D-02  STEP    =  1.00D-03
 ORBITAL =  1.00D-10  CIVEC   =  1.00D-05  COEFF   =  1.00D-04  PRINTCI =  5.00D-02  PUNCHCI =  9.90D+01  OPTGRAD =  1.00D-06
 OPTENERG=  1.00D-06  OPTSTEP =  3.00D-04  THRGRAD =  1.00D-10  COMPRESS=  1.00D-13  VARMIN  =  1.00D-07  VARMAX  =  1.00D-03
 THRDOUB =  0.00D+00  THRDIV  =  1.00D-05  THRRED  =  1.00D-07  THRPSP  =  1.00D+00  THRDC   =  1.00D-10  THRCS   =  1.00D-10
 THRNRM  =  1.00D-08  THREQ   =  0.00D+00  THRDE   =  1.00D+00  THRREF  =  1.00D-05  SPARFAC =  1.00D+00  THRDLP  =  1.00D-07
 THRDIA  =  1.00D-10  THRDLS  =  1.00D-07  THRGPS  =  0.00D+00  THRKEX  =  0.00D+00  THRDIS  =  2.00D-01  THRVAR  =  1.00D-10
 THRLOC  =  1.00D-06  THRGAP  =  1.00D-06  THRLOCT = -1.00D+00  THRGAPT = -1.00D+00  THRORB  =  1.00D-06  THRMLTP =  0.00D+00
 THRCPQCI=  1.00D-10  KEXTA   =  0.00D+00  THRCOARS=  0.00D+00  SYMTOL  =  1.00D-06  GRADTOL =  1.00D-06  THROVL  =  1.00D-08
 THRORTH =  1.00D-08  GRID    =  1.00D-06  GRIDMAX =  1.00D-03  DTMAX   =  0.00D+00

 SETTING GEOMTYP        =    XYZ
 ZUNIT=BOHR
 

 Variable memory set to 1000000000 words,  buffer space   230000 words

 SETTING BASIS          =    VDZ


 Recomputing integrals since basis changed


 Using spherical harmonics

 Library entry C      S cc-pVDZ              selected for orbital group  1
 Library entry C      P cc-pVDZ              selected for orbital group  1
 Library entry C      D cc-pVDZ              selected for orbital group  1
 Library entry O      S cc-pVDZ              selected for orbital group  2
 Library entry O      P cc-pVDZ              selected for orbital group  2
 Library entry O      D cc-pVDZ              selected for orbital group  2
 Library entry N      S cc-pVDZ              selected for orbital group  3
 Library entry N      P cc-pVDZ              selected for orbital group  3
 Library entry N      D cc-pVDZ              selected for orbital group  3
 Library entry H      S cc-pVDZ              selected for orbital group  4
 Library entry H      P cc-pVDZ              selected for orbital group  4

1PROGRAM * SEWARD (Integral evaluation for generally contracted gaussian basis sets)     Author: Roland Lindh, 1990

 Geometry written to block  1 of record 700


 Point group  C2  



 ATOMIC COORDINATES

 NR  ATOM    CHARGE       X              Y              Z

   1  C       6.00   -3.824894826    0.084273338   -0.000029245
   2  C       6.00    3.824894826   -0.084273338   -0.000029245
   3  O       8.00   -2.726094062    2.132986981    0.000136416
   4  O       8.00    2.726094062   -2.132986981    0.000136416
   5  N       7.00   -2.682388518   -2.177809551    0.000240202
   6  N       7.00    2.682388518    2.177809551    0.000240202
   7  H       1.00   -3.737496891   -3.755400918    0.000006643
   8  H       1.00    3.737496891    3.755400918    0.000006643
   9  H       1.00   -0.753940900   -2.299297423   -0.000341825
  10  H       1.00    0.753940900    2.299297423   -0.000341825
  11  H       1.00   -5.900855372   -0.018363392   -0.000012190
  12  H       1.00    5.900855372    0.018363392   -0.000012190

 Bond lengths in Bohr (Angstrom)

  1- 3  2.324777567   1- 5  2.534233559   1-11  2.078496208   2- 4  2.324777567   2- 6  2.534233559
       ( 1.230219304)       ( 1.341058642)       ( 1.099892822)       ( 1.230219304)       ( 1.341058642)

  2-12  2.078496208   5- 7  1.897906282   5- 9  1.932270648   6- 8  1.897906282   6-10  1.932270648
       ( 1.099892822)       ( 1.004328749)       ( 1.022513588)       ( 1.004328749)       ( 1.022513588)

 Bond angles

  1- 5- 7  119.42811731   1- 5- 9  120.40163061   2- 6- 8  119.42811731   2- 6-10  120.40163061

  3- 1- 5  124.99680443   3- 1-11  121.03673484   4- 2- 6  124.99680443   4- 2-12  121.03673484

  5- 1-11  113.96645954   6- 2-12  113.96645954   7- 5- 9  120.17024273   8- 6-10  120.17024273

 NUCLEAR CHARGE:                   48
 NUMBER OF PRIMITIVE AOS:         204
 NUMBER OF SYMMETRY AOS:          198
 NUMBER OF CONTRACTIONS:          114   (  57A   +  57B   )
 NUMBER OF CORE ORBITALS:           6   (   3A   +   3B   )
 NUMBER OF VALENCE ORBITALS:       30   (  15A   +  15B   )


 NUCLEAR REPULSION ENERGY  230.73085829


 Eigenvalues of metric

         1 0.553E-02 0.107E-01 0.153E-01 0.238E-01 0.304E-01 0.404E-01 0.417E-01 0.486E-01
         2 0.568E-02 0.113E-01 0.153E-01 0.241E-01 0.279E-01 0.398E-01 0.410E-01 0.432E-01


 Contracted 2-electron integrals neglected if value below      1.0D-16
 AO integral compression algorithm  1   Integral accuracy      1.0D-16

     90.178 MB (compressed) written to integral file ( 84.8%)

     Node minimum: 90.178 MB, node maximum: 90.178 MB


 NUMBER OF SORTED TWO-ELECTRON INTEGRALS:   10931289.     BUFFER LENGTH:  32768
 NUMBER OF SEGMENTS:   1  SEGMENT LENGTH:   10931289      RECORD LENGTH: 524288

 Memory used in sort:      11.49 MW

 SORT1 READ    13250584. AND WROTE    10866727. INTEGRALS IN     32 RECORDS. CPU TIME:     0.14 SEC, REAL TIME:     0.20 SEC
 SORT2 READ    10866727. AND WROTE    10931289. INTEGRALS IN    344 RECORDS. CPU TIME:     0.15 SEC, REAL TIME:     0.21 SEC

 FILE SIZES:   FILE 1:    79.0 MBYTE,  FILE 4:   134.3 MBYTE,   TOTAL:    213.2 MBYTE

 OPERATOR DM      FOR CENTER  0  COORDINATES:    0.000000    0.000000    0.000000


 **********************************************************************************************************************************
 DATASETS  * FILE   NREC   LENGTH (MB)   RECORD NAMES
              1      19       79.07       500      610      700      900      950      970     1000      129      960     1100   
                                          VAR    BASINP    GEOM    SYMINP    ZMAT    AOBASIS   BASIS     P2S    ABASIS      S 
                                         1400     1410     1200     1210     1080     1600     1650     1300     1700   
                                           T        V       H0       H01     AOSYM     SMH    MOLCAS    ERIS     OPER   

 PROGRAMS   *        TOTAL       INT
 CPU TIMES  *         2.07      1.97
 REAL TIME  *         2.63 SEC
 DISK USED  *       304.28 MB      
 GA USED    *         0.00 MB       (max)       0.00 MB       (current)
 **********************************************************************************************************************************

1PROGRAM * RHF-SCF (CLOSED SHELL)       Authors: W. Meyer, H.-J. Werner


 NUMBER OF ELECTRONS:      24+   24-
 CONVERGENCE THRESHOLDS:    1.00E-10 (Density)    1.00E-13 (Energy)
 MAX. NUMBER OF ITERATIONS:      200
 INTERPOLATION TYPE:            DIIS
 INTERPOLATION STEPS:              2 (START)      1 (STEP)
 LEVEL SHIFTS:                  0.00 (CLOSED)  0.00 (OPEN) 



 Orbital guess generated from atomic densities. Full valence occupancy:   18  18

 Molecular orbital dump at record        2100.2

 Initial alpha occupancy:  12  12
 Initial beta  occupancy:  12  12
 Wave function symmetry:    1

 ITERATION    DDIFF          GRAD             ENERGY        2-EL.EN.            DIPOLE MOMENTS         DIIS
    1      0.000D+00      0.000D+00      -337.77977204    705.883228    0.00000    0.00000   -0.00093    0
    2      0.000D+00      0.134D-01      -337.85845679    700.651355    0.00000    0.00000   -0.00054    1
    3      0.267D-01      0.951D-02      -337.91383697    703.136850    0.00000    0.00000   -0.00066    2
    4      0.102D-01      0.125D-02      -337.91593002    703.122973    0.00000    0.00000   -0.00069    3
    5      0.226D-02      0.441D-03      -337.91619474    703.050759    0.00000    0.00000   -0.00068    4
    6      0.810D-03      0.146D-03      -337.91626168    703.069729    0.00000    0.00000   -0.00068    5
    7      0.375D-03      0.656D-04      -337.91627290    703.065423    0.00000    0.00000   -0.00068    6
    8      0.190D-03      0.172D-04      -337.91627359    703.065777    0.00000    0.00000   -0.00068    7
    9      0.487D-04      0.437D-05      -337.91627364    703.065506    0.00000    0.00000   -0.00068    7
   10      0.136D-04      0.945D-06      -337.91627364    703.065666    0.00000    0.00000   -0.00068    7
   11      0.267D-05      0.207D-06      -337.91627364    703.065601    0.00000    0.00000   -0.00068    7
   12      0.560D-06      0.783D-07      -337.91627364    703.065611    0.00000    0.00000   -0.00068    7
   13      0.168D-06      0.248D-07      -337.91627364    703.065615    0.00000    0.00000   -0.00068    7
   14      0.641D-07      0.580D-08      -337.91627364    703.065614    0.00000    0.00000   -0.00068    7
   15      0.136D-07      0.132D-08      -337.91627364    703.065614    0.00000    0.00000   -0.00068    7
   16      0.306D-08      0.309D-09      -337.91627364    703.065614    0.00000    0.00000   -0.00068    7
   17      0.644D-09      0.128D-09      -337.91627364    703.065614    0.00000    0.00000   -0.00068    7
   18      0.320D-09      0.276D-10      -337.91627364    703.065614    0.00000    0.00000   -0.00068    7
   19      0.696D-10      0.884D-11      -337.91627364    703.065614    0.00000    0.00000   -0.00068    7
   20      0.188D-10      0.133D-11      -337.91627364    703.065614    0.00000    0.00000   -0.00068    0

 Final occupancy:  12  12

 !RHF STATE 1.1 Energy               -337.916273639905
 Nuclear energy                       230.73085829
 One-electron energy                 -920.17993891
 Two-electron energy                  351.53280699
 Virial quotient                       -1.00136090
 !RHF STATE 1.1 Dipole moment           0.00000000     0.00000000    -0.00068261
 Dipole moment /Debye                   0.00000000     0.00000000    -0.00173491

 Orbital energies:

         1.1          2.1          3.1          4.1          5.1          6.1          7.1          8.1          9.1         10.1
    -20.524790   -15.576970   -11.358596    -1.378609    -1.202785    -0.852030    -0.740996    -0.634301    -0.610149    -0.565491

        11.1         12.1         13.1         14.1
     -0.443238    -0.400926     0.186359     0.195115

         1.2          2.2          3.2          4.2          5.2          6.2          7.2          8.2          9.2         10.2
    -20.524790   -15.576969   -11.358596    -1.373806    -1.209011    -0.826857    -0.732154    -0.695751    -0.583452    -0.558006

        11.2         12.2         13.2         14.2
     -0.418364    -0.410525     0.188178     0.202053


 **********************************************************************************************************************************
 DATASETS  * FILE   NREC   LENGTH (MB)   RECORD NAMES
              1      19       79.07       500      610      700      900      950      970     1000      129      960     1100   
                                          VAR    BASINP    GEOM    SYMINP    ZMAT    AOBASIS   BASIS     P2S    ABASIS      S 
                                         1400     1410     1200     1210     1080     1600     1650     1300     1700   
                                           T        V       H0       H01     AOSYM     SMH    MOLCAS    ERIS     OPER   

              2       3        0.59       700     1000     2100   
                                         GEOM     BASIS     RHF  

 PROGRAMS   *        TOTAL       RHF       INT
 CPU TIMES  *         3.34      1.27      1.97
 REAL TIME  *         4.12 SEC
 DISK USED  *       304.28 MB      
 GA USED    *         0.00 MB       (max)       0.00 MB       (current)
 **********************************************************************************************************************************


1PROGRAM * CCSD (Closed-shell coupled cluster)     Authors: C. Hampel, H.-J. Werner, 1991, M. Deegan, P.J. Knowles, 1992


 Convergence thresholds:  THRVAR = 1.00D-08  THRDEN = 1.00D-12

 CCSD(T)     terms to be evaluated (factor= 1.000)


 Number of core orbitals:           6 (   3   3 )
 Number of closed-shell orbitals:  18 (   9   9 )
 Number of external orbitals:      90 (  45  45 )

 Molecular orbitals read from record     2100.2  Type=RHF/CANONICAL (state 1.1)

 Number of N-1 electron functions:              18
 Number of N-2 electron functions:             171
 Number of singly external CSFs:               810
 Number of doubly external CSFs:            656910
 Total number of CSFs:                      657721

 Length of J-op  integral file:               0.00 MB
 Length of K-op  integral file:               0.48 MB
 Length of 3-ext integral record:             0.00 MB

 Memory could be reduced to 9.36 Mwords without degradation in triples

 Integral transformation finished. Total CPU:   0.59 sec, npass=  1  Memory used:   6.56 MW

 Reference energy:                   -337.91627364

 MP2 singlet pair energy:              -0.58927550
 MP2 triplet pair energy:              -0.38296633
 MP2 correlation energy:               -0.97224183
 MP2 total energy:                   -338.88851547

 SCS-MP2 correlation energy:           -0.94542076   (PS=  1.200000  PT=  0.333333)
 SCS-MP2 total energy:               -338.86169440

 ITER.      SQ.NORM     CORR.ENERGY   TOTAL ENERGY   ENERGY CHANGE        DEN1      VAR(S)    VAR(P)  DIIS     TIME
   1      1.29726300    -1.00425008  -338.92052372    -0.03200825    -0.00244619  0.96D-02  0.55D-02  1  1     2.03
   2      1.32209091    -1.00689588  -338.92316952    -0.00264580    -0.02509556  0.22D-03  0.10D-02  2  2     3.39
   3      1.33467745    -1.00786456  -338.92413820    -0.00096868    -0.00558244  0.21D-03  0.47D-04  3  3     4.45
   4      1.34001196    -1.00763632  -338.92390996     0.00022824    -0.00168898  0.20D-04  0.80D-05  4  4     5.87
   5      1.34210866    -1.00757292  -338.92384656     0.00006341    -0.00043249  0.19D-05  0.10D-05  5  5     7.24
   6      1.34257330    -1.00754230  -338.92381594     0.00003061    -0.00004124  0.15D-06  0.13D-06  6  6     8.30
   7      1.34267766    -1.00753265  -338.92380629     0.00000965    -0.00000522  0.14D-07  0.15D-07  6  2     9.37
   8      1.34269544    -1.00753274  -338.92380638    -0.00000008     0.00000001  0.18D-08  0.17D-08  6  1    10.44
   9      1.34269691    -1.00753242  -338.92380606     0.00000032     0.00000148  0.27D-09  0.21D-09  6  4    11.67
  10      1.34269985    -1.00753238  -338.92380602     0.00000004    -0.00000040  0.73D-10  0.19D-10  6  3    12.73
  11      1.34269975    -1.00753245  -338.92380609    -0.00000007     0.00000016  0.14D-10  0.45D-11  6  5    13.78
  12      1.34269955    -1.00753247  -338.92380611    -0.00000002     0.00000008  0.27D-11  0.11D-11  6  6    14.85
  13      1.34269932    -1.00753250  -338.92380614    -0.00000003     0.00000009  0.38D-12  0.16D-12  6  2    16.00
  14      1.34269923    -1.00753250  -338.92380614    -0.00000001     0.00000003  0.62D-13  0.27D-13  6  1    17.06
  15      1.34269921    -1.00753250  -338.92380614    -0.00000000     0.00000000  0.11D-13  0.60D-14  6  4    18.13
  16      1.34269920    -1.00753250  -338.92380614    -0.00000000    -0.00000000  0.26D-14  0.11D-14  6  3    19.26
  17      1.34269920    -1.00753250  -338.92380614    -0.00000000    -0.00000000  0.74D-15  0.15D-15  6  5    20.32
  18      1.34269920    -1.00753250  -338.92380614    -0.00000000     0.00000000  0.62D-16  0.49D-16  6  6    21.39
  19      1.34269919    -1.00753250  -338.92380614    -0.00000000     0.00000000  0.16D-16  0.65D-17  6  2    22.45
  20      1.34269919    -1.00753250  -338.92380614    -0.00000000     0.00000000  0.22D-17  0.11D-17  6  1    23.52
  21      1.34269919    -1.00753250  -338.92380614    -0.00000000     0.00000000  0.28D-18  0.22D-18  6  4    24.67
  22      1.34269919    -1.00753250  -338.92380614     0.00000000     0.00000000  0.78D-19  0.37D-19  6  3    25.74
  23      1.34269919    -1.00753250  -338.92380614    -0.00000000     0.00000000  0.16D-19  0.51D-20  6  5    26.87
  24      1.34269919    -1.00753250  -338.92380614     0.00000000    -0.00000000  0.32D-20  0.14D-20  6  6    27.98
  25      1.34269919    -1.00753250  -338.92380614     0.00000000    -0.00000000  0.82D-21  0.28D-21  6  4    29.10

 Norm of t1 vector:      0.14866905      S-energy:     0.00000000      T1 diagnostic:  0.01752082
                                                                       D1 diagnostic:  0.06207143

 Singles amplitudes (print threshold =  0.500E-01):

         I         SYM. A    A   T(IA)

         7         1         2      0.05754046
        16         2         2      0.05848059


 Total CPU time for triples:     17.68 sec


 RESULTS
 =======

  Reference energy                   -337.916273639904
  CCSD singlet pair energy             -0.667476795433
  CCSD triplet pair energy             -0.340055708763
  CCSD correlation energy              -1.007532504195

  Triples (T) contribution             -0.032165337435
  Total correlation energy             -1.039697841630

  CCSD total energy                  -338.923806144099
  CCSD[T] energy                     -338.958952800111
  CCSD-T energy                      -338.954997826765
 !CCSD(T) total energy               -338.955971481534

 Timing summary (sec):

 STEP                 CPU(USER)    SYS     CPU(TOT)    WALL
 Transformation          0.62      0.07      0.69      0.70
 CCSD iterations        28.48      1.10     29.58     29.69
 Triples                17.68      0.42     18.10     18.11

 Program statistics:

 Available memory in ccsd:               999998604
 Min. memory needed in ccsd:               1741948
 Max. memory used in ccsd:                 2318344
 Max. memory used in cckext:               2485613 (25 integral passes)



 **********************************************************************************************************************************
 DATASETS  * FILE   NREC   LENGTH (MB)   RECORD NAMES
              1      20      119.09       500      610      700      900      950      970     1000      129      960     1100   
                                          VAR    BASINP    GEOM    SYMINP    ZMAT    AOBASIS   BASIS     P2S    ABASIS      S 
                                         1400     1410     1200     1210     1080     1600     1650     1300     1700     1380   
                                           T        V       H0       H01     AOSYM     SMH    MOLCAS    ERIS     OPER     JKOP   

              2       3        0.59       700     1000     2100   
                                         GEOM     BASIS     RHF  

 PROGRAMS   *        TOTAL   CCSD(T)       RHF       INT
 CPU TIMES  *        50.13     46.79      1.27      1.97
 REAL TIME  *        52.66 SEC
 DISK USED  *       323.11 MB      
 GA USED    *         0.00 MB       (max)       0.00 MB       (current)
 **********************************************************************************************************************************

        CCSD(T)         RHF-SCF 
   -338.95597148   -337.91627364
 **********************************************************************************************************************************
 Variable memory released
