
 Primary working directories    : /tmp/943417.87.gen6.q
 Secondary working directories  : /tmp/943417.87.gen6.q
 Wavefunction directory         : /home/vulcan/mel64643/wfu/
 Main file repository           : /tmp/943417.87.gen6.q/

 ARCHNAME  : Linux/x86_64
 FC        : /opt/intel/compilers_and_libraries_2016.1.150/linux/bin/intel64/ifort
 FCVERSION : 16.0.1
 BLASLIB   : -mkl
 id        : ccgc

 Nodes     nprocs
 n079         1
 ga_uses_ma=false, calling ma_init with nominal heap.
 GA-space will be limited to   8.0 MW (determined by -G option)

 Using customized tuning parameters: mindgm=10; mindgv=16; mindgc=4; mindgr=1; noblas=0; mincuda=1000; minvec=7
 default implementation of scratch files=df  

 ***,Optimization of nh3_nitrosmethane
 memory,1000,m
 gthresh,energy=1.0d-12,orbital=1.0d-10,oneint=1.0d-16,twoint=1.0d-16,optgrad=1.0d-6,compress=1.0d-13
 geomtyp=xyz
 
 bohr
 geometry = {
  N   -5.2193582340   -0.1836225004   -0.0015325891
  H   -6.2958072091    0.2325037944   -1.5391650586
  H   -3.7639302036    1.0573357994    0.0014554138
  H   -6.2979357481    0.2275960645    1.5359286101
  H   -0.9254119045   -2.3992729496    0.0074291716
  H    1.8768438608   -3.4317920233   -1.6684868834
  H    1.8861945590   -3.4361733425    1.6648773021
  C    1.1350899517   -2.4696804527    0.0015565434
  N    2.2659489974    0.0979686892    0.0017591521
  O    0.7024844205    1.7821939299   -0.0038216621
 }
 
 basis=cc-pvdz
 {rhf;maxit,200}
 {ccsd(t);maxit,200}

 Variables initialized (661), CPU time= 0.00 sec
 Commands  initialized (458), CPU time= 0.01 sec, 486 directives.
 Default parameters read. Elapsed time= 0.04 sec

 Checking input...
 Passed
1


                                         ***  PROGRAM SYSTEM MOLPRO  ***
                         Copyright, University College Cardiff Consultants Limited, 2008

                                    Version 2010.1 linked May 16 2016 07:17:05


 **********************************************************************************************************************************
 LABEL *   Optimization of nh3_nitrosmethane                                             
 Linux-4.4.3/n079(x86_64) 64 bit mpp version                                             DATE: 25-Oct-23          TIME: 16:34:33  
 **********************************************************************************************************************************

 SHA1:             9e8077add272b0f3cad6f7df79ec5211205f459d
 **********************************************************************************************************************************

 THRESHOLDS:

 ZERO    =  1.00D-12  ONEINT  =  1.00D-16  TWOINT  =  1.00D-16  PREFAC  =  1.00D-14  LOCALI  =  1.00D-09  EORDER  =  1.00D-04
 ENERGY  =  1.00D-12  ETEST   =  0.00D+00  EDENS   =  0.00D+00  THRDEDEF=  1.00D-06  GRADIENT=  1.00D-02  STEP    =  1.00D-03
 ORBITAL =  1.00D-10  CIVEC   =  1.00D-05  COEFF   =  1.00D-04  PRINTCI =  5.00D-02  PUNCHCI =  9.90D+01  OPTGRAD =  1.00D-06
 OPTENERG=  1.00D-06  OPTSTEP =  3.00D-04  THRGRAD =  1.00D-10  COMPRESS=  1.00D-13  VARMIN  =  1.00D-07  VARMAX  =  1.00D-03
 THRDOUB =  0.00D+00  THRDIV  =  1.00D-05  THRRED  =  1.00D-07  THRPSP  =  1.00D+00  THRDC   =  1.00D-10  THRCS   =  1.00D-10
 THRNRM  =  1.00D-08  THREQ   =  0.00D+00  THRDE   =  1.00D+00  THRREF  =  1.00D-05  SPARFAC =  1.00D+00  THRDLP  =  1.00D-07
 THRDIA  =  1.00D-10  THRDLS  =  1.00D-07  THRGPS  =  0.00D+00  THRKEX  =  0.00D+00  THRDIS  =  2.00D-01  THRVAR  =  1.00D-10
 THRLOC  =  1.00D-06  THRGAP  =  1.00D-06  THRLOCT = -1.00D+00  THRGAPT = -1.00D+00  THRORB  =  1.00D-06  THRMLTP =  0.00D+00
 THRCPQCI=  1.00D-10  KEXTA   =  0.00D+00  THRCOARS=  0.00D+00  SYMTOL  =  1.00D-06  GRADTOL =  1.00D-06  THROVL  =  1.00D-08
 THRORTH =  1.00D-08  GRID    =  1.00D-06  GRIDMAX =  1.00D-03  DTMAX   =  0.00D+00

 SETTING GEOMTYP        =    XYZ
 ZUNIT=BOHR
 

 Variable memory set to 1000000000 words,  buffer space   230000 words

 SETTING BASIS          =    CC-PVDZ


 Recomputing integrals since basis changed


 Using spherical harmonics

 Library entry N      S cc-pVDZ              selected for orbital group  1
 Library entry N      P cc-pVDZ              selected for orbital group  1
 Library entry N      D cc-pVDZ              selected for orbital group  1
 Library entry H      S cc-pVDZ              selected for orbital group  2
 Library entry H      P cc-pVDZ              selected for orbital group  2
 Library entry C      S cc-pVDZ              selected for orbital group  3
 Library entry C      P cc-pVDZ              selected for orbital group  3
 Library entry C      D cc-pVDZ              selected for orbital group  3
 Library entry O      S cc-pVDZ              selected for orbital group  5
 Library entry O      P cc-pVDZ              selected for orbital group  5
 Library entry O      D cc-pVDZ              selected for orbital group  5

1PROGRAM * SEWARD (Integral evaluation for generally contracted gaussian basis sets)     Author: Roland Lindh, 1990

 Geometry written to block  1 of record 700


 Point group  C1  



 ATOMIC COORDINATES

 NR  ATOM    CHARGE       X              Y              Z

   1  N       7.00   -5.219358234   -0.183622500   -0.001532589
   2  H       1.00   -6.295807209    0.232503794   -1.539165059
   3  H       1.00   -3.763930204    1.057335799    0.001455414
   4  H       1.00   -6.297935748    0.227596065    1.535928610
   5  H       1.00   -0.925411904   -2.399272950    0.007429172
   6  H       1.00    1.876843861   -3.431792023   -1.668486883
   7  H       1.00    1.886194559   -3.436173343    1.664877302
   8  C       6.00    1.135089952   -2.469680453    0.001556543
   9  N       7.00    2.265948997    0.097968689    0.001759152
  10  O       8.00    0.702484421    1.782193930   -0.003821662

 Bond lengths in Bohr (Angstrom)

 1-2  1.922554837  1-3  1.912657100  1-4  1.922554837  5-8  2.061712784  6-8  2.065164057
     ( 1.017372203)     ( 1.012134546)     ( 1.017372203)     ( 1.091011417)     ( 1.092837752)

  7- 8  2.065164057   8- 9  2.805648648   9-10  2.298057286
       ( 1.092837752)       ( 1.484685321)       ( 1.216079541)

 Bond angles

  2-1-3  106.67095460   2-1-4  106.21107456   3-1-4  106.67095191   5-8-6  112.15889786

  5-8-7  112.15889786   5-8-9  111.81278753   6-8-7  107.61735054   6-8-9  106.35838670

  7- 8- 9  106.35838670   8- 9-10  113.35946297

 NUCLEAR CHARGE:                   34
 NUMBER OF PRIMITIVE AOS:         150
 NUMBER OF SYMMETRY AOS:          146
 NUMBER OF CONTRACTIONS:           86   (  86A   )
 NUMBER OF CORE ORBITALS:           4   (   4A   )
 NUMBER OF VALENCE ORBITALS:       22   (  22A   )


 NUCLEAR REPULSION ENERGY  117.40338789


 Eigenvalues of metric

         1 0.629E-02 0.972E-02 0.151E-01 0.180E-01 0.298E-01 0.370E-01 0.392E-01 0.408E-01


 Contracted 2-electron integrals neglected if value below      1.0D-16
 AO integral compression algorithm  1   Integral accuracy      1.0D-16

     52.691 MB (compressed) written to integral file ( 82.3%)

     Node minimum: 52.691 MB, node maximum: 52.691 MB


 NUMBER OF SORTED TWO-ELECTRON INTEGRALS:    6999411.     BUFFER LENGTH:  32768
 NUMBER OF SEGMENTS:   1  SEGMENT LENGTH:    6999411      RECORD LENGTH: 524288

 Memory used in sort:       7.56 MW

 SORT1 READ     8004583. AND WROTE     6871144. INTEGRALS IN     20 RECORDS. CPU TIME:     0.06 SEC, REAL TIME:     0.11 SEC
 SORT2 READ     6871144. AND WROTE     6999411. INTEGRALS IN    201 RECORDS. CPU TIME:     0.08 SEC, REAL TIME:     0.11 SEC

 FILE SIZES:   FILE 1:    48.5 MBYTE,  FILE 4:    83.9 MBYTE,   TOTAL:    132.4 MBYTE

 OPERATOR DM      FOR CENTER  0  COORDINATES:    0.000000    0.000000    0.000000


 **********************************************************************************************************************************
 DATASETS  * FILE   NREC   LENGTH (MB)   RECORD NAMES
              1      19       48.57       500      610      700      900      950      970     1000      129      960     1100   
                                          VAR    BASINP    GEOM    SYMINP    ZMAT    AOBASIS   BASIS     P2S    ABASIS      S 
                                         1400     1410     1200     1210     1080     1600     1650     1300     1700   
                                           T        V       H0       H01     AOSYM     SMH    MOLCAS    ERIS     OPER   

 PROGRAMS   *        TOTAL       INT
 CPU TIMES  *         0.75      0.71
 REAL TIME  *         1.04 SEC
 DISK USED  *       185.86 MB      
 GA USED    *         0.00 MB       (max)       0.00 MB       (current)
 **********************************************************************************************************************************

1PROGRAM * RHF-SCF (CLOSED SHELL)       Authors: W. Meyer, H.-J. Werner


 NUMBER OF ELECTRONS:      17+   17-    SPACE SYMMETRY=1    SPIN SYMMETRY: Singlet 
 CONVERGENCE THRESHOLDS:    1.00E-10 (Density)    1.00E-13 (Energy)
 MAX. NUMBER OF ITERATIONS:      200
 INTERPOLATION TYPE:            DIIS
 INTERPOLATION STEPS:              2 (START)      1 (STEP)
 LEVEL SHIFTS:                  0.00 (CLOSED)  0.00 (OPEN) 



 Orbital guess generated from atomic densities. Full valence occupancy:   26

 Molecular orbital dump at record        2100.2

 ITERATION    DDIFF          GRAD             ENERGY        2-EL.EN.            DIPOLE MOMENTS         DIIS
    1      0.000D+00      0.000D+00      -224.94595971    393.832960    0.09480   -0.57319    0.00228    0
    2      0.000D+00      0.101D-01      -225.00723843    393.275815   -0.59618   -0.30275    0.00011    1
    3      0.189D-01      0.693D-02      -225.03993572    393.793738   -0.25352   -0.51486    0.00146    2
    4      0.826D-02      0.139D-02      -225.04209820    393.684948   -0.33207   -0.42323    0.00124    3
    5      0.216D-02      0.531D-03      -225.04247468    393.680546   -0.33304   -0.44979    0.00129    4
    6      0.908D-03      0.129D-03      -225.04251120    393.702823   -0.33785   -0.44801    0.00129    5
    7      0.304D-03      0.511D-04      -225.04251700    393.690611   -0.33942   -0.44823    0.00129    6
    8      0.124D-03      0.198D-04      -225.04251785    393.696179   -0.34019   -0.44821    0.00129    7
    9      0.433D-04      0.825D-05      -225.04251802    393.694841   -0.34037   -0.44791    0.00129    8
   10      0.225D-04      0.230D-05      -225.04251803    393.694662   -0.34043   -0.44775    0.00129    8
   11      0.659D-05      0.695D-06      -225.04251804    393.694714   -0.34044   -0.44768    0.00129    8
   12      0.187D-05      0.221D-06      -225.04251804    393.694677   -0.34045   -0.44766    0.00129    8
   13      0.755D-06      0.698D-07      -225.04251804    393.694671   -0.34045   -0.44765    0.00129    8
   14      0.180D-06      0.345D-07      -225.04251804    393.694672   -0.34045   -0.44765    0.00129    8
   15      0.902D-07      0.771D-08      -225.04251804    393.694672   -0.34045   -0.44765    0.00129    8
   16      0.153D-07      0.407D-08      -225.04251804    393.694672   -0.34045   -0.44765    0.00129    8
   17      0.108D-07      0.296D-08      -225.04251804    393.694672   -0.34045   -0.44765    0.00129    8
   18      0.165D-07      0.166D-08      -225.04251804    393.694672   -0.34045   -0.44765    0.00129    8
   19      0.139D-07      0.623D-09      -225.04251804    393.694672   -0.34045   -0.44765    0.00129    9
   20      0.550D-08      0.128D-09      -225.04251804    393.694672   -0.34045   -0.44765    0.00129    9
   21      0.468D-09      0.342D-10      -225.04251804    393.694672   -0.34045   -0.44765    0.00129    9
   22      0.106D-09      0.794D-11      -225.04251804    393.694672   -0.34045   -0.44765    0.00129    8
   23      0.221D-10      0.273D-11      -225.04251804    393.694672   -0.34045   -0.44765    0.00129    9
   24      0.713D-11      0.122D-11      -225.04251804    393.694672   -0.34045   -0.44765    0.00129    9
   25      0.259D-11      0.251D-12      -225.04251804    393.694672   -0.34045   -0.44765    0.00129    7
   26      0.556D-12      0.116D-12      -225.04251804    393.694672   -0.34045   -0.44765    0.00129    0

 Final occupancy:  17

 !RHF STATE 1.1 Energy               -225.042518035550
 Nuclear energy                       117.40338789
 One-electron energy                 -539.29324197
 Two-electron energy                  196.84733605
 Virial quotient                       -1.00156559
 !RHF STATE 1.1 Dipole moment          -0.34044989    -0.44765283     0.00128696
 Dipole moment /Debye                  -0.86528064    -1.13774548     0.00327091

 Orbital energies:

         1.1          2.1          3.1          4.1          5.1          6.1          7.1          8.1          9.1         10.1
    -20.625952   -15.699000   -15.537393   -11.265709    -1.506660    -1.130723    -1.069994    -0.855303    -0.684584    -0.667551

        11.1         12.1         13.1         14.1         15.1         16.1         17.1         18.1         19.1
     -0.630813    -0.614721    -0.614198    -0.550612    -0.527708    -0.420236    -0.398130     0.109595     0.186911


 **********************************************************************************************************************************
 DATASETS  * FILE   NREC   LENGTH (MB)   RECORD NAMES
              1      19       48.57       500      610      700      900      950      970     1000      129      960     1100   
                                          VAR    BASINP    GEOM    SYMINP    ZMAT    AOBASIS   BASIS     P2S    ABASIS      S 
                                         1400     1410     1200     1210     1080     1600     1650     1300     1700   
                                           T        V       H0       H01     AOSYM     SMH    MOLCAS    ERIS     OPER   

              2       3        0.57       700     1000     2100   
                                         GEOM     BASIS     RHF  

 PROGRAMS   *        TOTAL       RHF       INT
 CPU TIMES  *         1.98      1.23      0.71
 REAL TIME  *         2.40 SEC
 DISK USED  *       185.86 MB      
 GA USED    *         0.00 MB       (max)       0.00 MB       (current)
 **********************************************************************************************************************************


1PROGRAM * CCSD (Closed-shell coupled cluster)     Authors: C. Hampel, H.-J. Werner, 1991, M. Deegan, P.J. Knowles, 1992


 Convergence thresholds:  THRVAR = 1.00D-08  THRDEN = 1.00D-12

 CCSD(T)     terms to be evaluated (factor= 1.000)


 Number of core orbitals:           4 (   4 )
 Number of closed-shell orbitals:  13 (  13 )
 Number of external orbitals:      69 (  69 )

 Molecular orbitals read from record     2100.2  Type=RHF/CANONICAL (state 1.1)

 Number of N-1 electron functions:              13
 Number of N-2 electron functions:              91
 Number of singly external CSFs:               897
 Number of doubly external CSFs:            402753
 Total number of CSFs:                      403651

 Length of J-op  integral file:               0.00 MB
 Length of K-op  integral file:               0.54 MB
 Length of 3-ext integral record:             0.00 MB

 Memory could be reduced to 6.46 Mwords without degradation in triples

 Integral transformation finished. Total CPU:   0.25 sec, npass=  1  Memory used:   5.81 MW

 Reference energy:                   -225.04251804

 MP2 singlet pair energy:              -0.42990313
 MP2 triplet pair energy:              -0.25005195
 MP2 correlation energy:               -0.67995507
 MP2 total energy:                   -225.72247311

 SCS-MP2 correlation energy:           -0.67147163   (PS=  1.200000  PT=  0.333333)
 SCS-MP2 total energy:               -225.71398967

 ITER.      SQ.NORM     CORR.ENERGY   TOTAL ENERGY   ENERGY CHANGE        DEN1      VAR(S)    VAR(P)  DIIS     TIME
   1      1.22681402    -0.71575043  -225.75826847    -0.03579536    -0.01324312  0.44D-02  0.46D-02  1  1     0.92
   2      1.24749702    -0.71906157  -225.76157960    -0.00331114    -0.02058355  0.13D-03  0.82D-03  2  2     1.59
   3      1.25646648    -0.71974946  -225.76226750    -0.00068790    -0.00431143  0.10D-03  0.59D-04  3  3     2.28
   4      1.26019249    -0.71974041  -225.76225845     0.00000905    -0.00126896  0.77D-05  0.10D-04  4  4     2.96
   5      1.26162557    -0.71976008  -225.76227811    -0.00001967    -0.00032489  0.14D-05  0.17D-05  5  5     3.64
   6      1.26202481    -0.71973242  -225.76225046     0.00002766    -0.00004696  0.78D-07  0.36D-06  6  6     4.32
   7      1.26211524    -0.71973059  -225.76224863     0.00000183    -0.00000208  0.20D-07  0.96D-07  6  2     5.01
   8      1.26213770    -0.71973066  -225.76224870    -0.00000007     0.00000226  0.86D-08  0.24D-07  6  5     5.69
   9      1.26213296    -0.71973153  -225.76224956    -0.00000087     0.00000161  0.17D-08  0.27D-08  6  1     6.38
  10      1.26213291    -0.71973179  -225.76224983    -0.00000027    -0.00000145  0.39D-09  0.30D-09  6  3     7.06
  11      1.26213139    -0.71973206  -225.76225010    -0.00000027     0.00000088  0.77D-10  0.49D-10  6  4     7.75
  12      1.26213067    -0.71973212  -225.76225016    -0.00000006     0.00000022  0.19D-10  0.10D-10  6  6     8.44
  13      1.26212993    -0.71973216  -225.76225019    -0.00000003     0.00000017  0.34D-11  0.17D-11  6  2     9.13
  14      1.26212956    -0.71973218  -225.76225021    -0.00000002     0.00000012  0.68D-12  0.47D-12  6  1     9.81
  15      1.26212929    -0.71973219  -225.76225022    -0.00000001     0.00000005  0.66D-13  0.71D-13  6  5    10.49
  16      1.26212923    -0.71973219  -225.76225022    -0.00000000     0.00000001  0.20D-13  0.26D-13  6  3    11.17
  17      1.26212920    -0.71973219  -225.76225023    -0.00000000     0.00000001  0.69D-14  0.81D-14  6  4    11.86
  18      1.26212919    -0.71973219  -225.76225023    -0.00000000    -0.00000000  0.45D-14  0.20D-14  6  6    12.55
  19      1.26212918    -0.71973219  -225.76225023    -0.00000000    -0.00000000  0.30D-14  0.50D-15  6  2    13.24
  20      1.26212918    -0.71973219  -225.76225023     0.00000000     0.00000000  0.18D-14  0.21D-15  6  1    13.92
  21      1.26212918    -0.71973219  -225.76225023    -0.00000000     0.00000000  0.92D-15  0.13D-15  6  5    14.61
  22      1.26212919    -0.71973219  -225.76225023     0.00000000    -0.00000000  0.37D-15  0.79D-16  6  4    15.30
  23      1.26212919    -0.71973219  -225.76225023     0.00000000    -0.00000000  0.92D-16  0.34D-16  6  3    15.98
  24      1.26212919    -0.71973219  -225.76225023    -0.00000000    -0.00000000  0.29D-16  0.96D-17  6  2    16.67
  25      1.26212919    -0.71973219  -225.76225023    -0.00000000    -0.00000000  0.24D-17  0.21D-17  6  6    17.35
  26      1.26212919    -0.71973219  -225.76225023    -0.00000000     0.00000000  0.45D-18  0.46D-18  6  1    18.03
  27      1.26212919    -0.71973219  -225.76225023    -0.00000000     0.00000000  0.42D-19  0.93D-19  6  6    18.72
  28      1.26212919    -0.71973219  -225.76225023    -0.00000000     0.00000000  0.55D-20  0.79D-20  6  3    19.40
  29      1.26212919    -0.71973219  -225.76225023     0.00000000    -0.00000000  0.11D-20  0.91D-21  6  5    20.09

 Norm of t1 vector:      0.10006010      S-energy:    -0.00000000      T1 diagnostic:  0.01387584
                                                                       D1 diagnostic:  0.05074677

 Doubles amplitudes (print threshold =  0.500E-01):

         I         J         SYM. A    SYM. B    A         B      T(IJ, AB)

         7         7         1         1         1         1     -0.06083180
        11         7         1         1         1         1     -0.06597668
        11        11         1         1         1         1     -0.09636177


 Total CPU time for triples:      6.16 sec


 RESULTS
 =======

  Reference energy                   -225.042518035550
  CCSD singlet pair energy             -0.499055683274
  CCSD triplet pair energy             -0.220676507803
  CCSD correlation energy              -0.719732191077

  Triples (T) contribution             -0.021671078119
  Total correlation energy             -0.741403269196

  CCSD total energy                  -225.762250226627
  CCSD[T] energy                     -225.785295728704
  CCSD-T energy                      -225.783517946238
 !CCSD(T) total energy               -225.783921304746

 Timing summary (sec):

 STEP                 CPU(USER)    SYS     CPU(TOT)    WALL
 Transformation          0.26      0.05      0.31      0.31
 CCSD iterations        19.83      0.61     20.44     20.50
 Triples                 6.16      0.16      6.32      6.32

 Program statistics:

 Available memory in ccsd:               999999224
 Min. memory needed in ccsd:               1143606
 Max. memory used in ccsd:                 1480488
 Max. memory used in cckext:               1471436 (29 integral passes)



 **********************************************************************************************************************************
 DATASETS  * FILE   NREC   LENGTH (MB)   RECORD NAMES
              1      20       74.19       500      610      700      900      950      970     1000      129      960     1100   
                                          VAR    BASINP    GEOM    SYMINP    ZMAT    AOBASIS   BASIS     P2S    ABASIS      S 
                                         1400     1410     1200     1210     1080     1600     1650     1300     1700     1380   
                                           T        V       H0       H01     AOSYM     SMH    MOLCAS    ERIS     OPER     JKOP   

              2       3        0.57       700     1000     2100   
                                         GEOM     BASIS     RHF  

 PROGRAMS   *        TOTAL   CCSD(T)       RHF       INT
 CPU TIMES  *        28.24     26.26      1.23      0.71
 REAL TIME  *        29.56 SEC
 DISK USED  *       198.50 MB      
 GA USED    *         0.00 MB       (max)       0.00 MB       (current)
 **********************************************************************************************************************************

        CCSD(T)         RHF-SCF 
   -225.78392130   -225.04251804
 **********************************************************************************************************************************
 Variable memory released
