
 Primary working directories    : /tmp/1047041.437.gen4.q
 Secondary working directories  : /tmp/1047041.437.gen4.q
 Wavefunction directory         : /home/vulcan/mel64643/wfu/
 Main file repository           : /tmp/1047041.437.gen4.q/

 ARCHNAME  : Linux/x86_64
 FC        : /opt/intel/compilers_and_libraries_2016.1.150/linux/bin/intel64/ifort
 FCVERSION : 16.0.1
 BLASLIB   : -mkl
 id        : ccgc

 Nodes     nprocs
 n026         1
 ga_uses_ma=false, calling ma_init with nominal heap.
 GA-space will be limited to   8.0 MW (determined by -G option)

 Using customized tuning parameters: mindgm=10; mindgv=16; mindgc=4; mindgr=1; noblas=0; mincuda=1000; minvec=7
 default implementation of scratch files=df  

 ***,Optimization of ben_hcn
 memory,1000,m
 gthresh,energy=1.0d-12,orbital=1.0d-10,oneint=1.0d-16,twoint=1.0d-16,optgrad=1.0d-6,compress=1.0d-13
 geomtyp=xyz
 
 
 
 bohr
 geometry = {
  C   -1.8847444284    1.3706850106    2.2838356067
  C   -1.8575346429    2.6913956961   -0.0060354369
  C   -1.8747126179    1.3713045375   -2.2905727787
  C   -1.9191796122   -1.2767879485   -2.2894826955
  C   -1.9463756406   -2.5973161226    0.0002577286
  C   -1.9291905917   -1.2774269415    2.2847030979
  H   -1.8655884180    2.3951330666    4.0570583912
  H   -1.8174913846    4.7389880485   -0.0068010547
  H   -1.8476452770    2.3942855152   -4.0645337051
  H   -1.9260685116   -2.3014367991   -4.0626482539
  H   -1.9741101524   -4.6450622098    0.0010464790
  H   -1.9438678019   -2.3006483961    4.0586504416
  N    6.6239205624   -0.2018653668    0.0015189338
  C    4.4346190132   -0.0727008011    0.0169714860
  H    2.4147707506    0.0379762591    0.0131322738
 }
 
 basis=aug-cc-pvdz, H=cc-pvdz
 {rhf;maxit,200}
 {ccsd(t)}

 Variables initialized (661), CPU time= 0.00 sec
 Commands  initialized (458), CPU time= 0.01 sec, 486 directives.
 Default parameters read. Elapsed time= 0.06 sec

 Checking input...
 Passed
1


                                         ***  PROGRAM SYSTEM MOLPRO  ***
                         Copyright, University College Cardiff Consultants Limited, 2008

                                    Version 2010.1 linked May 16 2016 07:17:05


 **********************************************************************************************************************************
 LABEL *   Optimization of ben_hcn                                                       
 Linux-4.4.3/n026(x86_64) 64 bit mpp version                                             DATE: 07-Mar-24          TIME: 10:39:26  
 **********************************************************************************************************************************

 SHA1:             9e8077add272b0f3cad6f7df79ec5211205f459d
 **********************************************************************************************************************************

 THRESHOLDS:

 ZERO    =  1.00D-12  ONEINT  =  1.00D-16  TWOINT  =  1.00D-16  PREFAC  =  1.00D-14  LOCALI  =  1.00D-09  EORDER  =  1.00D-04
 ENERGY  =  1.00D-12  ETEST   =  0.00D+00  EDENS   =  0.00D+00  THRDEDEF=  1.00D-06  GRADIENT=  1.00D-02  STEP    =  1.00D-03
 ORBITAL =  1.00D-10  CIVEC   =  1.00D-05  COEFF   =  1.00D-04  PRINTCI =  5.00D-02  PUNCHCI =  9.90D+01  OPTGRAD =  1.00D-06
 OPTENERG=  1.00D-06  OPTSTEP =  3.00D-04  THRGRAD =  1.00D-10  COMPRESS=  1.00D-13  VARMIN  =  1.00D-07  VARMAX  =  1.00D-03
 THRDOUB =  0.00D+00  THRDIV  =  1.00D-05  THRRED  =  1.00D-07  THRPSP  =  1.00D+00  THRDC   =  1.00D-10  THRCS   =  1.00D-10
 THRNRM  =  1.00D-08  THREQ   =  0.00D+00  THRDE   =  1.00D+00  THRREF  =  1.00D-05  SPARFAC =  1.00D+00  THRDLP  =  1.00D-07
 THRDIA  =  1.00D-10  THRDLS  =  1.00D-07  THRGPS  =  0.00D+00  THRKEX  =  0.00D+00  THRDIS  =  2.00D-01  THRVAR  =  1.00D-10
 THRLOC  =  1.00D-06  THRGAP  =  1.00D-06  THRLOCT = -1.00D+00  THRGAPT = -1.00D+00  THRORB  =  1.00D-06  THRMLTP =  0.00D+00
 THRCPQCI=  1.00D-10  KEXTA   =  0.00D+00  THRCOARS=  0.00D+00  SYMTOL  =  1.00D-06  GRADTOL =  1.00D-06  THROVL  =  1.00D-08
 THRORTH =  1.00D-08  GRID    =  1.00D-06  GRIDMAX =  1.00D-03  DTMAX   =  0.00D+00

 SETTING GEOMTYP        =    XYZ
 ZUNIT=BOHR
 

 Variable memory set to 1000000000 words,  buffer space   230000 words

 SETTING BASIS          =    AUG-CC-PVDZ,H=CC-PVDZ


 Recomputing integrals since basis changed


 Using spherical harmonics

 Library entry C      S aug-cc-pVDZ          selected for orbital group  1
 Library entry C      P aug-cc-pVDZ          selected for orbital group  1
 Library entry C      D aug-cc-pVDZ          selected for orbital group  1
 Library entry H      S cc-pVDZ              selected for orbital group  2
 Library entry H      P cc-pVDZ              selected for orbital group  2
 Library entry N      S aug-cc-pVDZ          selected for orbital group  3
 Library entry N      P aug-cc-pVDZ          selected for orbital group  3
 Library entry N      D aug-cc-pVDZ          selected for orbital group  3

1PROGRAM * SEWARD (Integral evaluation for generally contracted gaussian basis sets)     Author: Roland Lindh, 1990

 Geometry written to block  1 of record 700


 Point group  C1  



 ATOMIC COORDINATES

 NR  ATOM    CHARGE       X              Y              Z

   1  C       6.00   -1.884744428    1.370685011    2.283835607
   2  C       6.00   -1.857534643    2.691395696   -0.006035437
   3  C       6.00   -1.874712618    1.371304537   -2.290572779
   4  C       6.00   -1.919179612   -1.276787948   -2.289482695
   5  C       6.00   -1.946375641   -2.597316123    0.000257729
   6  C       6.00   -1.929190592   -1.277426941    2.284703098
   7  H       1.00   -1.865588418    2.395133067    4.057058391
   8  H       1.00   -1.817491385    4.738988049   -0.006801055
   9  H       1.00   -1.847645277    2.394285515   -4.064533705
  10  H       1.00   -1.926068512   -2.301436799   -4.062648254
  11  H       1.00   -1.974110152   -4.645062210    0.001046479
  12  H       1.00   -1.943867802   -2.300648396    4.058650442
  13  N       7.00    6.623920562   -0.201865367    0.001518934
  14  C       6.00    4.434619013   -0.072700801    0.016971486
  15  H       1.00    2.414770751    0.037976259    0.013132274

 Bond lengths in Bohr (Angstrom)

 1-2  2.643582131  1-6  2.648485062  1-7  2.047969681  2-3  2.638569047  2-8  2.047984006
     ( 1.398923414)     ( 1.401517933)     ( 1.083738880)     ( 1.396270604)     ( 1.083746461)

  3- 4  2.648466031   3- 9  2.047964865   4- 5  2.643377667   4-10  2.047942583   5- 6  2.638388414
       ( 1.401507862)       ( 1.083736332)       ( 1.398815216)       ( 1.083724540)       ( 1.396175017)

  5-11  2.047934048   6-12  2.047946958  13-14  2.193162908  14-15  2.022881894
       ( 1.083720023)       ( 1.083726856)       ( 1.160571826)       ( 1.070462995)

 Bond angles

  1- 2- 3  119.99746764   1- 2- 8  120.00137931   1- 6- 5  120.00123310   1- 6-12  119.99777675

  2-1-6  119.99850392   2-1-7  119.99930047   2-3-4  119.99921184   2-3-9  119.99924730

  3- 2- 8  120.00090278   3- 4- 5  120.00130497   3- 4-10  119.99737961   4- 3- 9  120.00125538

  4- 5- 6  120.00227851   4- 5-11  119.99920734   5- 4-10  120.00098978   5- 6-12  120.00067191

  6- 1- 7  120.00192409   6- 5-11  119.99816258  13-14-15  179.43412107

 NUCLEAR CHARGE:                   56
 NUMBER OF PRIMITIVE AOS:         345
 NUMBER OF SYMMETRY AOS:          329
 NUMBER OF CONTRACTIONS:          219   ( 219A   )
 NUMBER OF CORE ORBITALS:           8   (   8A   )
 NUMBER OF VALENCE ORBITALS:       39   (  39A   )


 NUCLEAR REPULSION ENERGY  303.39351312


 Eigenvalues of metric

         1 0.864E-05 0.186E-04 0.229E-04 0.534E-04 0.627E-04 0.634E-04 0.927E-04 0.932E-04


 Contracted 2-electron integrals neglected if value below      1.0D-16
 AO integral compression algorithm  1   Integral accuracy      1.0D-16

     2341.470 MB (compressed) written to integral file ( 91.3%)

     Node minimum: 2341.470 MB, node maximum: 2341.470 MB


 NUMBER OF SORTED TWO-ELECTRON INTEGRALS:  290176095.     BUFFER LENGTH:  32768
 NUMBER OF SEGMENTS:  19  SEGMENT LENGTH:   15999762      RECORD LENGTH: 524288

 Memory used in sort:      16.56 MW

 SORT1 READ   320642736. AND WROTE   287595852. INTEGRALS IN    832 RECORDS. CPU TIME:     3.52 SEC, REAL TIME:     6.19 SEC
 SORT2 READ   287595852. AND WROTE   290176095. INTEGRALS IN   8932 RECORDS. CPU TIME:     2.00 SEC, REAL TIME:     3.45 SEC

 FILE SIZES:   FILE 1:  2152.2 MBYTE,  FILE 4:  3489.7 MBYTE,   TOTAL:   5641.9 MBYTE

 OPERATOR DM      FOR CENTER  0  COORDINATES:    0.000000    0.000000    0.000000


 **********************************************************************************************************************************
 DATASETS  * FILE   NREC   LENGTH (MB)   RECORD NAMES
              1      19     2152.74       500      610      700      900      950      970     1000      129      960     1100   
                                          VAR    BASINP    GEOM    SYMINP    ZMAT    AOBASIS   BASIS     P2S    ABASIS      S 
                                         1400     1410     1200     1210     1080     1600     1650     1300     1700   
                                           T        V       H0       H01     AOSYM     SMH    MOLCAS    ERIS     OPER   

 PROGRAMS   *        TOTAL       INT
 CPU TIMES  *        19.47     19.41
 REAL TIME  *        29.95 SEC
 DISK USED  *         7.98 GB      
 GA USED    *         0.01 MB       (max)       0.00 MB       (current)
 **********************************************************************************************************************************

1PROGRAM * RHF-SCF (CLOSED SHELL)       Authors: W. Meyer, H.-J. Werner


 NUMBER OF ELECTRONS:      28+   28-    SPACE SYMMETRY=1    SPIN SYMMETRY: Singlet 
 CONVERGENCE THRESHOLDS:    1.00E-10 (Density)    1.00E-13 (Energy)
 MAX. NUMBER OF ITERATIONS:      200
 INTERPOLATION TYPE:            DIIS
 INTERPOLATION STEPS:              2 (START)      1 (STEP)
 LEVEL SHIFTS:                  0.00 (CLOSED)  0.00 (OPEN) 



 Orbital guess generated from atomic densities. Full valence occupancy:   47

 Molecular orbital dump at record        2100.2

 ITERATION    DDIFF          GRAD             ENERGY        2-EL.EN.            DIPOLE MOMENTS         DIIS
    1      0.000D+00      0.000D+00      -323.54135539    822.124160   -1.89854    0.10591    0.00903    0
    2      0.000D+00      0.292D-02      -323.59779570    819.103360   -1.36870    0.04938   -0.00169    1
    3      0.781D-02      0.179D-02      -323.61439231    820.248734   -1.72944    0.08073    0.00422    2
    4      0.260D-02      0.576D-03      -323.61672869    820.450383   -1.63873    0.07282    0.00248    3
    5      0.963D-03      0.133D-03      -323.61685805    820.190407   -1.66267    0.07363    0.00267    4
    6      0.223D-03      0.229D-04      -323.61686417    820.217266   -1.66402    0.07356    0.00258    5
    7      0.845D-04      0.434D-05      -323.61686437    820.212384   -1.66437    0.07350    0.00260    6
    8      0.108D-04      0.123D-05      -323.61686439    820.213376   -1.66468    0.07355    0.00259    7
    9      0.345D-05      0.266D-06      -323.61686439    820.213408   -1.66465    0.07351    0.00260    6
   10      0.813D-06      0.671D-07      -323.61686439    820.213388   -1.66465    0.07353    0.00259    6
   11      0.184D-06      0.345D-07      -323.61686439    820.213402   -1.66465    0.07352    0.00259    7
   12      0.786D-07      0.692D-08      -323.61686439    820.213398   -1.66465    0.07352    0.00259    7
   13      0.230D-07      0.249D-08      -323.61686439    820.213400   -1.66465    0.07352    0.00259    7
   14      0.633D-08      0.793D-09      -323.61686439    820.213399   -1.66465    0.07352    0.00259    7
   15      0.227D-08      0.355D-09      -323.61686439    820.213399   -1.66465    0.07352    0.00259    8
   16      0.935D-09      0.158D-09      -323.61686439    820.213399   -1.66465    0.07352    0.00259    8
   17      0.493D-09      0.892D-10      -323.61686439    820.213399   -1.66465    0.07352    0.00259    8
   18      0.303D-09      0.383D-10      -323.61686439    820.213399   -1.66465    0.07352    0.00259    9
   19      0.271D-09      0.110D-10      -323.61686439    820.213399   -1.66465    0.07352    0.00259    9
   20      0.182D-09      0.396D-11      -323.61686439    820.213399   -1.66465    0.07352    0.00259    9
   21      0.142D-09      0.185D-11      -323.61686439    820.213399   -1.66465    0.07352    0.00259    9
   22      0.133D-09      0.108D-11      -323.61686439    820.213399   -1.66465    0.07352    0.00259    9
   23      0.745D-10      0.739D-12      -323.61686439    820.213399   -1.66465    0.07352    0.00259    9
   24      0.850D-10      0.588D-12      -323.61686439    820.213399   -1.66465    0.07352    0.00259    9
   25      0.544D-10      0.577D-12      -323.61686439    820.213399   -1.66465    0.07352    0.00259    9
   26      0.491D-10      0.603D-12      -323.61686439    820.213399   -1.66465    0.07352    0.00259    9
   27      0.338D-10      0.459D-12      -323.61686439    820.213399   -1.66465    0.07352    0.00259    9
   28      0.207D-10      0.543D-12      -323.61686439    820.213399   -1.66465    0.07352    0.00259    0

 Final occupancy:  28

 !RHF STATE 1.1 Energy               -323.616864389516
 Nuclear energy                       303.39351312
 One-electron energy                -1037.11707710
 Two-electron energy                  410.10669959
 Virial quotient                       -1.00170958
 !RHF STATE 1.1 Dipole moment          -1.66465036     0.07352360     0.00259206
 Dipole moment /Debye                  -4.23084207     0.18686611     0.00658792

 Orbital energies:

         1.1          2.1          3.1          4.1          5.1          6.1          7.1          8.1          9.1         10.1
    -15.591652   -11.283864   -11.266274   -11.265857   -11.265564   -11.264657   -11.264349   -11.263888    -1.218337    -1.173920

        11.1         12.1         13.1         14.1         15.1         16.1         17.1         18.1         19.1         20.1
     -1.038662    -1.036913    -0.846347    -0.845086    -0.789906    -0.729360    -0.664875    -0.639190    -0.609231    -0.607887

        21.1         22.1         23.1         24.1         25.1         26.1         27.1         28.1         29.1         30.1
     -0.565231    -0.520376    -0.515390    -0.514314    -0.475691    -0.475688    -0.360451    -0.358882     0.055869     0.060071


 **********************************************************************************************************************************
 DATASETS  * FILE   NREC   LENGTH (MB)   RECORD NAMES
              1      19     2152.74       500      610      700      900      950      970     1000      129      960     1100   
                                          VAR    BASINP    GEOM    SYMINP    ZMAT    AOBASIS   BASIS     P2S    ABASIS      S 
                                         1400     1410     1200     1210     1080     1600     1650     1300     1700   
                                           T        V       H0       H01     AOSYM     SMH    MOLCAS    ERIS     OPER   

              2       3        1.49       700     1000     2100   
                                         GEOM     BASIS     RHF  

 PROGRAMS   *        TOTAL       RHF       INT
 CPU TIMES  *        84.90     65.43     19.41
 REAL TIME  *       102.31 SEC
 DISK USED  *         7.98 GB      
 GA USED    *         0.01 MB       (max)       0.00 MB       (current)
 **********************************************************************************************************************************


1PROGRAM * CCSD (Closed-shell coupled cluster)     Authors: C. Hampel, H.-J. Werner, 1991, M. Deegan, P.J. Knowles, 1992


 Convergence thresholds:  THRVAR = 1.00D-08  THRDEN = 1.00D-12

 CCSD(T)     terms to be evaluated (factor= 1.000)


 Number of core orbitals:           8 (   8 )
 Number of closed-shell orbitals:  20 (  20 )
 Number of external orbitals:     191 ( 191 )

 Molecular orbitals read from record     2100.2  Type=RHF/CANONICAL (state 1.1)

 Number of N-1 electron functions:              20
 Number of N-2 electron functions:             210
 Number of singly external CSFs:              3820
 Number of doubly external CSFs:           7298110
 Total number of CSFs:                     7301931

 Length of J-op  integral file:               0.00 MB
 Length of K-op  integral file:               3.32 MB
 Length of 3-ext integral record:             0.00 MB

 Memory could be reduced to 174.82 Mwords without degradation in triples

 Integral transformation finished. Total CPU:  23.12 sec, npass=  1  Memory used: 128.13 MW

 Reference energy:                   -323.61686439

 MP2 singlet pair energy:              -0.67334400
 MP2 triplet pair energy:              -0.43519827
 MP2 correlation energy:               -1.10854227
 MP2 total energy:                   -324.72540666

 SCS-MP2 correlation energy:           -1.07880284   (PS=  1.200000  PT=  0.333333)
 SCS-MP2 total energy:               -324.69566723

 ITER.      SQ.NORM     CORR.ENERGY   TOTAL ENERGY   ENERGY CHANGE        DEN1      VAR(S)    VAR(P)  DIIS     TIME
   1      1.42873443    -1.14462410  -324.76148849    -0.03608183    -0.00288926  0.51D-02  0.99D-02  1  1    96.28
   2      1.46305714    -1.15049758  -324.76736197    -0.00587347    -0.03103157  0.83D-04  0.13D-02  2  2   169.77
   3      1.47634922    -1.15094529  -324.76780968    -0.00044771    -0.00655962  0.40D-04  0.12D-03  3  3   243.31
   4      1.48204165    -1.15119499  -324.76805938    -0.00024970    -0.00178589  0.22D-05  0.15D-04  4  4   316.89
   5      1.48357107    -1.15123069  -324.76809508    -0.00003570    -0.00036588  0.25D-06  0.14D-05  5  5   390.51
   6      1.48387727    -1.15122218  -324.76808657     0.00000852    -0.00005025  0.24D-07  0.91D-07  6  6   464.14
   7      1.48391205    -1.15122559  -324.76808998    -0.00000341    -0.00000225  0.34D-08  0.80D-08  6  2   537.76
   8      1.48391673    -1.15122594  -324.76809033    -0.00000036    -0.00000042  0.41D-09  0.83D-09  6  1   611.38
   9      1.48391695    -1.15122611  -324.76809050    -0.00000017     0.00000079  0.63D-10  0.78D-10  6  3   684.95
  10      1.48391733    -1.15122617  -324.76809056    -0.00000006     0.00000002  0.10D-10  0.99D-11  6  4   758.53
  11      1.48391705    -1.15122621  -324.76809059    -0.00000004     0.00000022  0.17D-11  0.14D-11  6  5   832.17
  12      1.48391689    -1.15122622  -324.76809061    -0.00000001     0.00000008  0.25D-12  0.27D-12  6  6   905.78
  13      1.48391675    -1.15122622  -324.76809061    -0.00000000     0.00000005  0.14D-13  0.52D-13  6  2   979.39
  14      1.48391669    -1.15122622  -324.76809061    -0.00000000     0.00000002  0.22D-14  0.94D-14  6  1  1053.01
  15      1.48391666    -1.15122622  -324.76809061     0.00000000     0.00000001  0.47D-15  0.13D-14  6  3  1126.64
  16      1.48391665    -1.15122622  -324.76809061    -0.00000000     0.00000000  0.10D-15  0.19D-15  6  4  1200.24
  17      1.48391665    -1.15122622  -324.76809061    -0.00000000     0.00000000  0.19D-16  0.28D-16  6  5  1273.86
  18      1.48391665    -1.15122622  -324.76809061    -0.00000000     0.00000000  0.37D-17  0.36D-17  6  6  1347.48
  19      1.48391665    -1.15122622  -324.76809061    -0.00000000     0.00000000  0.83D-18  0.61D-18  6  2  1421.13
  20      1.48391665    -1.15122622  -324.76809061    -0.00000000     0.00000000  0.18D-18  0.13D-18  6  1  1494.72
  21      1.48391665    -1.15122622  -324.76809061    -0.00000000     0.00000000  0.63D-19  0.38D-19  6  3  1568.28
  22      1.48391665    -1.15122622  -324.76809061     0.00000000     0.00000000  0.30D-19  0.17D-19  6  4  1641.92

 Norm of t1 vector:      0.09773704      S-energy:     0.00000000      T1 diagnostic:  0.01092733
                                                                       D1 diagnostic:  0.02772764

 Doubles amplitudes (print threshold =  0.500E-01):

         I         J         SYM. A    SYM. B    A         B      T(IJ, AB)

        19        19         1         1         8         8     -0.06148969
        20        20         1         1         7         7     -0.06275328


 Total CPU time for triples:   1505.16 sec


 RESULTS
 =======

  Reference energy                   -323.616864389518
  CCSD singlet pair energy             -0.770021238527
  CCSD triplet pair energy             -0.381204983312
  CCSD correlation energy              -1.151226221839

  Triples (T) contribution             -0.054015837814
  Total correlation energy             -1.205242059653

  CCSD total energy                  -324.768090611357
  CCSD[T] energy                     -324.823438777863
  CCSD-T energy                      -324.821500965402
 !CCSD(T) total energy               -324.822106449171

 Timing summary (sec):

 STEP                 CPU(USER)    SYS     CPU(TOT)    WALL
 Transformation         23.96      1.15     25.11     25.12
 CCSD iterations      1617.99     15.06   1633.05   1633.25
 Triples              1505.16     16.00   1521.16   1521.31

 Program statistics:

 Available memory in ccsd:               999998300
 Min. memory needed in ccsd:              17709720
 Max. memory used in ccsd:                24415330
 Max. memory used in cckext:              20754978 (22 integral passes)



 **********************************************************************************************************************************
 DATASETS  * FILE   NREC   LENGTH (MB)   RECORD NAMES
              1      20     2834.91       500      610      700      900      950      970     1000      129      960     1100   
                                          VAR    BASINP    GEOM    SYMINP    ZMAT    AOBASIS   BASIS     P2S    ABASIS      S 
                                         1400     1410     1200     1210     1080     1600     1650     1300     1700     1380   
                                           T        V       H0       H01     AOSYM     SMH    MOLCAS    ERIS     OPER     JKOP   

              2       3        1.49       700     1000     2100   
                                         GEOM     BASIS     RHF  

 PROGRAMS   *        TOTAL   CCSD(T)       RHF       INT
 CPU TIMES  *      3232.04   3147.13     65.43     19.41
 REAL TIME  *      3282.14 SEC
 DISK USED  *         7.98 GB      
 GA USED    *         0.01 MB       (max)       0.00 MB       (current)
 **********************************************************************************************************************************

        CCSD(T)         RHF-SCF 
   -324.82210645   -323.61686439
 **********************************************************************************************************************************
 Variable memory released
