
 Primary working directories    : /tmp/943420.19.gen4.q
 Secondary working directories  : /tmp/943420.19.gen4.q
 Wavefunction directory         : /home/vulcan/mel64643/wfu/
 Main file repository           : /tmp/943420.19.gen4.q/

 ARCHNAME  : Linux/x86_64
 FC        : /opt/intel/compilers_and_libraries_2016.1.150/linux/bin/intel64/ifort
 FCVERSION : 16.0.1
 BLASLIB   : -mkl
 id        : ccgc

 Nodes     nprocs
 n062         1
 ga_uses_ma=false, calling ma_init with nominal heap.
 GA-space will be limited to   8.0 MW (determined by -G option)

 Using customized tuning parameters: mindgm=10; mindgv=16; mindgc=4; mindgr=1; noblas=0; mincuda=1000; minvec=7
 default implementation of scratch files=df  

 ***,Optimization of nh3_nitrosmethane
 memory,1000,m
 gthresh,energy=1.0d-12,orbital=1.0d-10,oneint=1.0d-16,twoint=1.0d-16,optgrad=1.0d-6,compress=1.0d-13
 geomtyp=xyz
 
 bohr
 geometry = {
  N   -5.2165386812   -0.1850956276   -0.0000000000
  H   -6.2878597490    0.2281926959   -1.5296669005
  H   -3.7572782070    1.0550535036    0.0000000000
  H   -6.2878597490    0.2281926959    1.5296669005
  H   -0.9298076103   -2.3985580775    0.0000000000
  H    1.8774015379   -3.4325545104   -1.6666900850
  H    1.8774015379   -3.4325545104    1.6666900850
  C    1.1307204597   -2.4684413885    0.0000000000
  N    2.2609211786    0.0994976050   -0.0000000000
  O    0.6970177725    1.7833246232   -0.0000000000
 }
 
 basis=aug-cc-pvdz, H=cc-pvdz
 {rhf;maxit,200}
 {ccsd(t);maxit,200}

 Variables initialized (661), CPU time= 0.00 sec
 Commands  initialized (458), CPU time= 0.00 sec, 486 directives.
 Default parameters read. Elapsed time= 0.04 sec

 Checking input...
 Passed
1


                                         ***  PROGRAM SYSTEM MOLPRO  ***
                         Copyright, University College Cardiff Consultants Limited, 2008

                                    Version 2010.1 linked May 16 2016 07:17:05


 **********************************************************************************************************************************
 LABEL *   Optimization of nh3_nitrosmethane                                             
 Linux-4.4.3/n062(x86_64) 64 bit mpp version                                             DATE: 26-Oct-23          TIME: 07:16:48  
 **********************************************************************************************************************************

 SHA1:             9e8077add272b0f3cad6f7df79ec5211205f459d
 **********************************************************************************************************************************

 THRESHOLDS:

 ZERO    =  1.00D-12  ONEINT  =  1.00D-16  TWOINT  =  1.00D-16  PREFAC  =  1.00D-14  LOCALI  =  1.00D-09  EORDER  =  1.00D-04
 ENERGY  =  1.00D-12  ETEST   =  0.00D+00  EDENS   =  0.00D+00  THRDEDEF=  1.00D-06  GRADIENT=  1.00D-02  STEP    =  1.00D-03
 ORBITAL =  1.00D-10  CIVEC   =  1.00D-05  COEFF   =  1.00D-04  PRINTCI =  5.00D-02  PUNCHCI =  9.90D+01  OPTGRAD =  1.00D-06
 OPTENERG=  1.00D-06  OPTSTEP =  3.00D-04  THRGRAD =  1.00D-10  COMPRESS=  1.00D-13  VARMIN  =  1.00D-07  VARMAX  =  1.00D-03
 THRDOUB =  0.00D+00  THRDIV  =  1.00D-05  THRRED  =  1.00D-07  THRPSP  =  1.00D+00  THRDC   =  1.00D-10  THRCS   =  1.00D-10
 THRNRM  =  1.00D-08  THREQ   =  0.00D+00  THRDE   =  1.00D+00  THRREF  =  1.00D-05  SPARFAC =  1.00D+00  THRDLP  =  1.00D-07
 THRDIA  =  1.00D-10  THRDLS  =  1.00D-07  THRGPS  =  0.00D+00  THRKEX  =  0.00D+00  THRDIS  =  2.00D-01  THRVAR  =  1.00D-10
 THRLOC  =  1.00D-06  THRGAP  =  1.00D-06  THRLOCT = -1.00D+00  THRGAPT = -1.00D+00  THRORB  =  1.00D-06  THRMLTP =  0.00D+00
 THRCPQCI=  1.00D-10  KEXTA   =  0.00D+00  THRCOARS=  0.00D+00  SYMTOL  =  1.00D-06  GRADTOL =  1.00D-06  THROVL  =  1.00D-08
 THRORTH =  1.00D-08  GRID    =  1.00D-06  GRIDMAX =  1.00D-03  DTMAX   =  0.00D+00

 SETTING GEOMTYP        =    XYZ
 ZUNIT=BOHR
 

 Variable memory set to 1000000000 words,  buffer space   230000 words

 SETTING BASIS          =    AUG-CC-PVDZ,H=CC-PVDZ


 Recomputing integrals since basis changed


 Using spherical harmonics

 Library entry N      S aug-cc-pVDZ          selected for orbital group  1
 Library entry N      P aug-cc-pVDZ          selected for orbital group  1
 Library entry N      D aug-cc-pVDZ          selected for orbital group  1
 Library entry H      S cc-pVDZ              selected for orbital group  2
 Library entry H      P cc-pVDZ              selected for orbital group  2
 Library entry C      S aug-cc-pVDZ          selected for orbital group  3
 Library entry C      P aug-cc-pVDZ          selected for orbital group  3
 Library entry C      D aug-cc-pVDZ          selected for orbital group  3
 Library entry O      S aug-cc-pVDZ          selected for orbital group  5
 Library entry O      P aug-cc-pVDZ          selected for orbital group  5
 Library entry O      D aug-cc-pVDZ          selected for orbital group  5

1PROGRAM * SEWARD (Integral evaluation for generally contracted gaussian basis sets)     Author: Roland Lindh, 1990

 Geometry written to block  1 of record 700


 Point group  Cs  



 ATOMIC COORDINATES

 NR  ATOM    CHARGE       X              Y              Z

   1  N       7.00   -5.216538681   -0.185095628    0.000000000
   2  H       1.00   -6.287859749    0.228192696   -1.529666901
   3  H       1.00   -6.287859749    0.228192696    1.529666901
   4  H       1.00   -3.757278207    1.055053504    0.000000000
   5  H       1.00   -0.929807610   -2.398558078    0.000000000
   6  H       1.00    1.877401538   -3.432554510   -1.666690085
   7  H       1.00    1.877401538   -3.432554510    1.666690085
   8  C       6.00    1.130720460   -2.468441389    0.000000000
   9  N       7.00    2.260921179    0.099497605    0.000000000
  10  O       8.00    0.697017772    1.783324623    0.000000000

 Bond lengths in Bohr (Angstrom)

 1-2  1.912698851  1-3  1.912698851  1-4  1.915048563  5-8  2.061712784  6-8  2.065164057
     ( 1.012156640)     ( 1.012156640)     ( 1.013400054)     ( 1.091011417)     ( 1.092837752)

  7- 8  2.065164057   8- 9  2.805648649   9-10  2.298057286
       ( 1.092837752)       ( 1.484685321)       ( 1.216079541)

 Bond angles

  2-1-3  106.21107378   2-1-4  106.67095389   3-1-4  106.67095389   5-8-6  112.15889806

  5-8-7  112.15889806   5-8-9  111.81278772   6-8-7  107.61735006   6-8-9  106.35838662

  7- 8- 9  106.35838662   8- 9-10  113.35946297

 NUCLEAR CHARGE:                   34
 NUMBER OF PRIMITIVE AOS:         190
 NUMBER OF SYMMETRY AOS:          182
 NUMBER OF CONTRACTIONS:          122   (  82A'  +  40A"  )
 NUMBER OF CORE ORBITALS:           4   (   4A'  +   0A"  )
 NUMBER OF VALENCE ORBITALS:       22   (  16A'  +   6A"  )


 NUCLEAR REPULSION ENERGY  117.48797842


 Eigenvalues of metric

         1 0.465E-03 0.142E-02 0.195E-02 0.430E-02 0.523E-02 0.748E-02 0.855E-02 0.124E-01
         2 0.799E-02 0.197E-01 0.244E-01 0.281E-01 0.310E-01 0.455E-01 0.611E-01 0.103E+00


 Contracted 2-electron integrals neglected if value below      1.0D-16
 AO integral compression algorithm  1   Integral accuracy      1.0D-16

     127.140 MB (compressed) written to integral file ( 92.7%)

     Node minimum: 127.140 MB, node maximum: 127.140 MB


 NUMBER OF SORTED TWO-ELECTRON INTEGRALS:   14499896.     BUFFER LENGTH:  32768
 NUMBER OF SEGMENTS:   1  SEGMENT LENGTH:   14499896      RECORD LENGTH: 524288

 Memory used in sort:      15.06 MW

 SORT1 READ    17174245. AND WROTE    14371100. INTEGRALS IN     42 RECORDS. CPU TIME:     0.17 SEC, REAL TIME:     0.26 SEC
 SORT2 READ    14371100. AND WROTE    14499896. INTEGRALS IN    485 RECORDS. CPU TIME:     0.15 SEC, REAL TIME:     0.23 SEC

 FILE SIZES:   FILE 1:   112.4 MBYTE,  FILE 4:   176.2 MBYTE,   TOTAL:    288.6 MBYTE

 OPERATOR DM      FOR CENTER  0  COORDINATES:    0.000000    0.000000    0.000000


 **********************************************************************************************************************************
 DATASETS  * FILE   NREC   LENGTH (MB)   RECORD NAMES
              1      19      112.48       500      610      700      900      950      970     1000      129      960     1100   
                                          VAR    BASINP    GEOM    SYMINP    ZMAT    AOBASIS   BASIS     P2S    ABASIS      S 
                                         1400     1410     1200     1210     1080     1600     1650     1300     1700   
                                           T        V       H0       H01     AOSYM     SMH    MOLCAS    ERIS     OPER   

 PROGRAMS   *        TOTAL       INT
 CPU TIMES  *         1.61      1.57
 REAL TIME  *         2.00 SEC
 DISK USED  *       416.50 MB      
 GA USED    *         0.00 MB       (max)       0.00 MB       (current)
 **********************************************************************************************************************************

1PROGRAM * RHF-SCF (CLOSED SHELL)       Authors: W. Meyer, H.-J. Werner


 NUMBER OF ELECTRONS:      17+   17-
 CONVERGENCE THRESHOLDS:    1.00E-10 (Density)    1.00E-13 (Energy)
 MAX. NUMBER OF ITERATIONS:      200
 INTERPOLATION TYPE:            DIIS
 INTERPOLATION STEPS:              2 (START)      1 (STEP)
 LEVEL SHIFTS:                  0.00 (CLOSED)  0.00 (OPEN) 



 Orbital guess generated from atomic densities. Full valence occupancy:   20   6

 Molecular orbital dump at record        2100.2

 Initial alpha occupancy:  14   3
 Initial beta  occupancy:  14   3
 Wave function symmetry:    1

 ITERATION    DDIFF          GRAD             ENERGY        2-EL.EN.            DIPOLE MOMENTS         DIIS
    1      0.000D+00      0.000D+00      -224.96500850    393.277855    0.07058   -0.57521    0.00000    0
    2      0.000D+00      0.947D-02      -225.02591063    392.903892   -0.58272   -0.37470    0.00000    1
    3      0.176D-01      0.661D-02      -225.05977034    393.447662   -0.23711   -0.55410    0.00000    2
    4      0.763D-02      0.133D-02      -225.06204182    393.283231   -0.31532   -0.45666    0.00000    3
    5      0.196D-02      0.524D-03      -225.06246681    393.295128   -0.31304   -0.48605    0.00000    4
    6      0.853D-03      0.127D-03      -225.06250904    393.321954   -0.31838   -0.48327    0.00000    5
    7      0.290D-03      0.483D-04      -225.06251507    393.306061   -0.32001   -0.48336    0.00000    6
    8      0.115D-03      0.196D-04      -225.06251606    393.312526   -0.32101   -0.48329    0.00000    7
    9      0.440D-04      0.840D-05      -225.06251627    393.311334   -0.32128   -0.48299    0.00000    8
   10      0.244D-04      0.257D-05      -225.06251630    393.311058   -0.32137   -0.48281    0.00000    8
   11      0.747D-05      0.863D-06      -225.06251630    393.311162   -0.32138   -0.48272    0.00000    8
   12      0.243D-05      0.262D-06      -225.06251630    393.311126   -0.32138   -0.48269    0.00000    8
   13      0.911D-06      0.821D-07      -225.06251630    393.311120   -0.32138   -0.48269    0.00000    8
   14      0.220D-06      0.414D-07      -225.06251630    393.311123   -0.32138   -0.48269    0.00000    9
   15      0.102D-06      0.396D-08      -225.06251630    393.311123   -0.32138   -0.48269    0.00000    8
   16      0.102D-07      0.110D-08      -225.06251630    393.311123   -0.32138   -0.48269    0.00000    7
   17      0.350D-08      0.235D-09      -225.06251630    393.311123   -0.32138   -0.48269    0.00000    7
   18      0.579D-09      0.813D-10      -225.06251630    393.311123   -0.32138   -0.48269    0.00000    7
   19      0.189D-09      0.260D-10      -225.06251630    393.311123   -0.32138   -0.48269    0.00000    7
   20      0.694D-10      0.770D-11      -225.06251630    393.311123   -0.32138   -0.48269    0.00000    6
   21      0.212D-10      0.220D-11      -225.06251630    393.311123   -0.32138   -0.48269    0.00000    7
   22      0.723D-11      0.577D-12      -225.06251630    393.311123   -0.32138   -0.48269    0.00000    0

 Final occupancy:  14   3

 !RHF STATE 1.1 Energy               -225.062516298828
 Nuclear energy                       117.48797842
 One-electron energy                 -539.20605623
 Two-electron energy                  196.65556151
 Virial quotient                       -1.00212395
 !RHF STATE 1.1 Dipole moment          -0.32138288    -0.48268705     0.00000000
 Dipole moment /Debye                  -0.81682030    -1.22678776     0.00000000

 Orbital energies:

         1.1          2.1          3.1          4.1          5.1          6.1          7.1          8.1          9.1         10.1
    -20.640358   -15.714735   -15.547871   -11.271170    -1.515141    -1.141656    -1.076175    -0.862412    -0.691423    -0.676016

        11.1         12.1         13.1         14.1         15.1         16.1
     -0.624478    -0.555633    -0.428314    -0.406178     0.077559     0.088760

         1.2          2.2          3.2          4.2          5.2
     -0.636250    -0.625151    -0.534505     0.084449     0.100124


 **********************************************************************************************************************************
 DATASETS  * FILE   NREC   LENGTH (MB)   RECORD NAMES
              1      19      112.48       500      610      700      900      950      970     1000      129      960     1100   
                                          VAR    BASINP    GEOM    SYMINP    ZMAT    AOBASIS   BASIS     P2S    ABASIS      S 
                                         1400     1410     1200     1210     1080     1600     1650     1300     1700   
                                           T        V       H0       H01     AOSYM     SMH    MOLCAS    ERIS     OPER   

              2       3        0.59       700     1000     2100   
                                         GEOM     BASIS     RHF  

 PROGRAMS   *        TOTAL       RHF       INT
 CPU TIMES  *         3.42      1.81      1.57
 REAL TIME  *         4.13 SEC
 DISK USED  *       416.50 MB      
 GA USED    *         0.00 MB       (max)       0.00 MB       (current)
 **********************************************************************************************************************************


1PROGRAM * CCSD (Closed-shell coupled cluster)     Authors: C. Hampel, H.-J. Werner, 1991, M. Deegan, P.J. Knowles, 1992


 Convergence thresholds:  THRVAR = 1.00D-08  THRDEN = 1.00D-12

 CCSD(T)     terms to be evaluated (factor= 1.000)


 Number of core orbitals:           4 (   4   0 )
 Number of closed-shell orbitals:  13 (  10   3 )
 Number of external orbitals:     105 (  68  37 )

 Molecular orbitals read from record     2100.2  Type=RHF/CANONICAL (state 1.1)

 Number of N-1 electron functions:              13
 Number of N-2 electron functions:              91
 Number of singly external CSFs:               791
 Number of doubly external CSFs:            478261
 Total number of CSFs:                      479053

 Length of J-op  integral file:               0.00 MB
 Length of K-op  integral file:               0.61 MB
 Length of 3-ext integral record:             0.00 MB

 Memory could be reduced to 10.60 Mwords without degradation in triples

 Integral transformation finished. Total CPU:   0.42 sec, npass=  1  Memory used:   4.15 MW

 Reference energy:                   -225.06251630

 MP2 singlet pair energy:              -0.44842279
 MP2 triplet pair energy:              -0.26459010
 MP2 correlation energy:               -0.71301289
 MP2 total energy:                   -225.77552919

 SCS-MP2 correlation energy:           -0.70274119   (PS=  1.200000  PT=  0.333333)
 SCS-MP2 total energy:               -225.76525749

 ITER.      SQ.NORM     CORR.ENERGY   TOTAL ENERGY   ENERGY CHANGE        DEN1      VAR(S)    VAR(P)  DIIS     TIME
   1      1.24134885    -0.74699692  -225.80951322    -0.03398403    -0.01024590  0.52D-02  0.49D-02  1  1     1.19
   2      1.26308910    -0.75007488  -225.81259118    -0.00307796    -0.02108479  0.17D-03  0.86D-03  2  2     1.98
   3      1.27306756    -0.75077770  -225.81329400    -0.00070282    -0.00459939  0.12D-03  0.62D-04  3  3     2.77
   4      1.27721664    -0.75074286  -225.81325916     0.00003484    -0.00137116  0.11D-04  0.11D-04  4  4     3.57
   5      1.27886874    -0.75076078  -225.81327708    -0.00001792    -0.00036024  0.19D-05  0.17D-05  5  5     4.37
   6      1.27932778    -0.75073001  -225.81324631     0.00003077    -0.00005467  0.15D-06  0.33D-06  6  6     5.17
   7      1.27942808    -0.75072722  -225.81324352     0.00000279    -0.00000373  0.33D-07  0.87D-07  6  2     5.96
   8      1.27945167    -0.75072798  -225.81324428    -0.00000076    -0.00000031  0.43D-08  0.20D-07  6  1     6.76
   9      1.27945191    -0.75072737  -225.81324367     0.00000061     0.00000435  0.26D-08  0.32D-08  6  4     7.56
  10      1.27945423    -0.75072816  -225.81324446    -0.00000079    -0.00000121  0.52D-09  0.44D-09  6  3     8.37
  11      1.27945216    -0.75072837  -225.81324466    -0.00000021     0.00000043  0.17D-09  0.78D-10  6  5     9.17
  12      1.27945066    -0.75072844  -225.81324474    -0.00000007     0.00000032  0.39D-10  0.17D-10  6  6     9.97
  13      1.27944904    -0.75072856  -225.81324486    -0.00000012     0.00000039  0.55D-11  0.39D-11  6  1    10.76
  14      1.27944836    -0.75072857  -225.81324487    -0.00000001     0.00000018  0.12D-11  0.56D-12  6  2    11.56
  15      1.27944811    -0.75072858  -225.81324488    -0.00000001     0.00000004  0.20D-12  0.85D-13  6  4    12.36
  16      1.27944805    -0.75072858  -225.81324488    -0.00000000     0.00000001  0.56D-13  0.23D-13  6  3    13.16
  17      1.27944803    -0.75072858  -225.81324488     0.00000000    -0.00000000  0.96D-14  0.48D-14  6  6    13.96
  18      1.27944802    -0.75072858  -225.81324488    -0.00000000    -0.00000000  0.14D-14  0.98D-15  6  5    14.76
  19      1.27944803    -0.75072858  -225.81324488     0.00000000    -0.00000000  0.18D-15  0.22D-15  6  1    15.56
  20      1.27944803    -0.75072858  -225.81324488     0.00000000    -0.00000000  0.50D-16  0.64D-16  6  2    16.35
  21      1.27944803    -0.75072858  -225.81324488     0.00000000     0.00000000  0.15D-16  0.14D-16  6  6    17.14
  22      1.27944803    -0.75072858  -225.81324488     0.00000000    -0.00000000  0.28D-17  0.37D-17  6  4    17.93
  23      1.27944803    -0.75072858  -225.81324488     0.00000000    -0.00000000  0.10D-17  0.69D-18  6  3    18.74
  24      1.27944803    -0.75072858  -225.81324488    -0.00000000    -0.00000000  0.22D-18  0.14D-18  6  5    19.53
  25      1.27944803    -0.75072858  -225.81324488     0.00000000    -0.00000000  0.73D-19  0.35D-19  6  1    20.33
  26      1.27944803    -0.75072858  -225.81324488     0.00000000    -0.00000000  0.12D-19  0.49D-20  6  2    21.12
  27      1.27944803    -0.75072858  -225.81324488     0.00000000    -0.00000000  0.32D-20  0.93D-21  6  6    21.93

 Norm of t1 vector:      0.11109425      S-energy:    -0.00000000      T1 diagnostic:  0.01540600
                                                                       D1 diagnostic:  0.04946395

 Doubles amplitudes (print threshold =  0.500E-01):

         I         J         SYM. A    SYM. B    A         B      T(IJ, AB)

        13        13         2         2         1         1     -0.05760152


 Total CPU time for triples:     12.52 sec


 RESULTS
 =======

  Reference energy                   -225.062516298827
  CCSD singlet pair energy             -0.516649633750
  CCSD triplet pair energy             -0.234078947977
  CCSD correlation energy              -0.750728581727

  Triples (T) contribution             -0.026279078288
  Total correlation energy             -0.777007660016

  CCSD total energy                  -225.813244880554
  CCSD[T] energy                     -225.841130742662
  CCSD-T energy                      -225.839032637905
 !CCSD(T) total energy               -225.839523958843

 Timing summary (sec):

 STEP                 CPU(USER)    SYS     CPU(TOT)    WALL
 Transformation          0.43      0.06      0.49      0.49
 CCSD iterations        21.50      0.98     22.48     22.53
 Triples                12.52      0.39     12.91     12.91

 Program statistics:

 Available memory in ccsd:               999999224
 Min. memory needed in ccsd:               1317552
 Max. memory used in ccsd:                 1735628
 Max. memory used in cckext:               1789017 (27 integral passes)



 **********************************************************************************************************************************
 DATASETS  * FILE   NREC   LENGTH (MB)   RECORD NAMES
              1      20      152.07       500      610      700      900      950      970     1000      129      960     1100   
                                          VAR    BASINP    GEOM    SYMINP    ZMAT    AOBASIS   BASIS     P2S    ABASIS      S 
                                         1400     1410     1200     1210     1080     1600     1650     1300     1700     1380   
                                           T        V       H0       H01     AOSYM     SMH    MOLCAS    ERIS     OPER     JKOP   

              2       3        0.59       700     1000     2100   
                                         GEOM     BASIS     RHF  

 PROGRAMS   *        TOTAL   CCSD(T)       RHF       INT
 CPU TIMES  *        37.88     34.46      1.81      1.57
 REAL TIME  *        40.10 SEC
 DISK USED  *       416.50 MB      
 GA USED    *         0.00 MB       (max)       0.00 MB       (current)
 **********************************************************************************************************************************

        CCSD(T)         RHF-SCF 
   -225.83952396   -225.06251630
 **********************************************************************************************************************************
 Variable memory released
