
 Primary working directories    : /tmp/943420.567.gen6.q
 Secondary working directories  : /tmp/943420.567.gen6.q
 Wavefunction directory         : /home/vulcan/mel64643/wfu/
 Main file repository           : /tmp/943420.567.gen6.q/

 ARCHNAME  : Linux/x86_64
 FC        : /opt/intel/compilers_and_libraries_2016.1.150/linux/bin/intel64/ifort
 FCVERSION : 16.0.1
 BLASLIB   : -mkl
 id        : ccgc

 Nodes     nprocs
 n078         1
 ga_uses_ma=false, calling ma_init with nominal heap.
 GA-space will be limited to   8.0 MW (determined by -G option)

 Using customized tuning parameters: mindgm=10; mindgv=16; mindgc=4; mindgr=1; noblas=0; mincuda=1000; minvec=7
 default implementation of scratch files=df  

 ***,Optimization of nh3_nitrosmethane
 memory,1000,m
 gthresh,energy=1.0d-12,orbital=1.0d-10,oneint=1.0d-16,twoint=1.0d-16,optgrad=1.0d-6,compress=1.0d-13
 geomtyp=xyz
 
 bohr
 geometry = {
  N   -5.2178799969   -0.1914607043   -0.0048906076
  H   -6.2962829023    0.2321719194   -1.5339814311
  H   -3.7586005323    1.0575361981    0.0033308046
  H   -6.2914833048    0.2063663943    1.5344747517
  H   -0.9322163303   -2.3814297570    0.0021192615
  H    1.8675875363   -3.4361263253   -1.6640563892
  H    1.8688824014   -3.4310565106    1.6693196560
  C    1.1278156042   -2.4646618376    0.0014455835
  N    2.2746289067    0.0958976232   -0.0028942902
  O    0.7216671079    1.7898200087   -0.0048673393
 }
 
 basis=aug-cc-pvdz, H=cc-pvdz
 {rhf;maxit,200}
 {ccsd(t);maxit,200}

 Variables initialized (661), CPU time= 0.00 sec
 Commands  initialized (458), CPU time= 0.00 sec, 486 directives.
 Default parameters read. Elapsed time= 0.04 sec

 Checking input...
 Passed
1


                                         ***  PROGRAM SYSTEM MOLPRO  ***
                         Copyright, University College Cardiff Consultants Limited, 2008

                                    Version 2010.1 linked May 16 2016 07:17:05


 **********************************************************************************************************************************
 LABEL *   Optimization of nh3_nitrosmethane                                             
 Linux-4.4.3/n078(x86_64) 64 bit mpp version                                             DATE: 26-Oct-23          TIME: 08:28:49  
 **********************************************************************************************************************************

 SHA1:             9e8077add272b0f3cad6f7df79ec5211205f459d
 **********************************************************************************************************************************

 THRESHOLDS:

 ZERO    =  1.00D-12  ONEINT  =  1.00D-16  TWOINT  =  1.00D-16  PREFAC  =  1.00D-14  LOCALI  =  1.00D-09  EORDER  =  1.00D-04
 ENERGY  =  1.00D-12  ETEST   =  0.00D+00  EDENS   =  0.00D+00  THRDEDEF=  1.00D-06  GRADIENT=  1.00D-02  STEP    =  1.00D-03
 ORBITAL =  1.00D-10  CIVEC   =  1.00D-05  COEFF   =  1.00D-04  PRINTCI =  5.00D-02  PUNCHCI =  9.90D+01  OPTGRAD =  1.00D-06
 OPTENERG=  1.00D-06  OPTSTEP =  3.00D-04  THRGRAD =  1.00D-10  COMPRESS=  1.00D-13  VARMIN  =  1.00D-07  VARMAX  =  1.00D-03
 THRDOUB =  0.00D+00  THRDIV  =  1.00D-05  THRRED  =  1.00D-07  THRPSP  =  1.00D+00  THRDC   =  1.00D-10  THRCS   =  1.00D-10
 THRNRM  =  1.00D-08  THREQ   =  0.00D+00  THRDE   =  1.00D+00  THRREF  =  1.00D-05  SPARFAC =  1.00D+00  THRDLP  =  1.00D-07
 THRDIA  =  1.00D-10  THRDLS  =  1.00D-07  THRGPS  =  0.00D+00  THRKEX  =  0.00D+00  THRDIS  =  2.00D-01  THRVAR  =  1.00D-10
 THRLOC  =  1.00D-06  THRGAP  =  1.00D-06  THRLOCT = -1.00D+00  THRGAPT = -1.00D+00  THRORB  =  1.00D-06  THRMLTP =  0.00D+00
 THRCPQCI=  1.00D-10  KEXTA   =  0.00D+00  THRCOARS=  0.00D+00  SYMTOL  =  1.00D-06  GRADTOL =  1.00D-06  THROVL  =  1.00D-08
 THRORTH =  1.00D-08  GRID    =  1.00D-06  GRIDMAX =  1.00D-03  DTMAX   =  0.00D+00

 SETTING GEOMTYP        =    XYZ
 ZUNIT=BOHR
 

 Variable memory set to 1000000000 words,  buffer space   230000 words

 SETTING BASIS          =    AUG-CC-PVDZ,H=CC-PVDZ


 Recomputing integrals since basis changed


 Using spherical harmonics

 Library entry N      S aug-cc-pVDZ          selected for orbital group  1
 Library entry N      P aug-cc-pVDZ          selected for orbital group  1
 Library entry N      D aug-cc-pVDZ          selected for orbital group  1
 Library entry H      S cc-pVDZ              selected for orbital group  2
 Library entry H      P cc-pVDZ              selected for orbital group  2
 Library entry C      S aug-cc-pVDZ          selected for orbital group  3
 Library entry C      P aug-cc-pVDZ          selected for orbital group  3
 Library entry C      D aug-cc-pVDZ          selected for orbital group  3
 Library entry O      S aug-cc-pVDZ          selected for orbital group  5
 Library entry O      P aug-cc-pVDZ          selected for orbital group  5
 Library entry O      D aug-cc-pVDZ          selected for orbital group  5

1PROGRAM * SEWARD (Integral evaluation for generally contracted gaussian basis sets)     Author: Roland Lindh, 1990

 Geometry written to block  1 of record 700


 Point group  C1  



 ATOMIC COORDINATES

 NR  ATOM    CHARGE       X              Y              Z

   1  N       7.00   -5.217879997   -0.191460704   -0.004890608
   2  H       1.00   -6.296282902    0.232171919   -1.533981431
   3  H       1.00   -3.758600532    1.057536198    0.003330805
   4  H       1.00   -6.291483305    0.206366394    1.534474752
   5  H       1.00   -0.932216330   -2.381429757    0.002119262
   6  H       1.00    1.867587536   -3.436126325   -1.664056389
   7  H       1.00    1.868882401   -3.431056511    1.669319656
   8  C       6.00    1.127815604   -2.464661838    0.001445584
   9  N       7.00    2.274628907    0.095897623   -0.002894290
  10  O       8.00    0.721667108    1.789820009   -0.004867339

 Bond lengths in Bohr (Angstrom)

 1-2  1.918472354  1-3  1.920822066  1-4  1.918472354  5-8  2.061712784  6-8  2.065164057
     ( 1.015211846)     ( 1.016455260)     ( 1.015211846)     ( 1.091011417)     ( 1.092837752)

  7- 8  2.065164057   8- 9  2.805648648   9-10  2.298057286
       ( 1.092837752)       ( 1.484685321)       ( 1.216079541)

 Bond angles

  2-1-3  106.67095347   2-1-4  106.21107436   3-1-4  106.67095386   5-8-6  112.15889935

  5-8-7  112.15889746   5-8-9  111.81278806   6-8-7  107.61734922   6-8-9  106.35838698

  7- 8- 9  106.35838596   8- 9-10  113.35946297

 NUCLEAR CHARGE:                   34
 NUMBER OF PRIMITIVE AOS:         190
 NUMBER OF SYMMETRY AOS:          182
 NUMBER OF CONTRACTIONS:          122   ( 122A   )
 NUMBER OF CORE ORBITALS:           4   (   4A   )
 NUMBER OF VALENCE ORBITALS:       22   (  22A   )


 NUCLEAR REPULSION ENERGY  117.38247144


 Eigenvalues of metric

         1 0.465E-03 0.142E-02 0.196E-02 0.431E-02 0.519E-02 0.750E-02 0.799E-02 0.856E-02


 Contracted 2-electron integrals neglected if value below      1.0D-16
 AO integral compression algorithm  1   Integral accuracy      1.0D-16

     235.143 MB (compressed) written to integral file ( 87.5%)

     Node minimum: 235.143 MB, node maximum: 235.143 MB


 NUMBER OF SORTED TWO-ELECTRON INTEGRALS:   28151256.     BUFFER LENGTH:  32768
 NUMBER OF SEGMENTS:   2  SEGMENT LENGTH:   15997996      RECORD LENGTH: 524288

 Memory used in sort:      16.56 MW

 SORT1 READ    33603451. AND WROTE    27859516. INTEGRALS IN     81 RECORDS. CPU TIME:     0.30 SEC, REAL TIME:     0.46 SEC
 SORT2 READ    27859516. AND WROTE    28151256. INTEGRALS IN    897 RECORDS. CPU TIME:     0.26 SEC, REAL TIME:     0.36 SEC

 FILE SIZES:   FILE 1:   202.4 MBYTE,  FILE 4:   339.8 MBYTE,   TOTAL:    542.2 MBYTE

 OPERATOR DM      FOR CENTER  0  COORDINATES:    0.000000    0.000000    0.000000


 **********************************************************************************************************************************
 DATASETS  * FILE   NREC   LENGTH (MB)   RECORD NAMES
              1      19      202.56       500      610      700      900      950      970     1000      129      960     1100   
                                          VAR    BASINP    GEOM    SYMINP    ZMAT    AOBASIS   BASIS     P2S    ABASIS      S 
                                         1400     1410     1200     1210     1080     1600     1650     1300     1700   
                                           T        V       H0       H01     AOSYM     SMH    MOLCAS    ERIS     OPER   

 PROGRAMS   *        TOTAL       INT
 CPU TIMES  *         1.80      1.76
 REAL TIME  *         2.36 SEC
 DISK USED  *       778.08 MB      
 GA USED    *         0.00 MB       (max)       0.00 MB       (current)
 **********************************************************************************************************************************

1PROGRAM * RHF-SCF (CLOSED SHELL)       Authors: W. Meyer, H.-J. Werner


 NUMBER OF ELECTRONS:      17+   17-    SPACE SYMMETRY=1    SPIN SYMMETRY: Singlet 
 CONVERGENCE THRESHOLDS:    1.00E-10 (Density)    1.00E-13 (Energy)
 MAX. NUMBER OF ITERATIONS:      200
 INTERPOLATION TYPE:            DIIS
 INTERPOLATION STEPS:              2 (START)      1 (STEP)
 LEVEL SHIFTS:                  0.00 (CLOSED)  0.00 (OPEN) 



 Orbital guess generated from atomic densities. Full valence occupancy:   26

 Molecular orbital dump at record        2100.2

 ITERATION    DDIFF          GRAD             ENERGY        2-EL.EN.            DIPOLE MOMENTS         DIIS
    1      0.000D+00      0.000D+00      -224.96503359    393.073485    0.05512   -0.57702    0.00953    0
    2      0.000D+00      0.710D-02      -225.02578061    392.707336   -0.59391   -0.37266    0.00560    1
    3      0.132D-01      0.496D-02      -225.05965566    393.249517   -0.24961   -0.55457    0.00659    2
    4      0.572D-02      0.994D-03      -225.06192418    393.084669   -0.32700   -0.45684    0.00669    3
    5      0.146D-02      0.392D-03      -225.06234802    393.096620   -0.32480   -0.48634    0.00667    4
    6      0.638D-03      0.952D-04      -225.06239032    393.123686   -0.33013   -0.48351    0.00669    5
    7      0.217D-03      0.363D-04      -225.06239637    393.107668   -0.33175   -0.48360    0.00669    6
    8      0.864D-04      0.147D-04      -225.06239736    393.114149   -0.33276   -0.48352    0.00669    7
    9      0.331D-04      0.633D-05      -225.06239758    393.112983   -0.33303   -0.48321    0.00669    8
   10      0.183D-04      0.193D-05      -225.06239760    393.112697   -0.33311   -0.48303    0.00669    8
   11      0.562D-05      0.650D-06      -225.06239760    393.112803   -0.33312   -0.48294    0.00669    8
   12      0.183D-05      0.197D-06      -225.06239760    393.112768   -0.33312   -0.48292    0.00669    8
   13      0.685D-06      0.619D-07      -225.06239760    393.112762   -0.33313   -0.48291    0.00669    8
   14      0.166D-06      0.315D-07      -225.06239760    393.112764   -0.33313   -0.48291    0.00669    9
   15      0.778D-07      0.443D-08      -225.06239760    393.112764   -0.33313   -0.48291    0.00669    8
   16      0.112D-07      0.276D-08      -225.06239760    393.112764   -0.33313   -0.48291    0.00669    7
   17      0.106D-07      0.187D-08      -225.06239760    393.112765   -0.33313   -0.48291    0.00669    7
   18      0.133D-07      0.892D-09      -225.06239760    393.112764   -0.33313   -0.48291    0.00669    8
   19      0.839D-08      0.251D-09      -225.06239760    393.112764   -0.33313   -0.48291    0.00669    9
   20      0.156D-08      0.626D-10      -225.06239760    393.112764   -0.33313   -0.48291    0.00669    9
   21      0.267D-09      0.225D-10      -225.06239760    393.112764   -0.33313   -0.48291    0.00669    9
   22      0.522D-10      0.683D-11      -225.06239760    393.112764   -0.33313   -0.48291    0.00669    9
   23      0.184D-10      0.196D-11      -225.06239760    393.112764   -0.33313   -0.48291    0.00669    9
   24      0.637D-11      0.725D-12      -225.06239760    393.112764   -0.33313   -0.48291    0.00669    8
   25      0.148D-11      0.364D-12      -225.06239760    393.112764   -0.33313   -0.48291    0.00669    8
   26      0.102D-11      0.837D-13      -225.06239760    393.112764   -0.33313   -0.48291    0.00669    8
   27      0.776D-12      0.492D-13      -225.06239760    393.112764   -0.33313   -0.48291    0.00669    8
   28      0.402D-12      0.385D-13      -225.06239760    393.112764   -0.33313   -0.48291    0.00669    9
   29      0.380D-12      0.270D-13      -225.06239760    393.112764   -0.33313   -0.48291    0.00669    0

 Final occupancy:  17

 !RHF STATE 1.1 Energy               -225.062397600100
 Nuclear energy                       117.38247144
 One-electron energy                 -539.00125124
 Two-electron energy                  196.55638220
 Virial quotient                       -1.00219599
 !RHF STATE 1.1 Dipole moment          -0.33312617    -0.48291349     0.00668984
 Dipole moment /Debye                  -0.84666680    -1.22736326     0.01700275

 Orbital energies:

         1.1          2.1          3.1          4.1          5.1          6.1          7.1          8.1          9.1         10.1
    -20.640278   -15.714604   -15.549187   -11.271039    -1.515021    -1.140353    -1.076055    -0.862260    -0.691239    -0.675848

        11.1         12.1         13.1         14.1         15.1         16.1         17.1         18.1         19.1
     -0.636132    -0.624170    -0.623657    -0.555505    -0.534388    -0.428442    -0.406068     0.077606     0.084545


 **********************************************************************************************************************************
 DATASETS  * FILE   NREC   LENGTH (MB)   RECORD NAMES
              1      19      202.56       500      610      700      900      950      970     1000      129      960     1100   
                                          VAR    BASINP    GEOM    SYMINP    ZMAT    AOBASIS   BASIS     P2S    ABASIS      S 
                                         1400     1410     1200     1210     1080     1600     1650     1300     1700   
                                           T        V       H0       H01     AOSYM     SMH    MOLCAS    ERIS     OPER   

              2       3        0.72       700     1000     2100   
                                         GEOM     BASIS     RHF  

 PROGRAMS   *        TOTAL       RHF       INT
 CPU TIMES  *         7.14      5.34      1.76
 REAL TIME  *         8.26 SEC
 DISK USED  *       778.08 MB      
 GA USED    *         0.00 MB       (max)       0.00 MB       (current)
 **********************************************************************************************************************************


1PROGRAM * CCSD (Closed-shell coupled cluster)     Authors: C. Hampel, H.-J. Werner, 1991, M. Deegan, P.J. Knowles, 1992


 Convergence thresholds:  THRVAR = 1.00D-08  THRDEN = 1.00D-12

 CCSD(T)     terms to be evaluated (factor= 1.000)


 Number of core orbitals:           4 (   4 )
 Number of closed-shell orbitals:  13 (  13 )
 Number of external orbitals:     105 ( 105 )

 Molecular orbitals read from record     2100.2  Type=RHF/CANONICAL (state 1.1)

 Number of N-1 electron functions:              13
 Number of N-2 electron functions:              91
 Number of singly external CSFs:              1365
 Number of doubly external CSFs:            932295
 Total number of CSFs:                      933661

 Length of J-op  integral file:               0.00 MB
 Length of K-op  integral file:               1.06 MB
 Length of 3-ext integral record:             0.00 MB

 Memory could be reduced to 20.68 Mwords without degradation in triples

 Integral transformation finished. Total CPU:   0.96 sec, npass=  1  Memory used:  15.40 MW

 Reference energy:                   -225.06239760

 MP2 singlet pair energy:              -0.44860163
 MP2 triplet pair energy:              -0.26464028
 MP2 correlation energy:               -0.71324191
 MP2 total energy:                   -225.77563951

 SCS-MP2 correlation energy:           -0.70298702   (PS=  1.200000  PT=  0.333333)
 SCS-MP2 total energy:               -225.76538462

 ITER.      SQ.NORM     CORR.ENERGY   TOTAL ENERGY   ENERGY CHANGE        DEN1      VAR(S)    VAR(P)  DIIS     TIME
   1      1.24159896    -0.74723035  -225.80962795    -0.03398844    -0.01022464  0.52D-02  0.49D-02  1  1     3.16
   2      1.26337910    -0.75031863  -225.81271623    -0.00308828    -0.02110834  0.17D-03  0.87D-03  2  2     5.39
   3      1.27338409    -0.75102352  -225.81342112    -0.00070488    -0.00461172  0.12D-03  0.62D-04  3  3     7.62
   4      1.27753861    -0.75098900  -225.81338660     0.00003452    -0.00137319  0.11D-04  0.11D-04  4  4     9.86
   5      1.27919172    -0.75100700  -225.81340460    -0.00001801    -0.00036054  0.19D-05  0.17D-05  5  5    12.09
   6      1.27965151    -0.75097620  -225.81337380     0.00003081    -0.00005483  0.15D-06  0.33D-06  6  6    14.31
   7      1.27975203    -0.75097340  -225.81337100     0.00000280    -0.00000375  0.33D-07  0.87D-07  6  2    16.55
   8      1.27977575    -0.75097415  -225.81337175    -0.00000075    -0.00000032  0.43D-08  0.20D-07  6  1    18.77
   9      1.27977603    -0.75097354  -225.81337114     0.00000061     0.00000435  0.26D-08  0.32D-08  6  4    21.01
  10      1.27977835    -0.75097433  -225.81337193    -0.00000079    -0.00000121  0.52D-09  0.44D-09  6  3    23.23
  11      1.27977627    -0.75097454  -225.81337214    -0.00000021     0.00000043  0.17D-09  0.78D-10  6  5    25.47
  12      1.27977477    -0.75097461  -225.81337221    -0.00000007     0.00000032  0.39D-10  0.17D-10  6  6    27.70
  13      1.27977315    -0.75097473  -225.81337233    -0.00000012     0.00000040  0.57D-11  0.40D-11  6  1    29.94
  14      1.27977247    -0.75097474  -225.81337234    -0.00000001     0.00000018  0.14D-11  0.57D-12  6  2    32.17
  15      1.27977221    -0.75097475  -225.81337235    -0.00000001     0.00000005  0.34D-12  0.97D-13  6  4    34.41
  16      1.27977215    -0.75097475  -225.81337235    -0.00000000     0.00000001  0.16D-12  0.32D-13  6  3    36.64
  17      1.27977213    -0.75097475  -225.81337235     0.00000000    -0.00000000  0.82D-13  0.12D-13  6  6    38.87
  18      1.27977212    -0.75097475  -225.81337235    -0.00000000    -0.00000000  0.47D-13  0.55D-14  6  5    41.11
  19      1.27977213    -0.75097475  -225.81337235     0.00000000    -0.00000000  0.23D-13  0.31D-14  6  1    43.34
  20      1.27977213    -0.75097475  -225.81337235     0.00000000     0.00000000  0.94D-14  0.17D-14  6  2    45.57
  21      1.27977213    -0.75097475  -225.81337235    -0.00000000     0.00000000  0.17D-14  0.66D-15  6  3    47.81
  22      1.27977213    -0.75097475  -225.81337235     0.00000000    -0.00000000  0.21D-15  0.12D-15  6  4    50.06
  23      1.27977213    -0.75097475  -225.81337235    -0.00000000    -0.00000000  0.40D-16  0.30D-16  6  5    52.29
  24      1.27977213    -0.75097475  -225.81337235     0.00000000    -0.00000000  0.90D-17  0.50D-17  6  6    54.52
  25      1.27977213    -0.75097475  -225.81337235     0.00000000    -0.00000000  0.15D-17  0.14D-17  6  3    56.76
  26      1.27977213    -0.75097475  -225.81337235    -0.00000000    -0.00000000  0.37D-18  0.42D-18  6  1    59.00
  27      1.27977213    -0.75097475  -225.81337235     0.00000000    -0.00000000  0.41D-19  0.55D-19  6  2    61.23
  28      1.27977213    -0.75097475  -225.81337235     0.00000000    -0.00000000  0.16D-19  0.15D-19  6  4    63.47
  29      1.27977213    -0.75097475  -225.81337235     0.00000000    -0.00000000  0.11D-19  0.45D-20  6  5    65.71

 Norm of t1 vector:      0.11115538      S-energy:     0.00000000      T1 diagnostic:  0.01541448
                                                                       D1 diagnostic:  0.04945528

 Doubles amplitudes (print threshold =  0.500E-01):

         I         J         SYM. A    SYM. B    A         B      T(IJ, AB)

        11        11         1         1         2         2     -0.05745543


 Total CPU time for triples:     32.30 sec


 RESULTS
 =======

  Reference energy                   -225.062397600100
  CCSD singlet pair energy             -0.516899889504
  CCSD triplet pair energy             -0.234074864417
  CCSD correlation energy              -0.750974753921

  Triples (T) contribution             -0.026301619554
  Total correlation energy             -0.777276373475

  CCSD total energy                  -225.813372354021
  CCSD[T] energy                     -225.841281936204
  CCSD-T energy                      -225.839182089829
 !CCSD(T) total energy               -225.839673973575

 Timing summary (sec):

 STEP                 CPU(USER)    SYS     CPU(TOT)    WALL
 Transformation          1.00      0.12      1.12      1.13
 CCSD iterations        64.71      1.83     66.54     66.60
 Triples                32.30      0.67     32.97     32.97

 Program statistics:

 Available memory in ccsd:               999999224
 Min. memory needed in ccsd:               2510565
 Max. memory used in ccsd:                 3320127
 Max. memory used in cckext:               2903072 (29 integral passes)



 **********************************************************************************************************************************
 DATASETS  * FILE   NREC   LENGTH (MB)   RECORD NAMES
              1      20      279.96       500      610      700      900      950      970     1000      129      960     1100   
                                          VAR    BASINP    GEOM    SYMINP    ZMAT    AOBASIS   BASIS     P2S    ABASIS      S 
                                         1400     1410     1200     1210     1080     1600     1650     1300     1700     1380   
                                           T        V       H0       H01     AOSYM     SMH    MOLCAS    ERIS     OPER     JKOP   

              2       3        0.72       700     1000     2100   
                                         GEOM     BASIS     RHF  

 PROGRAMS   *        TOTAL   CCSD(T)       RHF       INT
 CPU TIMES  *       105.16     98.02      5.34      1.76
 REAL TIME  *       109.01 SEC
 DISK USED  *       778.08 MB      
 GA USED    *         0.00 MB       (max)       0.00 MB       (current)
 **********************************************************************************************************************************

        CCSD(T)         RHF-SCF 
   -225.83967397   -225.06239760
 **********************************************************************************************************************************
 Variable memory released
