
 Primary working directories    : /tmp/943420.166.gen4.q
 Secondary working directories  : /tmp/943420.166.gen4.q
 Wavefunction directory         : /home/vulcan/mel64643/wfu/
 Main file repository           : /tmp/943420.166.gen4.q/

 ARCHNAME  : Linux/x86_64
 FC        : /opt/intel/compilers_and_libraries_2016.1.150/linux/bin/intel64/ifort
 FCVERSION : 16.0.1
 BLASLIB   : -mkl
 id        : ccgc

 Nodes     nprocs
 n066         1
 ga_uses_ma=false, calling ma_init with nominal heap.
 GA-space will be limited to   8.0 MW (determined by -G option)

 Using customized tuning parameters: mindgm=10; mindgv=16; mindgc=4; mindgr=1; noblas=0; mincuda=1000; minvec=7
 default implementation of scratch files=df  

 ***,Optimization of nh3_nitrosmethane
 memory,1000,m
 gthresh,energy=1.0d-12,orbital=1.0d-10,oneint=1.0d-16,twoint=1.0d-16,optgrad=1.0d-6,compress=1.0d-13
 geomtyp=xyz
 
 bohr
 geometry = {
  N   -5.2252812843   -0.1829929496   -0.0003787037
  H   -6.2994142296    0.2323568057   -1.5347382344
  H   -3.7609396596    1.0600922768   -0.0000109623
  H   -6.2998031535    0.2319071808    1.5338301501
  H   -0.9224194680   -2.4030124255    0.0044429916
  H    1.8858597536   -3.4269878509   -1.6666175656
  H    1.8844364002   -3.4450448165    1.6667092684
  C    1.1381329959   -2.4721708815    0.0049481182
  N    2.2674232896    0.0961521668   -0.0042438615
  O    0.6961238458    1.7867575028   -0.0039412008
 }
 
 basis=aug-cc-pvdz, H=cc-pvdz
 {rhf;maxit,200}
 {ccsd(t);maxit,200}

 Variables initialized (661), CPU time= 0.00 sec
 Commands  initialized (458), CPU time= 0.01 sec, 486 directives.
 Default parameters read. Elapsed time= 0.05 sec

 Checking input...
 Passed
1


                                         ***  PROGRAM SYSTEM MOLPRO  ***
                         Copyright, University College Cardiff Consultants Limited, 2008

                                    Version 2010.1 linked May 16 2016 07:17:05


 **********************************************************************************************************************************
 LABEL *   Optimization of nh3_nitrosmethane                                             
 Linux-4.4.3/n066(x86_64) 64 bit mpp version                                             DATE: 26-Oct-23          TIME: 07:35:34  
 **********************************************************************************************************************************

 SHA1:             9e8077add272b0f3cad6f7df79ec5211205f459d
 **********************************************************************************************************************************

 THRESHOLDS:

 ZERO    =  1.00D-12  ONEINT  =  1.00D-16  TWOINT  =  1.00D-16  PREFAC  =  1.00D-14  LOCALI  =  1.00D-09  EORDER  =  1.00D-04
 ENERGY  =  1.00D-12  ETEST   =  0.00D+00  EDENS   =  0.00D+00  THRDEDEF=  1.00D-06  GRADIENT=  1.00D-02  STEP    =  1.00D-03
 ORBITAL =  1.00D-10  CIVEC   =  1.00D-05  COEFF   =  1.00D-04  PRINTCI =  5.00D-02  PUNCHCI =  9.90D+01  OPTGRAD =  1.00D-06
 OPTENERG=  1.00D-06  OPTSTEP =  3.00D-04  THRGRAD =  1.00D-10  COMPRESS=  1.00D-13  VARMIN  =  1.00D-07  VARMAX  =  1.00D-03
 THRDOUB =  0.00D+00  THRDIV  =  1.00D-05  THRRED  =  1.00D-07  THRPSP  =  1.00D+00  THRDC   =  1.00D-10  THRCS   =  1.00D-10
 THRNRM  =  1.00D-08  THREQ   =  0.00D+00  THRDE   =  1.00D+00  THRREF  =  1.00D-05  SPARFAC =  1.00D+00  THRDLP  =  1.00D-07
 THRDIA  =  1.00D-10  THRDLS  =  1.00D-07  THRGPS  =  0.00D+00  THRKEX  =  0.00D+00  THRDIS  =  2.00D-01  THRVAR  =  1.00D-10
 THRLOC  =  1.00D-06  THRGAP  =  1.00D-06  THRLOCT = -1.00D+00  THRGAPT = -1.00D+00  THRORB  =  1.00D-06  THRMLTP =  0.00D+00
 THRCPQCI=  1.00D-10  KEXTA   =  0.00D+00  THRCOARS=  0.00D+00  SYMTOL  =  1.00D-06  GRADTOL =  1.00D-06  THROVL  =  1.00D-08
 THRORTH =  1.00D-08  GRID    =  1.00D-06  GRIDMAX =  1.00D-03  DTMAX   =  0.00D+00

 SETTING GEOMTYP        =    XYZ
 ZUNIT=BOHR
 

 Variable memory set to 1000000000 words,  buffer space   230000 words

 SETTING BASIS          =    AUG-CC-PVDZ,H=CC-PVDZ


 Recomputing integrals since basis changed


 Using spherical harmonics

 Library entry N      S aug-cc-pVDZ          selected for orbital group  1
 Library entry N      P aug-cc-pVDZ          selected for orbital group  1
 Library entry N      D aug-cc-pVDZ          selected for orbital group  1
 Library entry H      S cc-pVDZ              selected for orbital group  2
 Library entry H      P cc-pVDZ              selected for orbital group  2
 Library entry C      S aug-cc-pVDZ          selected for orbital group  3
 Library entry C      P aug-cc-pVDZ          selected for orbital group  3
 Library entry C      D aug-cc-pVDZ          selected for orbital group  3
 Library entry O      S aug-cc-pVDZ          selected for orbital group  5
 Library entry O      P aug-cc-pVDZ          selected for orbital group  5
 Library entry O      D aug-cc-pVDZ          selected for orbital group  5

1PROGRAM * SEWARD (Integral evaluation for generally contracted gaussian basis sets)     Author: Roland Lindh, 1990

 Geometry written to block  1 of record 700


 Point group  C1  



 ATOMIC COORDINATES

 NR  ATOM    CHARGE       X              Y              Z

   1  N       7.00   -5.225281284   -0.182992950   -0.000378704
   2  H       1.00   -6.299414230    0.232356806   -1.534738234
   3  H       1.00   -3.760939660    1.060092277   -0.000010962
   4  H       1.00   -6.299803154    0.231907181    1.533830150
   5  H       1.00   -0.922419468   -2.403012426    0.004442992
   6  H       1.00    1.885859754   -3.426987851   -1.666617566
   7  H       1.00    1.884436400   -3.445044816    1.666709268
   8  C       6.00    1.138132996   -2.472170881    0.004948118
   9  N       7.00    2.267423290    0.096152167   -0.004243862
  10  O       8.00    0.696123846    1.786757503   -0.003941201

 Bond lengths in Bohr (Angstrom)

 1-2  1.918472354  1-3  1.920822066  1-4  1.918472354  5-8  2.061712784  6-8  2.065164058
     ( 1.015211846)     ( 1.016455260)     ( 1.015211846)     ( 1.091011417)     ( 1.092837752)

  7- 8  2.065164058   8- 9  2.805648649   9-10  2.308057286
       ( 1.092837752)       ( 1.484685321)       ( 1.221371313)

 Bond angles

  2-1-3  106.67095379   2-1-4  106.21107417   3-1-4  106.67095379   5-8-6  112.15870611

  5-8-7  112.15870102   5-8-9  111.81259324   6-8-7  107.61715626   6-8-9  105.95305143

  7- 8- 9  106.76333339   8- 9-10  113.35946296

 NUCLEAR CHARGE:                   34
 NUMBER OF PRIMITIVE AOS:         190
 NUMBER OF SYMMETRY AOS:          182
 NUMBER OF CONTRACTIONS:          122   ( 122A   )
 NUMBER OF CORE ORBITALS:           4   (   4A   )
 NUMBER OF VALENCE ORBITALS:       22   (  22A   )


 NUCLEAR REPULSION ENERGY  117.25092352


 Eigenvalues of metric

         1 0.470E-03 0.143E-02 0.196E-02 0.432E-02 0.527E-02 0.750E-02 0.800E-02 0.857E-02


 Contracted 2-electron integrals neglected if value below      1.0D-16
 AO integral compression algorithm  1   Integral accuracy      1.0D-16

     236.192 MB (compressed) written to integral file ( 87.8%)

     Node minimum: 236.192 MB, node maximum: 236.192 MB


 NUMBER OF SORTED TWO-ELECTRON INTEGRALS:   28151256.     BUFFER LENGTH:  32768
 NUMBER OF SEGMENTS:   2  SEGMENT LENGTH:   15997996      RECORD LENGTH: 524288

 Memory used in sort:      16.56 MW

 SORT1 READ    33603370. AND WROTE    27858938. INTEGRALS IN     81 RECORDS. CPU TIME:     0.34 SEC, REAL TIME:     0.51 SEC
 SORT2 READ    27858938. AND WROTE    28151256. INTEGRALS IN    901 RECORDS. CPU TIME:     0.27 SEC, REAL TIME:     0.39 SEC

 FILE SIZES:   FILE 1:   203.0 MBYTE,  FILE 4:   339.8 MBYTE,   TOTAL:    542.8 MBYTE

 OPERATOR DM      FOR CENTER  0  COORDINATES:    0.000000    0.000000    0.000000


 **********************************************************************************************************************************
 DATASETS  * FILE   NREC   LENGTH (MB)   RECORD NAMES
              1      19      203.22       500      610      700      900      950      970     1000      129      960     1100   
                                          VAR    BASINP    GEOM    SYMINP    ZMAT    AOBASIS   BASIS     P2S    ABASIS      S 
                                         1400     1410     1200     1210     1080     1600     1650     1300     1700   
                                           T        V       H0       H01     AOSYM     SMH    MOLCAS    ERIS     OPER   

 PROGRAMS   *        TOTAL       INT
 CPU TIMES  *         2.14      2.10
 REAL TIME  *         2.74 SEC
 DISK USED  *       779.79 MB      
 GA USED    *         0.00 MB       (max)       0.00 MB       (current)
 **********************************************************************************************************************************

1PROGRAM * RHF-SCF (CLOSED SHELL)       Authors: W. Meyer, H.-J. Werner


 NUMBER OF ELECTRONS:      17+   17-    SPACE SYMMETRY=1    SPIN SYMMETRY: Singlet 
 CONVERGENCE THRESHOLDS:    1.00E-10 (Density)    1.00E-13 (Energy)
 MAX. NUMBER OF ITERATIONS:      200
 INTERPOLATION TYPE:            DIIS
 INTERPOLATION STEPS:              2 (START)      1 (STEP)
 LEVEL SHIFTS:                  0.00 (CLOSED)  0.00 (OPEN) 



 Orbital guess generated from atomic densities. Full valence occupancy:   26

 Molecular orbital dump at record        2100.2

 ITERATION    DDIFF          GRAD             ENERGY        2-EL.EN.            DIPOLE MOMENTS         DIIS
    1      0.000D+00      0.000D+00      -224.96341415    392.830623    0.08287   -0.59420    0.00134    0
    2      0.000D+00      0.713D-02      -225.02390756    392.453401   -0.58440   -0.37682    0.00417    1
    3      0.133D-01      0.504D-02      -225.05884887    393.004562   -0.23007   -0.56584    0.00332    2
    4      0.579D-02      0.100D-02      -225.06115536    392.839634   -0.30903   -0.46624    0.00339    3
    5      0.148D-02      0.395D-03      -225.06158707    392.850369   -0.30676   -0.49575    0.00348    4
    6      0.644D-03      0.956D-04      -225.06162980    392.877968   -0.31212   -0.49289    0.00349    5
    7      0.218D-03      0.364D-04      -225.06163591    392.861779   -0.31374   -0.49297    0.00349    6
    8      0.864D-04      0.149D-04      -225.06163693    392.868262   -0.31475   -0.49288    0.00349    7
    9      0.335D-04      0.647D-05      -225.06163716    392.867083   -0.31504   -0.49257    0.00349    8
   10      0.189D-04      0.200D-05      -225.06163718    392.866792   -0.31513   -0.49238    0.00349    8
   11      0.588D-05      0.669D-06      -225.06163719    392.866898   -0.31514   -0.49229    0.00349    8
   12      0.191D-05      0.203D-06      -225.06163719    392.866862   -0.31514   -0.49226    0.00349    8
   13      0.709D-06      0.655D-07      -225.06163719    392.866856   -0.31515   -0.49226    0.00349    8
   14      0.175D-06      0.340D-07      -225.06163719    392.866858   -0.31515   -0.49226    0.00349    9
   15      0.853D-07      0.883D-08      -225.06163719    392.866858   -0.31515   -0.49226    0.00349    8
   16      0.239D-07      0.660D-08      -225.06163719    392.866858   -0.31515   -0.49226    0.00349    7
   17      0.420D-07      0.343D-08      -225.06163719    392.866858   -0.31515   -0.49226    0.00349    8
   18      0.325D-07      0.110D-08      -225.06163719    392.866858   -0.31515   -0.49226    0.00349    9
   19      0.797D-08      0.270D-09      -225.06163719    392.866858   -0.31515   -0.49226    0.00349    9
   20      0.994D-09      0.878D-10      -225.06163719    392.866858   -0.31515   -0.49226    0.00349    9
   21      0.242D-09      0.291D-10      -225.06163719    392.866858   -0.31515   -0.49226    0.00349    9
   22      0.730D-10      0.105D-10      -225.06163719    392.866858   -0.31515   -0.49226    0.00349    8
   23      0.266D-10      0.465D-11      -225.06163719    392.866858   -0.31515   -0.49226    0.00349    9
   24      0.120D-10      0.199D-11      -225.06163719    392.866858   -0.31515   -0.49226    0.00349    8
   25      0.452D-11      0.120D-11      -225.06163719    392.866858   -0.31515   -0.49226    0.00349    9
   26      0.291D-11      0.348D-12      -225.06163719    392.866858   -0.31515   -0.49226    0.00349    9
   27      0.115D-11      0.116D-12      -225.06163719    392.866858   -0.31515   -0.49226    0.00349    9
   28      0.111D-11      0.739D-13      -225.06163719    392.866858   -0.31515   -0.49226    0.00349    9
   29      0.529D-12      0.627D-13      -225.06163719    392.866858   -0.31515   -0.49226    0.00349    9
   30      0.637D-12      0.484D-13      -225.06163719    392.866858   -0.31515   -0.49226    0.00349    9
   31      0.588D-12      0.513D-13      -225.06163719    392.866858   -0.31515   -0.49226    0.00349    9
   32      0.448D-12      0.459D-13      -225.06163719    392.866858   -0.31515   -0.49226    0.00349    9
   33      0.302D-12      0.365D-13      -225.06163719    392.866858   -0.31515   -0.49226    0.00349    9
   34      0.254D-12      0.404D-13      -225.06163719    392.866858   -0.31515   -0.49226    0.00349    9
   35      0.257D-12      0.357D-13      -225.06163719    392.866858   -0.31515   -0.49226    0.00349    9
   36      0.194D-12      0.294D-13      -225.06163719    392.866858   -0.31515   -0.49226    0.00349    9
   37      0.132D-12      0.382D-13      -225.06163719    392.866858   -0.31515   -0.49226    0.00349    9
   38      0.208D-12      0.287D-13      -225.06163719    392.866858   -0.31515   -0.49226    0.00349    9
   39      0.965D-13      0.320D-13      -225.06163719    392.866858   -0.31515   -0.49226    0.00349    9
   40      0.708D-13      0.314D-13      -225.06163719    392.866858   -0.31515   -0.49226    0.00349    9
   41      0.155D-12      0.293D-13      -225.06163719    392.866858   -0.31515   -0.49226    0.00349    0

 Final occupancy:  17

 !RHF STATE 1.1 Energy               -225.061637185947
 Nuclear energy                       117.25092352
 One-electron energy                 -538.74598983
 Two-electron energy                  196.43342912
 Virial quotient                       -1.00228877
 !RHF STATE 1.1 Dipole moment          -0.31514673    -0.49225624     0.00349283
 Dipole moment /Debye                  -0.80097062    -1.25110862     0.00887731

 Orbital energies:

         1.1          2.1          3.1          4.1          5.1          6.1          7.1          8.1          9.1         10.1
    -20.640616   -15.715656   -15.548767   -11.271932    -1.510848    -1.139915    -1.076998    -0.862755    -0.690012    -0.675189

        11.1         12.1         13.1         14.1         15.1         16.1         17.1         18.1         19.1
     -0.635406    -0.623765    -0.623060    -0.555508    -0.533374    -0.428084    -0.407680     0.077376     0.083120


 **********************************************************************************************************************************
 DATASETS  * FILE   NREC   LENGTH (MB)   RECORD NAMES
              1      19      203.22       500      610      700      900      950      970     1000      129      960     1100   
                                          VAR    BASINP    GEOM    SYMINP    ZMAT    AOBASIS   BASIS     P2S    ABASIS      S 
                                         1400     1410     1200     1210     1080     1600     1650     1300     1700   
                                           T        V       H0       H01     AOSYM     SMH    MOLCAS    ERIS     OPER   

              2       3        0.72       700     1000     2100   
                                         GEOM     BASIS     RHF  

 PROGRAMS   *        TOTAL       RHF       INT
 CPU TIMES  *        11.34      9.20      2.10
 REAL TIME  *        12.99 SEC
 DISK USED  *       779.79 MB      
 GA USED    *         0.00 MB       (max)       0.00 MB       (current)
 **********************************************************************************************************************************


1PROGRAM * CCSD (Closed-shell coupled cluster)     Authors: C. Hampel, H.-J. Werner, 1991, M. Deegan, P.J. Knowles, 1992


 Convergence thresholds:  THRVAR = 1.00D-08  THRDEN = 1.00D-12

 CCSD(T)     terms to be evaluated (factor= 1.000)


 Number of core orbitals:           4 (   4 )
 Number of closed-shell orbitals:  13 (  13 )
 Number of external orbitals:     105 ( 105 )

 Molecular orbitals read from record     2100.2  Type=RHF/CANONICAL (state 1.1)

 Number of N-1 electron functions:              13
 Number of N-2 electron functions:              91
 Number of singly external CSFs:              1365
 Number of doubly external CSFs:            932295
 Total number of CSFs:                      933661

 Length of J-op  integral file:               0.00 MB
 Length of K-op  integral file:               1.06 MB
 Length of 3-ext integral record:             0.00 MB

 Memory could be reduced to 20.68 Mwords without degradation in triples

 Integral transformation finished. Total CPU:   1.26 sec, npass=  1  Memory used:  15.40 MW

 Reference energy:                   -225.06163719

 MP2 singlet pair energy:              -0.44914738
 MP2 triplet pair energy:              -0.26502446
 MP2 correlation energy:               -0.71417184
 MP2 total energy:                   -225.77580902

 SCS-MP2 correlation energy:           -0.70388096   (PS=  1.200000  PT=  0.333333)
 SCS-MP2 total energy:               -225.76551815

 ITER.      SQ.NORM     CORR.ENERGY   TOTAL ENERGY   ENERGY CHANGE        DEN1      VAR(S)    VAR(P)  DIIS     TIME
   1      1.24215865    -0.74797260  -225.80960978    -0.03380076    -0.00982923  0.53D-02  0.50D-02  1  1     3.89
   2      1.26405769    -0.75102602  -225.81266321    -0.00305343    -0.02121277  0.17D-03  0.88D-03  2  2     6.54
   3      1.27421474    -0.75174787  -225.81338505    -0.00072184    -0.00466465  0.13D-03  0.63D-04  3  3     9.20
   4      1.27845009    -0.75171249  -225.81334968     0.00003538    -0.00139384  0.11D-04  0.11D-04  4  4    11.87
   5      1.28015344    -0.75173155  -225.81336874    -0.00001906    -0.00037012  0.20D-05  0.17D-05  5  5    14.55
   6      1.28062590    -0.75169958  -225.81333677     0.00003197    -0.00005618  0.16D-06  0.33D-06  6  6    17.22
   7      1.28072787    -0.75169680  -225.81333399     0.00000278    -0.00000376  0.34D-07  0.87D-07  6  2    19.90
   8      1.28075142    -0.75169754  -225.81333472    -0.00000073    -0.00000022  0.44D-08  0.21D-07  6  1    22.57
   9      1.28075179    -0.75169686  -225.81333405     0.00000068     0.00000438  0.26D-08  0.33D-08  6  4    25.24
  10      1.28075425    -0.75169767  -225.81333486    -0.00000081    -0.00000126  0.53D-09  0.46D-09  6  3    27.92
  11      1.28075218    -0.75169788  -225.81333506    -0.00000020     0.00000042  0.18D-09  0.82D-10  6  5    30.59
  12      1.28075068    -0.75169795  -225.81333514    -0.00000007     0.00000032  0.41D-10  0.18D-10  6  6    33.26
  13      1.28074902    -0.75169808  -225.81333526    -0.00000012     0.00000040  0.60D-11  0.42D-11  6  1    35.93
  14      1.28074831    -0.75169809  -225.81333528    -0.00000001     0.00000018  0.16D-11  0.62D-12  6  2    38.60
  15      1.28074805    -0.75169810  -225.81333528    -0.00000001     0.00000005  0.45D-12  0.11D-12  6  4    41.28
  16      1.28074798    -0.75169810  -225.81333529    -0.00000001     0.00000001  0.24D-12  0.40D-13  6  3    43.95
  17      1.28074796    -0.75169810  -225.81333529     0.00000000    -0.00000000  0.14D-12  0.17D-13  6  6    46.63
  18      1.28074796    -0.75169810  -225.81333529    -0.00000000    -0.00000000  0.77D-13  0.92D-14  6  5    49.29
  19      1.28074797    -0.75169810  -225.81333529     0.00000000    -0.00000000  0.34D-13  0.54D-14  6  2    51.96
  20      1.28074796    -0.75169810  -225.81333529    -0.00000000     0.00000000  0.98D-14  0.23D-14  6  1    54.64
  21      1.28074797    -0.75169810  -225.81333529     0.00000000    -0.00000000  0.13D-14  0.77D-15  6  3    57.32
  22      1.28074797    -0.75169810  -225.81333529     0.00000000     0.00000000  0.19D-15  0.17D-15  6  4    59.99
  23      1.28074797    -0.75169810  -225.81333529    -0.00000000    -0.00000000  0.26D-16  0.35D-16  6  5    62.66
  24      1.28074797    -0.75169810  -225.81333529     0.00000000    -0.00000000  0.72D-17  0.99D-17  6  6    65.33
  25      1.28074797    -0.75169810  -225.81333529     0.00000000    -0.00000000  0.21D-17  0.33D-17  6  2    68.01
  26      1.28074797    -0.75169810  -225.81333529    -0.00000000     0.00000000  0.42D-18  0.11D-17  6  4    70.68
  27      1.28074797    -0.75169810  -225.81333529    -0.00000000     0.00000000  0.19D-18  0.15D-18  6  1    73.35
  28      1.28074797    -0.75169810  -225.81333529    -0.00000000     0.00000000  0.10D-18  0.32D-19  6  3    76.02

 Norm of t1 vector:      0.11211745      S-energy:    -0.00000000      T1 diagnostic:  0.01554789
                                                                       D1 diagnostic:  0.05047101

 Doubles amplitudes (print threshold =  0.500E-01):

         I         J         SYM. A    SYM. B    A         B      T(IJ, AB)

        11        11         1         1         2         2     -0.06230909


 Total CPU time for triples:     38.89 sec


 RESULTS
 =======

  Reference energy                   -225.061637185947
  CCSD singlet pair energy             -0.517497336184
  CCSD triplet pair energy             -0.234200764329
  CCSD correlation energy              -0.751698100515

  Triples (T) contribution             -0.026449598314
  Total correlation energy             -0.778147698829

  CCSD total energy                  -225.813335286462
  CCSD[T] energy                     -225.841422694387
  CCSD-T energy                      -225.839289815613
 !CCSD(T) total energy               -225.839784884777

 Timing summary (sec):

 STEP                 CPU(USER)    SYS     CPU(TOT)    WALL
 Transformation          1.30      0.13      1.43      1.44
 CCSD iterations        74.72      2.05     76.77     76.88
 Triples                38.89      0.74     39.63     39.65

 Program statistics:

 Available memory in ccsd:               999999224
 Min. memory needed in ccsd:               2510565
 Max. memory used in ccsd:                 3320127
 Max. memory used in cckext:               2903072 (28 integral passes)



 **********************************************************************************************************************************
 DATASETS  * FILE   NREC   LENGTH (MB)   RECORD NAMES
              1      20      280.62       500      610      700      900      950      970     1000      129      960     1100   
                                          VAR    BASINP    GEOM    SYMINP    ZMAT    AOBASIS   BASIS     P2S    ABASIS      S 
                                         1400     1410     1200     1210     1080     1600     1650     1300     1700     1380   
                                           T        V       H0       H01     AOSYM     SMH    MOLCAS    ERIS     OPER     JKOP   

              2       3        0.72       700     1000     2100   
                                         GEOM     BASIS     RHF  

 PROGRAMS   *        TOTAL   CCSD(T)       RHF       INT
 CPU TIMES  *       126.26    114.92      9.20      2.10
 REAL TIME  *       131.00 SEC
 DISK USED  *       779.79 MB      
 GA USED    *         0.00 MB       (max)       0.00 MB       (current)
 **********************************************************************************************************************************

        CCSD(T)         RHF-SCF 
   -225.83978488   -225.06163719
 **********************************************************************************************************************************
 Variable memory released
