
    -----------------------------------------------------------------------
          Psi4: An Open-Source Ab Initio Electronic Structure Package
                               Psi4 1.4a2.dev629 

                         Git: Rev {master} 2938fc2 dirty


    D. G. A. Smith, L. A. Burns, A. C. Simmonett, R. M. Parrish,
    M. C. Schieber, R. Galvelis, P. Kraus, H. Kruse, R. Di Remigio,
    A. Alenaizan, A. M. James, S. Lehtola, J. P. Misiewicz, M. Scheurer,
    R. A. Shaw, J. B. Schriber, Y. Xie, Z. L. Glick, D. A. Sirianni,
    J. S. O'Brien, J. M. Waldrop, A. Kumar, E. G. Hohenstein,
    B. P. Pritchard, B. R. Brooks, H. F. Schaefer III, A. Yu. Sokolov,
    K. Patkowski, A. E. DePrince III, U. Bozkaya, R. A. King,
    F. A. Evangelista, J. M. Turney, T. D. Crawford, C. D. Sherrill,
    J. Chem. Phys. 152(18) 184108 (2020). https://doi.org/10.1063/5.0006002

                            Additional Code Authors
    E. T. Seidl, C. L. Janssen, E. F. Valeev, M. L. Leininger,
    J. F. Gonthier, R. M. Richard, H. R. McAlexander, M. Saitow, X. Wang,
    P. Verma, and M. H. Lechner

             Previous Authors, Complete List of Code Contributors,
                       and Citations for Specific Modules
    https://github.com/psi4/psi4/blob/master/codemeta.json
    https://github.com/psi4/psi4/graphs/contributors
    http://psicode.org/psi4manual/master/introduction.html#citing-psifour

    -----------------------------------------------------------------------


    Psi4 started on: Monday, 01 November 2021 05:52PM

    Process ID: 7141
    Host:       n067
    PSIDATADIR: /opt/psi/4/master/share/psi4
    Memory:     500.0 MiB
    Threads:    1
    
  ==> Input File <==

--------------------------------------------------------------------------
import os
memory 14 GB 
 
molecule {
 C   -2.3777043093    0.4726655700   -0.0002289128
 C    0.0162577152   -1.0900391456   -0.0003875023
 H   -2.4405600110    1.6778054623    1.6698964976
 H   -2.4428487710    1.6749621759   -1.6740028802
 H   -4.0388003788   -0.7492888420    0.0021991580
 H    0.0720565144   -2.3099056753    1.6712992480
 H    0.0604404399   -2.3088497664   -1.6760583929
 O    2.0949610872    0.6162817336    0.0029485595
 H    3.6111896834   -0.3753434824    0.0043345851
units bohr
}

basis {

assign 6-31g_2dfp_

[ 6-31g_2dfp_ ]

spherical

!----------------------------------------------------------------------
! Basis Set Exchange
! Version v0.8.13
! https://www.basissetexchange.org
!----------------------------------------------------------------------
!   Basis set: 6-31G(2df,p)
! Description: 6-31G(2df,p)
!        Role: orbital
!     Version: 0  (Data from the original Basis Set Exchange)
!----------------------------------------------------------------------


****
H     0
S    3   1.00
     18.7311370              0.03349460
      2.8253937              0.23472695
      0.6401217              0.81375733
S    1   1.00
      0.1612778              1.00000000
P    1   1.00
      1.5000000              1.0000000
P    1   1.00
      0.3750000              1.0000000
****
B     0
S    6   1.00
   2068.8823000              0.0018663
    310.6495700              0.0142515
     70.6830330              0.0695516
     19.8610800              0.2325729
      6.2993048              0.4670787
      2.1270270              0.3634314
SP   3   1.00
      4.7279710             -0.1303938              0.0745976
      1.1903377             -0.1307889              0.3078467
      0.3594117              1.1309444              0.7434568
SP   1   1.00
      0.1267512              1.0000000              1.0000000
D    1   1.00
      0.8020000              1.0000000
D    1   1.00
      0.2005000              1.0000000
F    1   1.00
      0.5000000              1.0000000
****
C     0
S    6   1.00
   3047.5249000              0.0018347
    457.3695100              0.0140373
    103.9486900              0.0688426
     29.2101550              0.2321844
      9.2866630              0.4679413
      3.1639270              0.3623120
SP   3   1.00
      7.8682724             -0.1193324              0.0689991
      1.8812885             -0.1608542              0.3164240
      0.5442493              1.1434564              0.7443083
SP   1   1.00
      0.1687144              1.0000000              1.0000000
D    1   1.00
      1.2520000              1.0000000
D    1   1.00
      0.3130000              1.0000000
F    1   1.00
      0.8000000              1.0000000
****
N     0
S    6   1.00
   4173.5110000              0.0018348
    627.4579000              0.0139950
    142.9021000              0.0685870
     40.2343300              0.2322410
     12.8202100              0.4690700
      4.3904370              0.3604550
SP   3   1.00
     11.6263580             -0.1149610              0.0675800
      2.7162800             -0.1691180              0.3239070
      0.7722180              1.1458520              0.7408950
SP   1   1.00
      0.2120313              1.0000000              1.0000000
D    1   1.00
      1.8260000              1.0000000
D    1   1.00
      0.4565000              1.0000000
F    1   1.00
      1.0000000              1.0000000
****
O     0
S    6   1.00
   5484.6717000              0.0018311
    825.2349500              0.0139501
    188.0469600              0.0684451
     52.9645000              0.2327143
     16.8975700              0.4701930
      5.7996353              0.3585209
SP   3   1.00
     15.5396160             -0.1107775              0.0708743
      3.5999336             -0.1480263              0.3397528
      1.0137618              1.1307670              0.7271586
SP   1   1.00
      0.2700058              1.0000000              1.0000000
D    1   1.00
      2.5840000              1.0000000
D    1   1.00
      0.6460000              1.0000000
F    1   1.00
      1.4000000              1.0000000
****
F     0
S    6   1.00
   7001.7130900              0.0018196169
   1051.3660900              0.0139160796
    239.2856900              0.0684053245
     67.3974453              0.233185760
     21.5199573              0.471267439
      7.40310130             0.356618546
SP   3   1.00
     20.8479528             -0.108506975            0.0716287243
      4.80830834            -0.146451658            0.3459121030
      1.34406986             1.128688580            0.7224699570
SP   1   1.00
      0.358151393            1.0000000              1.0000000
D    1   1.00
      3.5000000              1.0000000
D    1   1.00
      0.8750000              1.0000000
F    1   1.00
      1.8500000              1.0000000
****
Al     0
S    6   1.00
  13983.1000000              0.00194267
   2098.7500000              0.0148599
    477.7050000              0.0728494
    134.3600000              0.2468300
     42.8709000              0.4872580
     14.5189000              0.3234960
SP   6   1.00
    239.6680000             -0.00292619             0.00460285
     57.4419000             -0.0374080              0.0331990
     18.2859000             -0.1144870              0.1362820
      6.5991400              0.1156350              0.3304760
      2.4904900              0.6125950              0.4491460
      0.9445400              0.3937990              0.2657040
SP   3   1.00
      1.2779000             -0.2276060             -0.0175130
      0.3975900              0.00144583             0.2445330
      0.1600950              1.0927900              0.8049340
SP   1   1.00
      0.0556577              1.0000000              1.0000000
D    1   1.00
      0.6500000              1.0000000
D    1   1.00
      0.1625000              1.0000000
F    1   1.00
      0.2500000              1.0000000
****
Si     0
S    6   1.00
  16115.9000000              0.00195948
   2425.5800000              0.01492880
    553.8670000              0.07284780
    156.3400000              0.24613000
     50.0683000              0.48591400
     17.0178000              0.32500200
SP   6   1.00
    292.7180000             -0.00278094             0.00443826
     69.8731000             -0.03571460             0.03266790
     22.3363000             -0.11498500             0.13472100
      8.1503900              0.09356340             0.32867800
      3.1345800              0.60301700             0.44964000
      1.2254300              0.41895900             0.26137200
SP   3   1.00
      1.7273800             -0.24463000            -0.01779510
      0.5729220              0.00431572             0.25353900
      0.2221920              1.09818000             0.80066900
SP   1   1.00
      0.0778369              1.00000000             1.00000000
D    1   1.00
      0.9000000              1.0000000
D    1   1.00
      0.2250000              1.0000000
F    1   1.00
      0.3200000              1.0000000
****
P     0
S    6   1.00
  19413.3000000              0.0018516
   2909.4200000              0.0142062
    661.3640000              0.0699995
    185.7590000              0.2400790
     59.1943000              0.4847620
     20.0310000              0.3352000
SP   6   1.00
    339.4780000             -0.00278217             0.00456462
     81.0101000             -0.0360499              0.03369360
     25.8780000             -0.1166310              0.13975500
      9.4522100              0.0968328              0.33936200
      3.6656600              0.6144180              0.45092100
      1.4674600              0.4037980              0.23858600
SP   3   1.00
      2.1562300             -0.2529230             -0.01776530
      0.7489970              0.0328517              0.27405800
      0.2831450              1.0812500              0.78542100
SP   1   1.00
      0.0998317              1.0000000              1.00000000
D    1   1.00
      1.1000000              1.0000000
D    1   1.00
      0.2750000              1.0000000
F    1   1.00
      0.4500000              1.0000000
****
S     0
S    6   1.00
  21917.1000000              0.0018690
   3301.4900000              0.0142300
    754.1460000              0.0696960
    212.7110000              0.2384870
     67.9896000              0.4833070
     23.0515000              0.3380740
SP   6   1.00
    423.7350000             -0.0023767              0.0040610
    100.7100000             -0.0316930              0.0306810
     32.1599000             -0.1133170              0.1304520
     11.8079000              0.0560900              0.3272050
      4.6311000              0.5922550              0.4528510
      1.8702500              0.4550060              0.2560420
SP   3   1.00
      2.6158400             -0.2503740             -0.0145110
      0.9221670              0.0669570              0.3102630
      0.3412870              1.0545100              0.7544830
SP   1   1.00
      0.1171670              1.0000000              1.0000000
D    1   1.00
      1.3000000              1.0000000
D    1   1.00
      0.3250000              1.0000000
F    1   1.00
      0.5500000              1.0000000
****
Cl     0
S    6   1.00
  25180.1000000              0.0018330
   3780.3500000              0.0140340
    860.4740000              0.0690970
    242.1450000              0.2374520
     77.3349000              0.4830340
     26.2470000              0.3398560
SP   6   1.00
    491.7650000             -0.0022974              0.0039894
    116.9840000             -0.0307140              0.0303180
     37.4153000             -0.1125280              0.1298800
     13.7834000              0.0450160              0.3279510
      5.4521500              0.5893530              0.4535270
      2.2258800              0.4652060              0.2521540
SP   3   1.00
      3.1864900             -0.2518300             -0.0142990
      1.1442700              0.0615890              0.3235720
      0.4203770              1.0601800              0.7435070
SP   1   1.00
      0.1426570              1.0000000              1.0000000
D    1   1.00
      1.5000000              1.0000000
D    1   1.00
      0.3750000              1.0000000
F    1   1.00
      0.7000000              1.0000000
****
}


set {
reference rhf                          
freeze_core true
e_convergence 10                       
d_convergence 10                      
dft_spherical_points 1202
dft_radial_points 99
}

e = energy('b3lyp')

print_out('Grab this energy {0}'.format(e))
--------------------------------------------------------------------------

  Memory set to  13.039 GiB by Python driver.

Scratch directory: /tmp/

*** tstart() called on n067
*** at Mon Nov  1 17:52:02 2021

   => Loading Basis Set <=

    Name: ANONYMOUS8AB0C6A3
    Role: ORBITAL
    Keyword: BASIS
    atoms 1-2    entry C          line    48 inputblock 6-31g_2dfp_ 
    atoms 3-7, 9 entry H          line    15 inputblock 6-31g_2dfp_ 
    atoms 8      entry O          line    90 inputblock 6-31g_2dfp_ 


         ---------------------------------------------------------
                                   SCF
               by Justin Turney, Rob Parrish, Andy Simmonett
                          and Daniel G. A. Smith
                              RKS Reference
                        1 Threads,  13351 MiB Core
         ---------------------------------------------------------

  ==> Geometry <==

    Molecular point group: c1
    Full point group: C1

    Geometry (in Bohr), charge = 0, multiplicity = 1:

       Center              X                  Y                   Z               Mass       
    ------------   -----------------  -----------------  -----------------  -----------------
         C           -2.376668729246     0.471806265190    -0.001041541605    12.000000000000
         C            0.017293295254    -1.090898450410    -0.001200131105    12.000000000000
         H           -2.439524430946     1.676946157490     1.669083868795     1.007825032230
         H           -2.441813190946     1.674102871090    -1.674815509005     1.007825032230
         H           -4.037764798746    -0.750148146810     0.001386529195     1.007825032230
         H            0.073092094454    -2.310764980110     1.670486619195     1.007825032230
         H            0.061476019954    -2.309709071210    -1.676871021705     1.007825032230
         O            2.095996667254     0.615422428790     0.002135930695    15.994914619570
         H            3.612225263454    -0.376202787210     0.003521956295     1.007825032230

  Running in c1 symmetry.

  Rotational constants: A =      1.17081  B =      0.31529  C =      0.27390 [cm^-1]
  Rotational constants: A =  35100.01317  B =   9452.19055  C =   8211.23891 [MHz]
  Nuclear repulsion =   81.973530818905004

  Charge       = 0
  Multiplicity = 1
  Electrons    = 26
  Nalpha       = 13
  Nbeta        = 13

  ==> Algorithm <==

  SCF Algorithm Type is DF.
  DIIS enabled.
  MOM disabled.
  Fractional occupation disabled.
  Guess Type is SAD.
  Energy threshold   = 1.00e-10
  Density threshold  = 1.00e-10
  Integral threshold = 0.00e+00

  ==> Primary Basis <==

  Basis Set: ANONYMOUS8AB0C6A3
    Blend: 6-31G_2DFP_
    Number of shells: 48
    Number of basis function: 126
    Number of Cartesian functions: 141
    Spherical Harmonics?: true
    Max angular momentum: 3

  ==> DFT Potential <==

   => Composite Functional: B3LYP <= 

    B3LYP Hyb-GGA Exchange-Correlation Functional

    P. J. Stephens, F. J. Devlin, C. F. Chabalowski, and M. J. Frisch, J. Phys. Chem. 98, 11623 (1994)

    Deriv               =              1
    GGA                 =           TRUE
    Meta                =          FALSE

    Exchange Hybrid     =           TRUE
    MP2 Hybrid          =          FALSE

   => Exchange Functionals <=

    0.0800   Slater exchange
    0.7200         Becke 88

   => Exact (HF) Exchange <=

    0.2000               HF 

   => Correlation Functionals <=

    0.1900   Vosko, Wilk & Nusair (VWN5_RPA)
    0.8100   Lee, Yang & Parr

   => Molecular Quadrature <=

    Radial Scheme          =       TREUTLER
    Pruning Scheme         =           NONE
    Nuclear Scheme         =       TREUTLER

    BS radius alpha        =              1
    Pruning alpha          =              1
    Radial Points          =             99
    Spherical Points       =           1202
    Total Points           =        1008334
    Total Blocks           =           6741
    Max Points             =            256
    Max Functions          =            126
    Weights Tolerance      =       1.00E-15

   => Loading Basis Set <=

    Name: (ANONYMOUS8AB0C6A3 AUX)
    Role: JKFIT
    Keyword: DF_BASIS_SCF
    atoms 1-2    entry C          line   198 file /opt/psi/4/master/share/psi4/basis/def2-universal-jkfit.gbs 
    atoms 3-7, 9 entry H          line    18 file /opt/psi/4/master/share/psi4/basis/def2-universal-jkfit.gbs 
    atoms 8      entry O          line   318 file /opt/psi/4/master/share/psi4/basis/def2-universal-jkfit.gbs 

  ==> Integral Setup <==

  DFHelper Memory: AOs need 0.044 GiB; user supplied 6.691 GiB. Using in-core AOs.

  ==> MemDFJK: Density-Fitted J/K Matrices <==

    J tasked:                   Yes
    K tasked:                   Yes
    wK tasked:                   No
    OpenMP threads:               1
    Memory [MiB]:              6851
    Algorithm:                 Core
    Schwarz Cutoff:           1E-12
    Mask sparsity (%):       0.6803
    Fitting Condition:        1E-10

   => Auxiliary Basis Set <=

  Basis Set: (ANONYMOUS8AB0C6A3 AUX)
    Blend: DEF2-UNIVERSAL-JKFIT
    Number of shells: 111
    Number of basis function: 335
    Number of Cartesian functions: 391
    Spherical Harmonics?: true
    Max angular momentum: 4

  Cached 100.0% of DFT collocation blocks in 3.088 [GiB].

  Minimum eigenvalue in the overlap matrix is 1.8997017135E-03.
  Reciprocal condition number of the overlap matrix is 3.3273341447E-04.
    Using symmetric orthogonalization.

  ==> Pre-Iterations <==

  SCF Guess: Superposition of Atomic Densities via on-the-fly atomic UHF (no occupation information).

   -------------------------
    Irrep   Nso     Nmo    
   -------------------------
     A        126     126 
   -------------------------
    Total     126     126
   -------------------------

  ==> Iterations <==

                           Total Energy        Delta E     RMS |[F,P]|

   @DF-RKS iter SAD:  -154.49952394467559   -1.54500e+02   0.00000e+00 
   @DF-RKS iter   1:  -154.78732695680876   -2.87803e-01   5.88701e-03 DIIS
   @DF-RKS iter   2:  -154.61499024215783    1.72337e-01   7.73005e-03 DIIS
   @DF-RKS iter   3:  -155.04773200197189   -4.32742e-01   7.66284e-04 DIIS
   @DF-RKS iter   4:  -155.05080476353669   -3.07276e-03   3.26656e-04 DIIS
   @DF-RKS iter   5:  -155.05149582433657   -6.91061e-04   5.33278e-05 DIIS
   @DF-RKS iter   6:  -155.05151395212167   -1.81278e-05   1.24161e-05 DIIS
   @DF-RKS iter   7:  -155.05151495579702   -1.00368e-06   4.09843e-06 DIIS
   @DF-RKS iter   8:  -155.05151508237682   -1.26580e-07   5.21401e-07 DIIS
   @DF-RKS iter   9:  -155.05151508441310   -2.03627e-09   4.56922e-08 DIIS
   @DF-RKS iter  10:  -155.05151508443231   -1.92131e-11   1.04774e-08 DIIS
   @DF-RKS iter  11:  -155.05151508443339   -1.08002e-12   1.31951e-09 DIIS
   @DF-RKS iter  12:  -155.05151508443339    0.00000e+00   1.99713e-10 DIIS
   @DF-RKS iter  13:  -155.05151508443322    1.70530e-13   2.11489e-11 DIIS
  Energy and wave function converged.


  ==> Post-Iterations <==

    Orbital Energies [Eh]
    ---------------------

    Doubly Occupied:                                                      

       1A    -19.133645     2A    -10.221522     3A    -10.165098  
       4A     -1.010922     5A     -0.745173     6A     -0.605446  
       7A     -0.510548     8A     -0.461173     9A     -0.396282  
      10A     -0.378285    11A     -0.361086    12A     -0.327099  
      13A     -0.265058  

    Virtual:                                                              

      14A      0.073601    15A      0.106638    16A      0.147217  
      17A      0.151570    18A      0.165022    19A      0.186669  
      20A      0.206518    21A      0.230363    22A      0.430489  
      23A      0.437526    24A      0.469210    25A      0.470870  
      26A      0.478098    27A      0.512390    28A      0.554521  
      29A      0.570489    30A      0.590516    31A      0.601885  
      32A      0.604814    33A      0.638031    34A      0.642740  
      35A      0.663544    36A      0.703113    37A      0.785048  
      38A      0.831716    39A      0.859721    40A      0.865317  
      41A      0.947106    42A      0.994158    43A      1.025883  
      44A      1.079255    45A      1.105243    46A      1.133595  
      47A      1.160980    48A      1.205227    49A      1.206259  
      50A      1.255638    51A      1.287268    52A      1.325621  
      53A      1.342794    54A      1.388071    55A      1.408993  
      56A      1.420696    57A      1.457158    58A      1.468679  
      59A      1.481338    60A      1.503838    61A      1.629165  
      62A      1.730444    63A      1.756352    64A      1.798405  
      65A      1.864631    66A      1.876758    67A      1.996882  
      68A      2.051136    69A      2.062636    70A      2.218019  
      71A      2.339098    72A      2.654840    73A      2.807939  
      74A      2.845090    75A      2.896859    76A      2.906670  
      77A      2.939744    78A      2.987012    79A      3.055756  
      80A      3.138726    81A      3.154996    82A      3.213835  
      83A      3.265463    84A      3.363011    85A      3.445861  
      86A      3.477039    87A      3.508530    88A      3.526909  
      89A      3.567741    90A      3.643982    91A      3.678688  
      92A      3.707080    93A      3.728590    94A      3.934718  
      95A      3.955872    96A      3.976478    97A      4.045031  
      98A      4.159062    99A      4.191945   100A      4.205827  
     101A      4.247388   102A      4.251186   103A      4.272443  
     104A      4.396213   105A      4.407386   106A      4.497259  
     107A      4.539220   108A      4.546759   109A      4.591755  
     110A      4.940331   111A      5.030540   112A      5.080668  
     113A      5.244760   114A      5.253658   115A      5.329887  
     116A      5.409986   117A      5.551238   118A      5.557926  
     119A      5.772801   120A      5.917300   121A      6.354885  
     122A      6.962977   123A      7.012211   124A      7.231806  
     125A      7.322169   126A      7.451324  

    Final Occupation by Irrep:
              A 
    DOCC [    13 ]

  @DF-RKS Final Energy:  -155.05151508443322

   => Energetics <=

    Nuclear Repulsion Energy =             81.9735308189050045
    One-Electron Energy =                -372.2555704284567355
    Two-Electron Energy =                 152.8105976826448114
    DFT Exchange-Correlation Energy =     -17.5800731575263214
    Empirical Dispersion Energy =           0.0000000000000000
    VV10 Nonlocal Energy =                  0.0000000000000000
    Total Energy =                       -155.0515150844332197

Computation Completed


Properties will be evaluated at   0.000000,   0.000000,   0.000000 [a0]

Properties computed using the SCF density matrix

  Nuclear Dipole Moment: [e a0]
     X:    -2.5606      Y:    -1.1869      Z:    -0.0036

  Electronic Dipole Moment: [e a0]
     X:     2.6274      Y:     0.6286      Z:     0.0038

  Dipole Moment: [e a0]
     X:     0.0668      Y:    -0.5583      Z:     0.0002     Total:     0.5623

  Dipole Moment: [D]
     X:     0.1698      Y:    -1.4191      Z:     0.0006     Total:     1.4293


*** tstop() called on n067 at Mon Nov  1 17:52:55 2021
Module time:
	user time   =      51.61 seconds =       0.86 minutes
	system time =       0.85 seconds =       0.01 minutes
	total time  =         53 seconds =       0.88 minutes
Total time:
	user time   =      51.61 seconds =       0.86 minutes
	system time =       0.85 seconds =       0.01 minutes
	total time  =         53 seconds =       0.88 minutes
Grab this energy -155.05151508443322
    Psi4 stopped on: Monday, 01 November 2021 05:52PM
    Psi4 wall time for execution: 0:00:52.54

*** Psi4 exiting successfully. Buy a developer a beer!
