
    -----------------------------------------------------------------------
          Psi4: An Open-Source Ab Initio Electronic Structure Package
                               Psi4 1.4a2.dev629 

                         Git: Rev {master} 2938fc2 dirty


    D. G. A. Smith, L. A. Burns, A. C. Simmonett, R. M. Parrish,
    M. C. Schieber, R. Galvelis, P. Kraus, H. Kruse, R. Di Remigio,
    A. Alenaizan, A. M. James, S. Lehtola, J. P. Misiewicz, M. Scheurer,
    R. A. Shaw, J. B. Schriber, Y. Xie, Z. L. Glick, D. A. Sirianni,
    J. S. O'Brien, J. M. Waldrop, A. Kumar, E. G. Hohenstein,
    B. P. Pritchard, B. R. Brooks, H. F. Schaefer III, A. Yu. Sokolov,
    K. Patkowski, A. E. DePrince III, U. Bozkaya, R. A. King,
    F. A. Evangelista, J. M. Turney, T. D. Crawford, C. D. Sherrill,
    J. Chem. Phys. 152(18) 184108 (2020). https://doi.org/10.1063/5.0006002

                            Additional Code Authors
    E. T. Seidl, C. L. Janssen, E. F. Valeev, M. L. Leininger,
    J. F. Gonthier, R. M. Richard, H. R. McAlexander, M. Saitow, X. Wang,
    P. Verma, and M. H. Lechner

             Previous Authors, Complete List of Code Contributors,
                       and Citations for Specific Modules
    https://github.com/psi4/psi4/blob/master/codemeta.json
    https://github.com/psi4/psi4/graphs/contributors
    http://psicode.org/psi4manual/master/introduction.html#citing-psifour

    -----------------------------------------------------------------------


    Psi4 started on: Monday, 01 November 2021 05:27PM

    Process ID: 141639
    Host:       n070
    PSIDATADIR: /opt/psi/4/master/share/psi4
    Memory:     500.0 MiB
    Threads:    1
    
  ==> Input File <==

--------------------------------------------------------------------------
import os
memory 14 GB 
 
molecule {
 C   -2.3818564596    0.4738470294    0.0000000206
 C    0.0155405467   -1.0942582343   -0.0000000193
 H   -2.4439853952    1.6802836090    1.6676119705
 H   -2.4439854647    1.6802835996   -1.6676119612
 H   -4.0473817566   -0.7513573957    0.0000000601
 H    0.0661495830   -2.3119358572    1.6743003487
 H    0.0661495629   -2.3119358374   -1.6743003891
 O    2.1012153671    0.6145875176   -0.0000000203
 H    3.6231459864   -0.3712264010    0.0000003501
units bohr
}

basis {

assign 6-31g_2dfp_

[ 6-31g_2dfp_ ]

spherical

!----------------------------------------------------------------------
! Basis Set Exchange
! Version v0.8.13
! https://www.basissetexchange.org
!----------------------------------------------------------------------
!   Basis set: 6-31G(2df,p)
! Description: 6-31G(2df,p)
!        Role: orbital
!     Version: 0  (Data from the original Basis Set Exchange)
!----------------------------------------------------------------------


****
H     0
S    3   1.00
     18.7311370              0.03349460
      2.8253937              0.23472695
      0.6401217              0.81375733
S    1   1.00
      0.1612778              1.00000000
P    1   1.00
      1.5000000              1.0000000
P    1   1.00
      0.3750000              1.0000000
****
B     0
S    6   1.00
   2068.8823000              0.0018663
    310.6495700              0.0142515
     70.6830330              0.0695516
     19.8610800              0.2325729
      6.2993048              0.4670787
      2.1270270              0.3634314
SP   3   1.00
      4.7279710             -0.1303938              0.0745976
      1.1903377             -0.1307889              0.3078467
      0.3594117              1.1309444              0.7434568
SP   1   1.00
      0.1267512              1.0000000              1.0000000
D    1   1.00
      0.8020000              1.0000000
D    1   1.00
      0.2005000              1.0000000
F    1   1.00
      0.5000000              1.0000000
****
C     0
S    6   1.00
   3047.5249000              0.0018347
    457.3695100              0.0140373
    103.9486900              0.0688426
     29.2101550              0.2321844
      9.2866630              0.4679413
      3.1639270              0.3623120
SP   3   1.00
      7.8682724             -0.1193324              0.0689991
      1.8812885             -0.1608542              0.3164240
      0.5442493              1.1434564              0.7443083
SP   1   1.00
      0.1687144              1.0000000              1.0000000
D    1   1.00
      1.2520000              1.0000000
D    1   1.00
      0.3130000              1.0000000
F    1   1.00
      0.8000000              1.0000000
****
N     0
S    6   1.00
   4173.5110000              0.0018348
    627.4579000              0.0139950
    142.9021000              0.0685870
     40.2343300              0.2322410
     12.8202100              0.4690700
      4.3904370              0.3604550
SP   3   1.00
     11.6263580             -0.1149610              0.0675800
      2.7162800             -0.1691180              0.3239070
      0.7722180              1.1458520              0.7408950
SP   1   1.00
      0.2120313              1.0000000              1.0000000
D    1   1.00
      1.8260000              1.0000000
D    1   1.00
      0.4565000              1.0000000
F    1   1.00
      1.0000000              1.0000000
****
O     0
S    6   1.00
   5484.6717000              0.0018311
    825.2349500              0.0139501
    188.0469600              0.0684451
     52.9645000              0.2327143
     16.8975700              0.4701930
      5.7996353              0.3585209
SP   3   1.00
     15.5396160             -0.1107775              0.0708743
      3.5999336             -0.1480263              0.3397528
      1.0137618              1.1307670              0.7271586
SP   1   1.00
      0.2700058              1.0000000              1.0000000
D    1   1.00
      2.5840000              1.0000000
D    1   1.00
      0.6460000              1.0000000
F    1   1.00
      1.4000000              1.0000000
****
F     0
S    6   1.00
   7001.7130900              0.0018196169
   1051.3660900              0.0139160796
    239.2856900              0.0684053245
     67.3974453              0.233185760
     21.5199573              0.471267439
      7.40310130             0.356618546
SP   3   1.00
     20.8479528             -0.108506975            0.0716287243
      4.80830834            -0.146451658            0.3459121030
      1.34406986             1.128688580            0.7224699570
SP   1   1.00
      0.358151393            1.0000000              1.0000000
D    1   1.00
      3.5000000              1.0000000
D    1   1.00
      0.8750000              1.0000000
F    1   1.00
      1.8500000              1.0000000
****
Al     0
S    6   1.00
  13983.1000000              0.00194267
   2098.7500000              0.0148599
    477.7050000              0.0728494
    134.3600000              0.2468300
     42.8709000              0.4872580
     14.5189000              0.3234960
SP   6   1.00
    239.6680000             -0.00292619             0.00460285
     57.4419000             -0.0374080              0.0331990
     18.2859000             -0.1144870              0.1362820
      6.5991400              0.1156350              0.3304760
      2.4904900              0.6125950              0.4491460
      0.9445400              0.3937990              0.2657040
SP   3   1.00
      1.2779000             -0.2276060             -0.0175130
      0.3975900              0.00144583             0.2445330
      0.1600950              1.0927900              0.8049340
SP   1   1.00
      0.0556577              1.0000000              1.0000000
D    1   1.00
      0.6500000              1.0000000
D    1   1.00
      0.1625000              1.0000000
F    1   1.00
      0.2500000              1.0000000
****
Si     0
S    6   1.00
  16115.9000000              0.00195948
   2425.5800000              0.01492880
    553.8670000              0.07284780
    156.3400000              0.24613000
     50.0683000              0.48591400
     17.0178000              0.32500200
SP   6   1.00
    292.7180000             -0.00278094             0.00443826
     69.8731000             -0.03571460             0.03266790
     22.3363000             -0.11498500             0.13472100
      8.1503900              0.09356340             0.32867800
      3.1345800              0.60301700             0.44964000
      1.2254300              0.41895900             0.26137200
SP   3   1.00
      1.7273800             -0.24463000            -0.01779510
      0.5729220              0.00431572             0.25353900
      0.2221920              1.09818000             0.80066900
SP   1   1.00
      0.0778369              1.00000000             1.00000000
D    1   1.00
      0.9000000              1.0000000
D    1   1.00
      0.2250000              1.0000000
F    1   1.00
      0.3200000              1.0000000
****
P     0
S    6   1.00
  19413.3000000              0.0018516
   2909.4200000              0.0142062
    661.3640000              0.0699995
    185.7590000              0.2400790
     59.1943000              0.4847620
     20.0310000              0.3352000
SP   6   1.00
    339.4780000             -0.00278217             0.00456462
     81.0101000             -0.0360499              0.03369360
     25.8780000             -0.1166310              0.13975500
      9.4522100              0.0968328              0.33936200
      3.6656600              0.6144180              0.45092100
      1.4674600              0.4037980              0.23858600
SP   3   1.00
      2.1562300             -0.2529230             -0.01776530
      0.7489970              0.0328517              0.27405800
      0.2831450              1.0812500              0.78542100
SP   1   1.00
      0.0998317              1.0000000              1.00000000
D    1   1.00
      1.1000000              1.0000000
D    1   1.00
      0.2750000              1.0000000
F    1   1.00
      0.4500000              1.0000000
****
S     0
S    6   1.00
  21917.1000000              0.0018690
   3301.4900000              0.0142300
    754.1460000              0.0696960
    212.7110000              0.2384870
     67.9896000              0.4833070
     23.0515000              0.3380740
SP   6   1.00
    423.7350000             -0.0023767              0.0040610
    100.7100000             -0.0316930              0.0306810
     32.1599000             -0.1133170              0.1304520
     11.8079000              0.0560900              0.3272050
      4.6311000              0.5922550              0.4528510
      1.8702500              0.4550060              0.2560420
SP   3   1.00
      2.6158400             -0.2503740             -0.0145110
      0.9221670              0.0669570              0.3102630
      0.3412870              1.0545100              0.7544830
SP   1   1.00
      0.1171670              1.0000000              1.0000000
D    1   1.00
      1.3000000              1.0000000
D    1   1.00
      0.3250000              1.0000000
F    1   1.00
      0.5500000              1.0000000
****
Cl     0
S    6   1.00
  25180.1000000              0.0018330
   3780.3500000              0.0140340
    860.4740000              0.0690970
    242.1450000              0.2374520
     77.3349000              0.4830340
     26.2470000              0.3398560
SP   6   1.00
    491.7650000             -0.0022974              0.0039894
    116.9840000             -0.0307140              0.0303180
     37.4153000             -0.1125280              0.1298800
     13.7834000              0.0450160              0.3279510
      5.4521500              0.5893530              0.4535270
      2.2258800              0.4652060              0.2521540
SP   3   1.00
      3.1864900             -0.2518300             -0.0142990
      1.1442700              0.0615890              0.3235720
      0.4203770              1.0601800              0.7435070
SP   1   1.00
      0.1426570              1.0000000              1.0000000
D    1   1.00
      1.5000000              1.0000000
D    1   1.00
      0.3750000              1.0000000
F    1   1.00
      0.7000000              1.0000000
****
}


set {
reference rhf                          
freeze_core true
e_convergence 10                       
d_convergence 10                      
dft_spherical_points 1202
dft_radial_points 99
}

e = energy('b3lyp')

print_out('Grab this energy {0}'.format(e))
--------------------------------------------------------------------------

  Memory set to  13.039 GiB by Python driver.

Scratch directory: /tmp/

*** tstart() called on n070
*** at Mon Nov  1 17:27:21 2021

   => Loading Basis Set <=

    Name: ANONYMOUSB101C3C7
    Role: ORBITAL
    Keyword: BASIS
    atoms 1-2    entry C          line    48 inputblock 6-31g_2dfp_ 
    atoms 3-7, 9 entry H          line    15 inputblock 6-31g_2dfp_ 
    atoms 8      entry O          line    90 inputblock 6-31g_2dfp_ 


         ---------------------------------------------------------
                                   SCF
               by Justin Turney, Rob Parrish, Andy Simmonett
                          and Daniel G. A. Smith
                              RKS Reference
                        1 Threads,  13351 MiB Core
         ---------------------------------------------------------

  ==> Geometry <==

    Molecular point group: c1
    Full point group: C1

    Geometry (in Bohr), charge = 0, multiplicity = 1:

       Center              X                  Y                   Z               Mass       
    ------------   -----------------  -----------------  -----------------  -----------------
         C           -2.381694194497     0.474264421789     0.000000019015    12.000000000000
         C            0.015702811803    -1.093840841911    -0.000000020885    12.000000000000
         H           -2.443823130097     1.680701001389     1.667611968915     1.007825032230
         H           -2.443823199597     1.680700991989    -1.667611962785     1.007825032230
         H           -4.047219491497    -0.750940003311     0.000000058515     1.007825032230
         H            0.066311848103    -2.311518464811     1.674300347115     1.007825032230
         H            0.066311828003    -2.311518445011    -1.674300390685     1.007825032230
         O            2.101377632203     0.615004909989    -0.000000021885    15.994914619570
         H            3.623308251503    -0.370809008611     0.000000348515     1.007825032230

  Running in c1 symmetry.

  Rotational constants: A =      1.16818  B =      0.31396  C =      0.27269 [cm^-1]
  Rotational constants: A =  35021.05753  B =   9412.21077  C =   8174.90324 [MHz]
  Nuclear repulsion =   81.837140292767415

  Charge       = 0
  Multiplicity = 1
  Electrons    = 26
  Nalpha       = 13
  Nbeta        = 13

  ==> Algorithm <==

  SCF Algorithm Type is DF.
  DIIS enabled.
  MOM disabled.
  Fractional occupation disabled.
  Guess Type is SAD.
  Energy threshold   = 1.00e-10
  Density threshold  = 1.00e-10
  Integral threshold = 0.00e+00

  ==> Primary Basis <==

  Basis Set: ANONYMOUSB101C3C7
    Blend: 6-31G_2DFP_
    Number of shells: 48
    Number of basis function: 126
    Number of Cartesian functions: 141
    Spherical Harmonics?: true
    Max angular momentum: 3

  ==> DFT Potential <==

   => Composite Functional: B3LYP <= 

    B3LYP Hyb-GGA Exchange-Correlation Functional

    P. J. Stephens, F. J. Devlin, C. F. Chabalowski, and M. J. Frisch, J. Phys. Chem. 98, 11623 (1994)

    Deriv               =              1
    GGA                 =           TRUE
    Meta                =          FALSE

    Exchange Hybrid     =           TRUE
    MP2 Hybrid          =          FALSE

   => Exchange Functionals <=

    0.0800   Slater exchange
    0.7200         Becke 88

   => Exact (HF) Exchange <=

    0.2000               HF 

   => Correlation Functionals <=

    0.1900   Vosko, Wilk & Nusair (VWN5_RPA)
    0.8100   Lee, Yang & Parr

   => Molecular Quadrature <=

    Radial Scheme          =       TREUTLER
    Pruning Scheme         =           NONE
    Nuclear Scheme         =       TREUTLER

    BS radius alpha        =              1
    Pruning alpha          =              1
    Radial Points          =             99
    Spherical Points       =           1202
    Total Points           =        1008405
    Total Blocks           =           6760
    Max Points             =            256
    Max Functions          =            126
    Weights Tolerance      =       1.00E-15

   => Loading Basis Set <=

    Name: (ANONYMOUSB101C3C7 AUX)
    Role: JKFIT
    Keyword: DF_BASIS_SCF
    atoms 1-2    entry C          line   198 file /opt/psi/4/master/share/psi4/basis/def2-universal-jkfit.gbs 
    atoms 3-7, 9 entry H          line    18 file /opt/psi/4/master/share/psi4/basis/def2-universal-jkfit.gbs 
    atoms 8      entry O          line   318 file /opt/psi/4/master/share/psi4/basis/def2-universal-jkfit.gbs 

  ==> Integral Setup <==

  DFHelper Memory: AOs need 0.044 GiB; user supplied 6.692 GiB. Using in-core AOs.

  ==> MemDFJK: Density-Fitted J/K Matrices <==

    J tasked:                   Yes
    K tasked:                   Yes
    wK tasked:                   No
    OpenMP threads:               1
    Memory [MiB]:              6852
    Algorithm:                 Core
    Schwarz Cutoff:           1E-12
    Mask sparsity (%):       0.6803
    Fitting Condition:        1E-10

   => Auxiliary Basis Set <=

  Basis Set: (ANONYMOUSB101C3C7 AUX)
    Blend: DEF2-UNIVERSAL-JKFIT
    Number of shells: 111
    Number of basis function: 335
    Number of Cartesian functions: 391
    Spherical Harmonics?: true
    Max angular momentum: 4

  Cached 100.0% of DFT collocation blocks in 3.087 [GiB].

  Minimum eigenvalue in the overlap matrix is 1.9099600224E-03.
  Reciprocal condition number of the overlap matrix is 3.3507167664E-04.
    Using symmetric orthogonalization.

  ==> Pre-Iterations <==

  SCF Guess: Superposition of Atomic Densities via on-the-fly atomic UHF (no occupation information).

   -------------------------
    Irrep   Nso     Nmo    
   -------------------------
     A        126     126 
   -------------------------
    Total     126     126
   -------------------------

  ==> Iterations <==

                           Total Energy        Delta E     RMS |[F,P]|

   @DF-RKS iter SAD:  -154.49014408867947   -1.54490e+02   0.00000e+00 
   @DF-RKS iter   1:  -154.78830934952455   -2.98165e-01   5.87687e-03 DIIS
   @DF-RKS iter   2:  -154.61659866402343    1.71711e-01   7.71733e-03 DIIS
   @DF-RKS iter   3:  -155.04772269182956   -4.31124e-01   7.69722e-04 DIIS
   @DF-RKS iter   4:  -155.05083066243947   -3.10797e-03   3.26617e-04 DIIS
   @DF-RKS iter   5:  -155.05152273268368   -6.92070e-04   5.31060e-05 DIIS
   @DF-RKS iter   6:  -155.05154072768042   -1.79950e-05   1.24357e-05 DIIS
   @DF-RKS iter   7:  -155.05154173659375   -1.00891e-06   4.09614e-06 DIIS
   @DF-RKS iter   8:  -155.05154186312632   -1.26533e-07   5.23782e-07 DIIS
   @DF-RKS iter   9:  -155.05154186518524   -2.05893e-09   4.61064e-08 DIIS
   @DF-RKS iter  10:  -155.05154186520485   -1.96110e-11   1.05424e-08 DIIS
   @DF-RKS iter  11:  -155.05154186520576   -9.09495e-13   1.32279e-09 DIIS
   @DF-RKS iter  12:  -155.05154186520579   -2.84217e-14   2.01134e-10 DIIS
   @DF-RKS iter  13:  -155.05154186520576    2.84217e-14   2.13492e-11 DIIS
  Energy and wave function converged.


  ==> Post-Iterations <==

    Orbital Energies [Eh]
    ---------------------

    Doubly Occupied:                                                      

       1A    -19.133452     2A    -10.221978     3A    -10.165561  
       4A     -1.009264     5A     -0.744681     6A     -0.605761  
       7A     -0.509586     8A     -0.460662     9A     -0.395861  
      10A     -0.378165    11A     -0.361069    12A     -0.326749  
      13A     -0.265042  

    Virtual:                                                              

      14A      0.073496    15A      0.106573    16A      0.147510  
      17A      0.151139    18A      0.164605    19A      0.186511  
      20A      0.205236    21A      0.229285    22A      0.430295  
      23A      0.437873    24A      0.469495    25A      0.470470  
      26A      0.477200    27A      0.512589    28A      0.552451  
      29A      0.570889    30A      0.590312    31A      0.601715  
      32A      0.604965    33A      0.638263    34A      0.642029  
      35A      0.663080    36A      0.702088    37A      0.784116  
      38A      0.830957    39A      0.860386    40A      0.865530  
      41A      0.946181    42A      0.994397    43A      1.026462  
      44A      1.079539    45A      1.103811    46A      1.132062  
      47A      1.159667    48A      1.205278    49A      1.205459  
      50A      1.255673    51A      1.285050    52A      1.324768  
      53A      1.341377    54A      1.387380    55A      1.410281  
      56A      1.421081    57A      1.456403    58A      1.467644  
      59A      1.479988    60A      1.501996    61A      1.629288  
      62A      1.730124    63A      1.753956    64A      1.797361  
      65A      1.864437    66A      1.874921    67A      1.996032  
      68A      2.049721    69A      2.060326    70A      2.216209  
      71A      2.336345    72A      2.652299    73A      2.806818  
      74A      2.843936    75A      2.894758    76A      2.906535  
      77A      2.940965    78A      2.984394    79A      3.055038  
      80A      3.138810    81A      3.153516    82A      3.213215  
      83A      3.263044    84A      3.361645    85A      3.446438  
      86A      3.475843    87A      3.509039    88A      3.527151  
      89A      3.566266    90A      3.644350    91A      3.677425  
      92A      3.704267    93A      3.724671    94A      3.932440  
      95A      3.953653    96A      3.974184    97A      4.043701  
      98A      4.156708    99A      4.189446   100A      4.205599  
     101A      4.247753   102A      4.248489   103A      4.270553  
     104A      4.395407   105A      4.407971   106A      4.494841  
     107A      4.539479   108A      4.543558   109A      4.587271  
     110A      4.939575   111A      5.030242   112A      5.081203  
     113A      5.239222   114A      5.252009   115A      5.329591  
     116A      5.402852   117A      5.547162   118A      5.557479  
     119A      5.766437   120A      5.912810   121A      6.350847  
     122A      6.962369   123A      7.009647   124A      7.229880  
     125A      7.319848   126A      7.448010  

    Final Occupation by Irrep:
              A 
    DOCC [    13 ]

  @DF-RKS Final Energy:  -155.05154186520576

   => Energetics <=

    Nuclear Repulsion Energy =             81.8371402927674154
    One-Electron Energy =                -371.9918091351013345
    Two-Electron Energy =                 152.6802957102787843
    DFT Exchange-Correlation Energy =     -17.5771687331506108
    Empirical Dispersion Energy =           0.0000000000000000
    VV10 Nonlocal Energy =                  0.0000000000000000
    Total Energy =                       -155.0515418652057633

Computation Completed


Properties will be evaluated at   0.000000,   0.000000,   0.000000 [a0]

Properties computed using the SCF density matrix

  Nuclear Dipole Moment: [e a0]
     X:    -2.5639      Y:    -1.1808      Z:     0.0000

  Electronic Dipole Moment: [e a0]
     X:     2.6287      Y:     0.6227      Z:    -0.0000

  Dipole Moment: [e a0]
     X:     0.0648      Y:    -0.5581      Z:     0.0000     Total:     0.5618

  Dipole Moment: [D]
     X:     0.1648      Y:    -1.4185      Z:     0.0000     Total:     1.4280


*** tstop() called on n070 at Mon Nov  1 17:28:15 2021
Module time:
	user time   =      52.91 seconds =       0.88 minutes
	system time =       0.95 seconds =       0.02 minutes
	total time  =         54 seconds =       0.90 minutes
Total time:
	user time   =      52.91 seconds =       0.88 minutes
	system time =       0.95 seconds =       0.02 minutes
	total time  =         54 seconds =       0.90 minutes
Grab this energy -155.05154186520576
    Psi4 stopped on: Monday, 01 November 2021 05:28PM
    Psi4 wall time for execution: 0:00:53.92

*** Psi4 exiting successfully. Buy a developer a beer!
