
    -----------------------------------------------------------------------
          Psi4: An Open-Source Ab Initio Electronic Structure Package
                               Psi4 1.4a2.dev629 

                         Git: Rev {master} 2938fc2 dirty


    D. G. A. Smith, L. A. Burns, A. C. Simmonett, R. M. Parrish,
    M. C. Schieber, R. Galvelis, P. Kraus, H. Kruse, R. Di Remigio,
    A. Alenaizan, A. M. James, S. Lehtola, J. P. Misiewicz, M. Scheurer,
    R. A. Shaw, J. B. Schriber, Y. Xie, Z. L. Glick, D. A. Sirianni,
    J. S. O'Brien, J. M. Waldrop, A. Kumar, E. G. Hohenstein,
    B. P. Pritchard, B. R. Brooks, H. F. Schaefer III, A. Yu. Sokolov,
    K. Patkowski, A. E. DePrince III, U. Bozkaya, R. A. King,
    F. A. Evangelista, J. M. Turney, T. D. Crawford, C. D. Sherrill,
    J. Chem. Phys. 152(18) 184108 (2020). https://doi.org/10.1063/5.0006002

                            Additional Code Authors
    E. T. Seidl, C. L. Janssen, E. F. Valeev, M. L. Leininger,
    J. F. Gonthier, R. M. Richard, H. R. McAlexander, M. Saitow, X. Wang,
    P. Verma, and M. H. Lechner

             Previous Authors, Complete List of Code Contributors,
                       and Citations for Specific Modules
    https://github.com/psi4/psi4/blob/master/codemeta.json
    https://github.com/psi4/psi4/graphs/contributors
    http://psicode.org/psi4manual/master/introduction.html#citing-psifour

    -----------------------------------------------------------------------


    Psi4 started on: Monday, 01 November 2021 05:47PM

    Process ID: 15931
    Host:       n065
    PSIDATADIR: /opt/psi/4/master/share/psi4
    Memory:     500.0 MiB
    Threads:    1
    
  ==> Input File <==

--------------------------------------------------------------------------
import os
memory 14 GB 
 
molecule {
 C   -2.3817853033    0.4730223573    0.0000000195
 C    0.0165750667   -1.0901972394   -0.0000000209
 H   -2.4426624784    1.6737380377    1.6728576960
 H   -2.4426625538    1.6737380213   -1.6728576953
 H   -4.0531183526   -0.7452365125    0.0000000651
 H    0.0660676990   -2.3108420615    1.6789083450
 H    0.0660676532   -2.3108420390   -1.6789083955
 O    2.1035000898    0.6182477809   -0.0000000136
 H    3.6230101493   -0.3733403149    0.0000003597
units bohr
}

basis {

assign 6-31g_2dfp_

[ 6-31g_2dfp_ ]

spherical

!----------------------------------------------------------------------
! Basis Set Exchange
! Version v0.8.13
! https://www.basissetexchange.org
!----------------------------------------------------------------------
!   Basis set: 6-31G(2df,p)
! Description: 6-31G(2df,p)
!        Role: orbital
!     Version: 0  (Data from the original Basis Set Exchange)
!----------------------------------------------------------------------


****
H     0
S    3   1.00
     18.7311370              0.03349460
      2.8253937              0.23472695
      0.6401217              0.81375733
S    1   1.00
      0.1612778              1.00000000
P    1   1.00
      1.5000000              1.0000000
P    1   1.00
      0.3750000              1.0000000
****
B     0
S    6   1.00
   2068.8823000              0.0018663
    310.6495700              0.0142515
     70.6830330              0.0695516
     19.8610800              0.2325729
      6.2993048              0.4670787
      2.1270270              0.3634314
SP   3   1.00
      4.7279710             -0.1303938              0.0745976
      1.1903377             -0.1307889              0.3078467
      0.3594117              1.1309444              0.7434568
SP   1   1.00
      0.1267512              1.0000000              1.0000000
D    1   1.00
      0.8020000              1.0000000
D    1   1.00
      0.2005000              1.0000000
F    1   1.00
      0.5000000              1.0000000
****
C     0
S    6   1.00
   3047.5249000              0.0018347
    457.3695100              0.0140373
    103.9486900              0.0688426
     29.2101550              0.2321844
      9.2866630              0.4679413
      3.1639270              0.3623120
SP   3   1.00
      7.8682724             -0.1193324              0.0689991
      1.8812885             -0.1608542              0.3164240
      0.5442493              1.1434564              0.7443083
SP   1   1.00
      0.1687144              1.0000000              1.0000000
D    1   1.00
      1.2520000              1.0000000
D    1   1.00
      0.3130000              1.0000000
F    1   1.00
      0.8000000              1.0000000
****
N     0
S    6   1.00
   4173.5110000              0.0018348
    627.4579000              0.0139950
    142.9021000              0.0685870
     40.2343300              0.2322410
     12.8202100              0.4690700
      4.3904370              0.3604550
SP   3   1.00
     11.6263580             -0.1149610              0.0675800
      2.7162800             -0.1691180              0.3239070
      0.7722180              1.1458520              0.7408950
SP   1   1.00
      0.2120313              1.0000000              1.0000000
D    1   1.00
      1.8260000              1.0000000
D    1   1.00
      0.4565000              1.0000000
F    1   1.00
      1.0000000              1.0000000
****
O     0
S    6   1.00
   5484.6717000              0.0018311
    825.2349500              0.0139501
    188.0469600              0.0684451
     52.9645000              0.2327143
     16.8975700              0.4701930
      5.7996353              0.3585209
SP   3   1.00
     15.5396160             -0.1107775              0.0708743
      3.5999336             -0.1480263              0.3397528
      1.0137618              1.1307670              0.7271586
SP   1   1.00
      0.2700058              1.0000000              1.0000000
D    1   1.00
      2.5840000              1.0000000
D    1   1.00
      0.6460000              1.0000000
F    1   1.00
      1.4000000              1.0000000
****
F     0
S    6   1.00
   7001.7130900              0.0018196169
   1051.3660900              0.0139160796
    239.2856900              0.0684053245
     67.3974453              0.233185760
     21.5199573              0.471267439
      7.40310130             0.356618546
SP   3   1.00
     20.8479528             -0.108506975            0.0716287243
      4.80830834            -0.146451658            0.3459121030
      1.34406986             1.128688580            0.7224699570
SP   1   1.00
      0.358151393            1.0000000              1.0000000
D    1   1.00
      3.5000000              1.0000000
D    1   1.00
      0.8750000              1.0000000
F    1   1.00
      1.8500000              1.0000000
****
Al     0
S    6   1.00
  13983.1000000              0.00194267
   2098.7500000              0.0148599
    477.7050000              0.0728494
    134.3600000              0.2468300
     42.8709000              0.4872580
     14.5189000              0.3234960
SP   6   1.00
    239.6680000             -0.00292619             0.00460285
     57.4419000             -0.0374080              0.0331990
     18.2859000             -0.1144870              0.1362820
      6.5991400              0.1156350              0.3304760
      2.4904900              0.6125950              0.4491460
      0.9445400              0.3937990              0.2657040
SP   3   1.00
      1.2779000             -0.2276060             -0.0175130
      0.3975900              0.00144583             0.2445330
      0.1600950              1.0927900              0.8049340
SP   1   1.00
      0.0556577              1.0000000              1.0000000
D    1   1.00
      0.6500000              1.0000000
D    1   1.00
      0.1625000              1.0000000
F    1   1.00
      0.2500000              1.0000000
****
Si     0
S    6   1.00
  16115.9000000              0.00195948
   2425.5800000              0.01492880
    553.8670000              0.07284780
    156.3400000              0.24613000
     50.0683000              0.48591400
     17.0178000              0.32500200
SP   6   1.00
    292.7180000             -0.00278094             0.00443826
     69.8731000             -0.03571460             0.03266790
     22.3363000             -0.11498500             0.13472100
      8.1503900              0.09356340             0.32867800
      3.1345800              0.60301700             0.44964000
      1.2254300              0.41895900             0.26137200
SP   3   1.00
      1.7273800             -0.24463000            -0.01779510
      0.5729220              0.00431572             0.25353900
      0.2221920              1.09818000             0.80066900
SP   1   1.00
      0.0778369              1.00000000             1.00000000
D    1   1.00
      0.9000000              1.0000000
D    1   1.00
      0.2250000              1.0000000
F    1   1.00
      0.3200000              1.0000000
****
P     0
S    6   1.00
  19413.3000000              0.0018516
   2909.4200000              0.0142062
    661.3640000              0.0699995
    185.7590000              0.2400790
     59.1943000              0.4847620
     20.0310000              0.3352000
SP   6   1.00
    339.4780000             -0.00278217             0.00456462
     81.0101000             -0.0360499              0.03369360
     25.8780000             -0.1166310              0.13975500
      9.4522100              0.0968328              0.33936200
      3.6656600              0.6144180              0.45092100
      1.4674600              0.4037980              0.23858600
SP   3   1.00
      2.1562300             -0.2529230             -0.01776530
      0.7489970              0.0328517              0.27405800
      0.2831450              1.0812500              0.78542100
SP   1   1.00
      0.0998317              1.0000000              1.00000000
D    1   1.00
      1.1000000              1.0000000
D    1   1.00
      0.2750000              1.0000000
F    1   1.00
      0.4500000              1.0000000
****
S     0
S    6   1.00
  21917.1000000              0.0018690
   3301.4900000              0.0142300
    754.1460000              0.0696960
    212.7110000              0.2384870
     67.9896000              0.4833070
     23.0515000              0.3380740
SP   6   1.00
    423.7350000             -0.0023767              0.0040610
    100.7100000             -0.0316930              0.0306810
     32.1599000             -0.1133170              0.1304520
     11.8079000              0.0560900              0.3272050
      4.6311000              0.5922550              0.4528510
      1.8702500              0.4550060              0.2560420
SP   3   1.00
      2.6158400             -0.2503740             -0.0145110
      0.9221670              0.0669570              0.3102630
      0.3412870              1.0545100              0.7544830
SP   1   1.00
      0.1171670              1.0000000              1.0000000
D    1   1.00
      1.3000000              1.0000000
D    1   1.00
      0.3250000              1.0000000
F    1   1.00
      0.5500000              1.0000000
****
Cl     0
S    6   1.00
  25180.1000000              0.0018330
   3780.3500000              0.0140340
    860.4740000              0.0690970
    242.1450000              0.2374520
     77.3349000              0.4830340
     26.2470000              0.3398560
SP   6   1.00
    491.7650000             -0.0022974              0.0039894
    116.9840000             -0.0307140              0.0303180
     37.4153000             -0.1125280              0.1298800
     13.7834000              0.0450160              0.3279510
      5.4521500              0.5893530              0.4535270
      2.2258800              0.4652060              0.2521540
SP   3   1.00
      3.1864900             -0.2518300             -0.0142990
      1.1442700              0.0615890              0.3235720
      0.4203770              1.0601800              0.7435070
SP   1   1.00
      0.1426570              1.0000000              1.0000000
D    1   1.00
      1.5000000              1.0000000
D    1   1.00
      0.3750000              1.0000000
F    1   1.00
      0.7000000              1.0000000
****
}


set {
reference rhf                          
freeze_core true
e_convergence 10                       
d_convergence 10                      
dft_spherical_points 1202
dft_radial_points 99
}

e = energy('b3lyp')

print_out('Grab this energy {0}'.format(e))
--------------------------------------------------------------------------

  Memory set to  13.039 GiB by Python driver.

Scratch directory: /tmp/

*** tstart() called on n065
*** at Mon Nov  1 17:47:47 2021

   => Loading Basis Set <=

    Name: ANONYMOUS54525D80
    Role: ORBITAL
    Keyword: BASIS
    atoms 1-2    entry C          line    48 inputblock 6-31g_2dfp_ 
    atoms 3-7, 9 entry H          line    15 inputblock 6-31g_2dfp_ 
    atoms 8      entry O          line    90 inputblock 6-31g_2dfp_ 


         ---------------------------------------------------------
                                   SCF
               by Justin Turney, Rob Parrish, Andy Simmonett
                          and Daniel G. A. Smith
                              RKS Reference
                        1 Threads,  13351 MiB Core
         ---------------------------------------------------------

  ==> Geometry <==

    Molecular point group: c1
    Full point group: C1

    Geometry (in Bohr), charge = 0, multiplicity = 1:

       Center              X                  Y                   Z               Mass       
    ------------   -----------------  -----------------  -----------------  -----------------
         C           -2.382630710915     0.471475647654     0.000000016381    12.000000000000
         C            0.015729659085    -1.091743949046    -0.000000024019    12.000000000000
         H           -2.443507886015     1.672191328054     1.672857692881     1.007825032230
         H           -2.443507961415     1.672191311654    -1.672857698419     1.007825032230
         H           -4.053963760215    -0.746783222146     0.000000061981     1.007825032230
         H            0.065222291385    -2.312388771146     1.678908341881     1.007825032230
         H            0.065222245585    -2.312388748646    -1.678908398619     1.007825032230
         O            2.102654682185     0.616701071254    -0.000000016719    15.994914619570
         H            3.622164741685    -0.374887024546     0.000000356581     1.007825032230

  Running in c1 symmetry.

  Rotational constants: A =      1.16908  B =      0.31355  C =      0.27259 [cm^-1]
  Rotational constants: A =  35048.01782  B =   9399.98040  C =   8172.05636 [MHz]
  Nuclear repulsion =   81.807460442644171

  Charge       = 0
  Multiplicity = 1
  Electrons    = 26
  Nalpha       = 13
  Nbeta        = 13

  ==> Algorithm <==

  SCF Algorithm Type is DF.
  DIIS enabled.
  MOM disabled.
  Fractional occupation disabled.
  Guess Type is SAD.
  Energy threshold   = 1.00e-10
  Density threshold  = 1.00e-10
  Integral threshold = 0.00e+00

  ==> Primary Basis <==

  Basis Set: ANONYMOUS54525D80
    Blend: 6-31G_2DFP_
    Number of shells: 48
    Number of basis function: 126
    Number of Cartesian functions: 141
    Spherical Harmonics?: true
    Max angular momentum: 3

  ==> DFT Potential <==

   => Composite Functional: B3LYP <= 

    B3LYP Hyb-GGA Exchange-Correlation Functional

    P. J. Stephens, F. J. Devlin, C. F. Chabalowski, and M. J. Frisch, J. Phys. Chem. 98, 11623 (1994)

    Deriv               =              1
    GGA                 =           TRUE
    Meta                =          FALSE

    Exchange Hybrid     =           TRUE
    MP2 Hybrid          =          FALSE

   => Exchange Functionals <=

    0.0800   Slater exchange
    0.7200         Becke 88

   => Exact (HF) Exchange <=

    0.2000               HF 

   => Correlation Functionals <=

    0.1900   Vosko, Wilk & Nusair (VWN5_RPA)
    0.8100   Lee, Yang & Parr

   => Molecular Quadrature <=

    Radial Scheme          =       TREUTLER
    Pruning Scheme         =           NONE
    Nuclear Scheme         =       TREUTLER

    BS radius alpha        =              1
    Pruning alpha          =              1
    Radial Points          =             99
    Spherical Points       =           1202
    Total Points           =        1008427
    Total Blocks           =           6757
    Max Points             =            256
    Max Functions          =            126
    Weights Tolerance      =       1.00E-15

   => Loading Basis Set <=

    Name: (ANONYMOUS54525D80 AUX)
    Role: JKFIT
    Keyword: DF_BASIS_SCF
    atoms 1-2    entry C          line   198 file /opt/psi/4/master/share/psi4/basis/def2-universal-jkfit.gbs 
    atoms 3-7, 9 entry H          line    18 file /opt/psi/4/master/share/psi4/basis/def2-universal-jkfit.gbs 
    atoms 8      entry O          line   318 file /opt/psi/4/master/share/psi4/basis/def2-universal-jkfit.gbs 

  ==> Integral Setup <==

  DFHelper Memory: AOs need 0.044 GiB; user supplied 6.692 GiB. Using in-core AOs.

  ==> MemDFJK: Density-Fitted J/K Matrices <==

    J tasked:                   Yes
    K tasked:                   Yes
    wK tasked:                   No
    OpenMP threads:               1
    Memory [MiB]:              6852
    Algorithm:                 Core
    Schwarz Cutoff:           1E-12
    Mask sparsity (%):       0.6803
    Fitting Condition:        1E-10

   => Auxiliary Basis Set <=

  Basis Set: (ANONYMOUS54525D80 AUX)
    Blend: DEF2-UNIVERSAL-JKFIT
    Number of shells: 111
    Number of basis function: 335
    Number of Cartesian functions: 391
    Spherical Harmonics?: true
    Max angular momentum: 4

  Cached 100.0% of DFT collocation blocks in 3.087 [GiB].

  Minimum eigenvalue in the overlap matrix is 1.9066705391E-03.
  Reciprocal condition number of the overlap matrix is 3.3466144106E-04.
    Using symmetric orthogonalization.

  ==> Pre-Iterations <==

  SCF Guess: Superposition of Atomic Densities via on-the-fly atomic UHF (no occupation information).

   -------------------------
    Irrep   Nso     Nmo    
   -------------------------
     A        126     126 
   -------------------------
    Total     126     126
   -------------------------

  ==> Iterations <==

                           Total Energy        Delta E     RMS |[F,P]|

   @DF-RKS iter SAD:  -154.48845488989875   -1.54488e+02   0.00000e+00 
   @DF-RKS iter   1:  -154.78827682904563   -2.99822e-01   5.87656e-03 DIIS
   @DF-RKS iter   2:  -154.61552273623127    1.72754e-01   7.72466e-03 DIIS
   @DF-RKS iter   3:  -155.04772485187502   -4.32202e-01   7.70463e-04 DIIS
   @DF-RKS iter   4:  -155.05083998303985   -3.11513e-03   3.27260e-04 DIIS
   @DF-RKS iter   5:  -155.05153482774628   -6.94845e-04   5.34075e-05 DIIS
   @DF-RKS iter   6:  -155.05155301108215   -1.81833e-05   1.26944e-05 DIIS
   @DF-RKS iter   7:  -155.05155406770254   -1.05662e-06   4.11143e-06 DIIS
   @DF-RKS iter   8:  -155.05155419528435   -1.27582e-07   5.19219e-07 DIIS
   @DF-RKS iter   9:  -155.05155419730679   -2.02243e-09   4.58624e-08 DIIS
   @DF-RKS iter  10:  -155.05155419732574   -1.89573e-11   1.05112e-08 DIIS
   @DF-RKS iter  11:  -155.05155419732685   -1.10845e-12   1.31987e-09 DIIS
   @DF-RKS iter  12:  -155.05155419732696   -1.13687e-13   2.01315e-10 DIIS
   @DF-RKS iter  13:  -155.05155419732685    1.13687e-13   2.13146e-11 DIIS
  Energy and wave function converged.


  ==> Post-Iterations <==

    Orbital Energies [Eh]
    ---------------------

    Doubly Occupied:                                                      

       1A    -19.133796     2A    -10.222533     3A    -10.165731  
       4A     -1.009297     5A     -0.744753     6A     -0.605184  
       7A     -0.509310     8A     -0.460670     9A     -0.395525  
      10A     -0.378257    11A     -0.361350    12A     -0.326775  
      13A     -0.265084  

    Virtual:                                                              

      14A      0.073245    15A      0.106298    16A      0.146954  
      17A      0.150826    18A      0.164369    19A      0.186343  
      20A      0.205114    21A      0.229412    22A      0.430115  
      23A      0.437649    24A      0.468782    25A      0.470239  
      26A      0.477105    27A      0.512351    28A      0.553272  
      29A      0.569924    30A      0.589743    31A      0.601276  
      32A      0.604454    33A      0.637987    34A      0.641834  
      35A      0.662575    36A      0.701857    37A      0.783947  
      38A      0.830817    39A      0.860464    40A      0.864861  
      41A      0.945915    42A      0.993967    43A      1.025371  
      44A      1.078683    45A      1.105539    46A      1.131660  
      47A      1.158956    48A      1.204175    49A      1.204707  
      50A      1.254302    51A      1.286100    52A      1.324289  
      53A      1.340819    54A      1.388556    55A      1.409606  
      56A      1.418024    57A      1.455045    58A      1.466584  
      59A      1.479748    60A      1.501682    61A      1.627947  
      62A      1.729501    63A      1.754566    64A      1.795956  
      65A      1.863702    66A      1.873605    67A      1.995555  
      68A      2.048435    69A      2.059564    70A      2.214570  
      71A      2.335864    72A      2.651610    73A      2.806184  
      74A      2.844741    75A      2.893920    76A      2.906241  
      77A      2.938676    78A      2.984576    79A      3.055041  
      80A      3.137517    81A      3.152637    82A      3.212775  
      83A      3.261533    84A      3.363628    85A      3.448873  
      86A      3.474722    87A      3.510796    88A      3.528099  
      89A      3.563617    90A      3.642830    91A      3.676872  
      92A      3.704539    93A      3.727005    94A      3.930316  
      95A      3.951969    96A      3.976435    97A      4.043202  
      98A      4.155269    99A      4.190468   100A      4.202331  
     101A      4.244466   102A      4.246226   103A      4.266707  
     104A      4.394801   105A      4.401031   106A      4.495851  
     107A      4.536703   108A      4.545016   109A      4.586183  
     110A      4.938315   111A      5.027578   112A      5.075670  
     113A      5.240651   114A      5.249217   115A      5.326059  
     116A      5.403294   117A      5.546816   118A      5.554959  
     119A      5.764505   120A      5.910347   121A      6.350991  
     122A      6.961823   123A      7.009785   124A      7.229526  
     125A      7.318625   126A      7.447034  

    Final Occupation by Irrep:
              A 
    DOCC [    13 ]

  @DF-RKS Final Energy:  -155.05155419732685

   => Energetics <=

    Nuclear Repulsion Energy =             81.8074604426441709
    One-Electron Energy =                -371.9330851886160758
    Two-Electron Energy =                 152.6491269124337293
    DFT Exchange-Correlation Energy =     -17.5750563637886792
    Empirical Dispersion Energy =           0.0000000000000000
    VV10 Nonlocal Energy =                  0.0000000000000000
    Total Energy =                       -155.0515541973268512

Computation Completed


Properties will be evaluated at   0.000000,   0.000000,   0.000000 [a0]

Properties computed using the SCF density matrix

  Nuclear Dipole Moment: [e a0]
     X:    -2.5685      Y:    -1.1901      Z:     0.0000

  Electronic Dipole Moment: [e a0]
     X:     2.6313      Y:     0.6320      Z:    -0.0000

  Dipole Moment: [e a0]
     X:     0.0628      Y:    -0.5580      Z:     0.0000     Total:     0.5615

  Dipole Moment: [D]
     X:     0.1596      Y:    -1.4184      Z:     0.0000     Total:     1.4273


*** tstop() called on n065 at Mon Nov  1 17:48:39 2021
Module time:
	user time   =      51.56 seconds =       0.86 minutes
	system time =       0.86 seconds =       0.01 minutes
	total time  =         52 seconds =       0.87 minutes
Total time:
	user time   =      51.56 seconds =       0.86 minutes
	system time =       0.86 seconds =       0.01 minutes
	total time  =         52 seconds =       0.87 minutes
Grab this energy -155.05155419732685
    Psi4 stopped on: Monday, 01 November 2021 05:48PM
    Psi4 wall time for execution: 0:00:52.46

*** Psi4 exiting successfully. Buy a developer a beer!
