
 Primary working directories    : /tmp/943168.158.gen6.q
 Secondary working directories  : /tmp/943168.158.gen6.q
 Wavefunction directory         : /home/vulcan/mel64643/wfu/
 Main file repository           : /tmp/943168.158.gen6.q/

 ARCHNAME  : Linux/x86_64
 FC        : /opt/intel/compilers_and_libraries_2016.1.150/linux/bin/intel64/ifort
 FCVERSION : 16.0.1
 BLASLIB   : -mkl
 id        : ccgc

 Nodes     nprocs
 n084         1
 ga_uses_ma=false, calling ma_init with nominal heap.
 GA-space will be limited to   8.0 MW (determined by -G option)

 Using customized tuning parameters: mindgm=10; mindgv=16; mindgc=4; mindgr=1; noblas=0; mincuda=1000; minvec=7
 default implementation of scratch files=df  

 ***,Optimization of h2o_2
 memory,1000,m
 gthresh,energy=1.0d-12,orbital=1.0d-10,oneint=1.0d-16,twoint=1.0d-16,optgrad=1.0d-6,compress=1.0d-13
 geomtyp=xyz
 
 bohr
 geometry = {
  C    0.0000898077   -3.4210074503    0.0013879323
  H   -0.9796861148   -2.7602868928   -1.6918831184
  H   -0.9918339581   -2.7364092894    1.6780190689
  H    1.9279269701   -2.7097545498   -0.0050903982
  H    0.0248029528   -5.4756611923    0.0076358711
  C    0.0037404290    3.4224896326    0.0019862934
  H    0.0041768518    5.4823014363    0.0021677994
  H    0.9705055063    2.7327204905   -1.6810584187
  H    0.9776438175    2.7324227396    1.6807881161
  H   -1.9373662624    2.7331850756    0.0060468543
 }
 
 basis=AVDZ
 {rhf;maxit,200}
 {ccsd(t);maxit,200}

 Variables initialized (661), CPU time= 0.01 sec
 Commands  initialized (458), CPU time= 0.00 sec, 486 directives.
 Default parameters read. Elapsed time= 0.04 sec

 Checking input...
 Passed
1


                                         ***  PROGRAM SYSTEM MOLPRO  ***
                         Copyright, University College Cardiff Consultants Limited, 2008

                                    Version 2010.1 linked May 16 2016 07:17:05


 **********************************************************************************************************************************
 LABEL *   Optimization of h2o_2                                                         
 Linux-4.4.3/n084(x86_64) 64 bit mpp version                                             DATE: 23-Oct-23          TIME: 10:50:49  
 **********************************************************************************************************************************

 SHA1:             9e8077add272b0f3cad6f7df79ec5211205f459d
 **********************************************************************************************************************************

 THRESHOLDS:

 ZERO    =  1.00D-12  ONEINT  =  1.00D-16  TWOINT  =  1.00D-16  PREFAC  =  1.00D-14  LOCALI  =  1.00D-09  EORDER  =  1.00D-04
 ENERGY  =  1.00D-12  ETEST   =  0.00D+00  EDENS   =  0.00D+00  THRDEDEF=  1.00D-06  GRADIENT=  1.00D-02  STEP    =  1.00D-03
 ORBITAL =  1.00D-10  CIVEC   =  1.00D-05  COEFF   =  1.00D-04  PRINTCI =  5.00D-02  PUNCHCI =  9.90D+01  OPTGRAD =  1.00D-06
 OPTENERG=  1.00D-06  OPTSTEP =  3.00D-04  THRGRAD =  1.00D-10  COMPRESS=  1.00D-13  VARMIN  =  1.00D-07  VARMAX  =  1.00D-03
 THRDOUB =  0.00D+00  THRDIV  =  1.00D-05  THRRED  =  1.00D-07  THRPSP  =  1.00D+00  THRDC   =  1.00D-10  THRCS   =  1.00D-10
 THRNRM  =  1.00D-08  THREQ   =  0.00D+00  THRDE   =  1.00D+00  THRREF  =  1.00D-05  SPARFAC =  1.00D+00  THRDLP  =  1.00D-07
 THRDIA  =  1.00D-10  THRDLS  =  1.00D-07  THRGPS  =  0.00D+00  THRKEX  =  0.00D+00  THRDIS  =  2.00D-01  THRVAR  =  1.00D-10
 THRLOC  =  1.00D-06  THRGAP  =  1.00D-06  THRLOCT = -1.00D+00  THRGAPT = -1.00D+00  THRORB  =  1.00D-06  THRMLTP =  0.00D+00
 THRCPQCI=  1.00D-10  KEXTA   =  0.00D+00  THRCOARS=  0.00D+00  SYMTOL  =  1.00D-06  GRADTOL =  1.00D-06  THROVL  =  1.00D-08
 THRORTH =  1.00D-08  GRID    =  1.00D-06  GRIDMAX =  1.00D-03  DTMAX   =  0.00D+00

 SETTING GEOMTYP        =    XYZ
 ZUNIT=BOHR
 

 Variable memory set to 1000000000 words,  buffer space   230000 words

 SETTING BASIS          =    AVDZ


 Recomputing integrals since basis changed


 Using spherical harmonics

 Library entry C      S aug-cc-pVDZ          selected for orbital group  1
 Library entry C      P aug-cc-pVDZ          selected for orbital group  1
 Library entry C      D aug-cc-pVDZ          selected for orbital group  1
 Library entry H      S aug-cc-pVDZ          selected for orbital group  2
 Library entry H      P aug-cc-pVDZ          selected for orbital group  2

1PROGRAM * SEWARD (Integral evaluation for generally contracted gaussian basis sets)     Author: Roland Lindh, 1990

 Geometry written to block  1 of record 700


 Point group  C1  



 ATOMIC COORDINATES

 NR  ATOM    CHARGE       X              Y              Z

   1  C       6.00    0.000089808   -3.421007450    0.001387932
   2  H       1.00   -0.979686115   -2.760286893   -1.691883118
   3  H       1.00   -0.991833958   -2.736409289    1.678019069
   4  H       1.00    1.927926970   -2.709754550   -0.005090398
   5  H       1.00    0.024802953   -5.475661192    0.007635871
   6  C       6.00    0.003740429    3.422489633    0.001986293
   7  H       1.00    0.004176852    5.482301436    0.002167799
   8  H       1.00    0.970505506    2.732720491   -1.681058419
   9  H       1.00    0.977643817    2.732422740    1.680788116
  10  H       1.00   -1.937366262    2.733185076    0.006046854

 Bond lengths in Bohr (Angstrom)

 1-2  2.064867881  1-3  2.064867881  1-4  2.054867096  1-5  2.054811859  6-7  2.059811858
     ( 1.092681022)     ( 1.092681022)     ( 1.087388835)     ( 1.087359605)     ( 1.090005490)

  6- 8  2.059867881   6- 9  2.059867881   6-10  2.059867095
       ( 1.090035136)       ( 1.090035136)       ( 1.090034720)

 Bond angles

  2-1-3  109.37964658   2-1-4  109.37953055   2-1-5  109.15698681   3-1-4  109.78467281

  3-1-5  109.56212912   4-1-5  109.56222118   7-6-8  109.56240831   7-6-9  109.56240831

  7- 6-10  109.56250040   8- 6- 9  109.37992579   8- 6-10  109.37980975   9- 6-10  109.37980975

 NUCLEAR CHARGE:                   20
 NUMBER OF PRIMITIVE AOS:         162
 NUMBER OF SYMMETRY AOS:          158
 NUMBER OF CONTRACTIONS:          118   ( 118A   )
 NUMBER OF CORE ORBITALS:           2   (   2A   )
 NUMBER OF VALENCE ORBITALS:       16   (  16A   )


 NUCLEAR REPULSION ENERGY   41.33925412


 Eigenvalues of metric

         1 0.369E-03 0.571E-03 0.577E-03 0.608E-03 0.728E-03 0.733E-03 0.777E-03 0.101E-02


 Contracted 2-electron integrals neglected if value below      1.0D-16
 AO integral compression algorithm  1   Integral accuracy      1.0D-16

     213.123 MB (compressed) written to integral file ( 93.1%)

     Node minimum: 213.123 MB, node maximum: 213.123 MB


 NUMBER OF SORTED TWO-ELECTRON INTEGRALS:   24650731.     BUFFER LENGTH:  32768
 NUMBER OF SEGMENTS:   2  SEGMENT LENGTH:   15997996      RECORD LENGTH: 524288

 Memory used in sort:      16.56 MW

 SORT1 READ    28594353. AND WROTE    24455512. INTEGRALS IN     71 RECORDS. CPU TIME:     0.24 SEC, REAL TIME:     0.38 SEC
 SORT2 READ    24455512. AND WROTE    24650731. INTEGRALS IN    813 RECORDS. CPU TIME:     0.19 SEC, REAL TIME:     0.30 SEC

 FILE SIZES:   FILE 1:   189.8 MBYTE,  FILE 4:   297.8 MBYTE,   TOTAL:    487.6 MBYTE

 OPERATOR DM      FOR CENTER  0  COORDINATES:    0.000000    0.000000    0.000000


 **********************************************************************************************************************************
 DATASETS  * FILE   NREC   LENGTH (MB)   RECORD NAMES
              1      19      189.96       500      610      700      900      950      970     1000      129      960     1100   
                                          VAR    BASINP    GEOM    SYMINP    ZMAT    AOBASIS   BASIS     P2S    ABASIS      S 
                                         1400     1410     1200     1210     1080     1600     1650     1300     1700   
                                           T        V       H0       H01     AOSYM     SMH    MOLCAS    ERIS     OPER   

 PROGRAMS   *        TOTAL       INT
 CPU TIMES  *         1.35      1.31
 REAL TIME  *         1.86 SEC
 DISK USED  *       701.52 MB      
 GA USED    *         0.00 MB       (max)       0.00 MB       (current)
 **********************************************************************************************************************************

1PROGRAM * RHF-SCF (CLOSED SHELL)       Authors: W. Meyer, H.-J. Werner


 NUMBER OF ELECTRONS:      10+   10-    SPACE SYMMETRY=1    SPIN SYMMETRY: Singlet 
 CONVERGENCE THRESHOLDS:    1.00E-10 (Density)    1.00E-13 (Energy)
 MAX. NUMBER OF ITERATIONS:      200
 INTERPOLATION TYPE:            DIIS
 INTERPOLATION STEPS:              2 (START)      1 (STEP)
 LEVEL SHIFTS:                  0.00 (CLOSED)  0.00 (OPEN) 



 Orbital guess generated from atomic densities. Full valence occupancy:   18

 Molecular orbital dump at record        2100.2

 ITERATION    DDIFF          GRAD             ENERGY        2-EL.EN.            DIPOLE MOMENTS         DIIS
    1      0.000D+00      0.000D+00       -80.36231648    134.789619   -0.00391   -0.00059   -0.00258    0
    2      0.000D+00      0.368D-02       -80.39420881    132.484744    0.00070   -0.00174   -0.00080    1
    3      0.809D-02      0.137D-02       -80.39818374    133.312270    0.00042   -0.00200   -0.00114    2
    4      0.256D-02      0.371D-03       -80.39877072    133.181523    0.00087   -0.00219   -0.00099    3
    5      0.868D-03      0.458D-04       -80.39877944    133.188428    0.00094   -0.00222   -0.00097    4
    6      0.877D-04      0.295D-05       -80.39877949    133.188263    0.00094   -0.00223   -0.00097    5
    7      0.107D-04      0.223D-06       -80.39877949    133.188246    0.00094   -0.00223   -0.00097    5
    8      0.155D-05      0.352D-07       -80.39877949    133.188246    0.00094   -0.00223   -0.00097    4
    9      0.290D-06      0.589D-08       -80.39877949    133.188247    0.00094   -0.00223   -0.00097    4
   10      0.204D-07      0.104D-08       -80.39877949    133.188247    0.00094   -0.00223   -0.00097    5
   11      0.243D-08      0.263D-09       -80.39877949    133.188247    0.00094   -0.00223   -0.00097    5
   12      0.122D-08      0.804D-10       -80.39877949    133.188247    0.00094   -0.00223   -0.00097    6
   13      0.271D-09      0.173D-10       -80.39877949    133.188247    0.00094   -0.00223   -0.00097    6
   14      0.495D-10      0.354D-11       -80.39877949    133.188247    0.00094   -0.00223   -0.00097    6
   15      0.170D-10      0.406D-12       -80.39877949    133.188247    0.00094   -0.00223   -0.00097    6
   16      0.230D-11      0.111D-12       -80.39877949    133.188247    0.00094   -0.00223   -0.00097    6
   17      0.160D-11      0.489D-13       -80.39877949    133.188247    0.00094   -0.00223   -0.00097    6
   18      0.781D-12      0.529D-13       -80.39877949    133.188247    0.00094   -0.00223   -0.00097    0

 Final occupancy:  10

 !RHF STATE 1.1 Energy                -80.398779489908
 Nuclear energy                        41.33925412
 One-electron energy                 -188.33215700
 Two-electron energy                   66.59412339
 Virial quotient                       -1.00196124
 !RHF STATE 1.1 Dipole moment           0.00093969    -0.00222810    -0.00097270
 Dipole moment /Debye                   0.00238829    -0.00566290    -0.00247220

 Orbital energies:

         1.1          2.1          3.1          4.1          5.1          6.1          7.1          8.1          9.1         10.1
    -11.214648   -11.214585    -0.945537    -0.939600    -0.550974    -0.547000    -0.545981    -0.539436    -0.538553    -0.535642

        11.1         12.1
      0.035476     0.045869


 **********************************************************************************************************************************
 DATASETS  * FILE   NREC   LENGTH (MB)   RECORD NAMES
              1      19      189.96       500      610      700      900      950      970     1000      129      960     1100   
                                          VAR    BASINP    GEOM    SYMINP    ZMAT    AOBASIS   BASIS     P2S    ABASIS      S 
                                         1400     1410     1200     1210     1080     1600     1650     1300     1700   
                                           T        V       H0       H01     AOSYM     SMH    MOLCAS    ERIS     OPER   

              2       3        0.70       700     1000     2100   
                                         GEOM     BASIS     RHF  

 PROGRAMS   *        TOTAL       RHF       INT
 CPU TIMES  *         4.02      2.66      1.31
 REAL TIME  *         4.91 SEC
 DISK USED  *       701.52 MB      
 GA USED    *         0.00 MB       (max)       0.00 MB       (current)
 **********************************************************************************************************************************


1PROGRAM * CCSD (Closed-shell coupled cluster)     Authors: C. Hampel, H.-J. Werner, 1991, M. Deegan, P.J. Knowles, 1992


 Convergence thresholds:  THRVAR = 1.00D-08  THRDEN = 1.00D-12

 CCSD(T)     terms to be evaluated (factor= 1.000)


 Number of core orbitals:           2 (   2 )
 Number of closed-shell orbitals:   8 (   8 )
 Number of external orbitals:     108 ( 108 )

 Molecular orbitals read from record     2100.2  Type=RHF/CANONICAL (state 1.1)

 Number of N-1 electron functions:               8
 Number of N-2 electron functions:              36
 Number of singly external CSFs:               864
 Number of doubly external CSFs:            373680
 Total number of CSFs:                      374545

 Length of J-op  integral file:               0.00 MB
 Length of K-op  integral file:               1.00 MB
 Length of 3-ext integral record:             0.00 MB

 Memory could be reduced to 14.62 Mwords without degradation in triples

 Integral transformation finished. Total CPU:   0.55 sec, npass=  1  Memory used:   8.61 MW

 Reference energy:                    -80.39877949

 MP2 singlet pair energy:              -0.24106663
 MP2 triplet pair energy:              -0.09675884
 MP2 correlation energy:               -0.33782547
 MP2 total energy:                    -80.73660496

 SCS-MP2 correlation energy:           -0.34948546   (PS=  1.200000  PT=  0.333333)
 SCS-MP2 total energy:                -80.74826495

 ITER.      SQ.NORM     CORR.ENERGY   TOTAL ENERGY   ENERGY CHANGE        DEN1      VAR(S)    VAR(P)  DIIS     TIME
   1      1.14044044    -0.38147766   -80.78025715    -0.04365219    -0.03251932  0.70D-03  0.24D-02  1  1     1.26
   2      1.15349103    -0.38423333   -80.78301282    -0.00275567    -0.01269530  0.16D-04  0.11D-03  2  2     2.02
   3      1.15560280    -0.38436613   -80.78314562    -0.00013280    -0.00112978  0.25D-05  0.71D-05  3  3     2.78
   4      1.15605012    -0.38438428   -80.78316377    -0.00001815    -0.00017682  0.10D-06  0.45D-06  4  4     3.54
   5      1.15612115    -0.38438097   -80.78316046     0.00000331    -0.00003213  0.39D-08  0.31D-07  5  5     4.30
   6      1.15612500    -0.38437997   -80.78315946     0.00000100    -0.00000139  0.28D-09  0.20D-08  6  6     5.06
   7      1.15612537    -0.38438019   -80.78315968    -0.00000022    -0.00000001  0.24D-10  0.13D-09  6  1     5.81
   8      1.15612544    -0.38438020   -80.78315969    -0.00000002    -0.00000006  0.24D-11  0.96D-11  6  2     6.57
   9      1.15612538    -0.38438021   -80.78315970    -0.00000000     0.00000003  0.45D-12  0.75D-12  6  3     7.33
  10      1.15612534    -0.38438021   -80.78315970    -0.00000000     0.00000002  0.35D-13  0.66D-13  6  4     8.08
  11      1.15612531    -0.38438021   -80.78315970    -0.00000000     0.00000002  0.32D-14  0.71D-14  6  5     8.84
  12      1.15612530    -0.38438021   -80.78315970    -0.00000000     0.00000001  0.28D-15  0.85D-15  6  6     9.60
  13      1.15612530    -0.38438021   -80.78315970    -0.00000000     0.00000000  0.22D-16  0.10D-15  6  1    10.36
  14      1.15612530    -0.38438021   -80.78315970    -0.00000000     0.00000000  0.25D-17  0.11D-16  6  3    11.13
  15      1.15612530    -0.38438021   -80.78315970    -0.00000000     0.00000000  0.19D-18  0.60D-18  6  2    11.89
  16      1.15612530    -0.38438021   -80.78315970    -0.00000000     0.00000000  0.26D-19  0.46D-19  6  4    12.65
  17      1.15612530    -0.38438021   -80.78315970    -0.00000000     0.00000000  0.31D-20  0.59D-20  6  5    13.40
  18      1.15612530    -0.38438021   -80.78315970    -0.00000000     0.00000000  0.34D-21  0.49D-21  6  6    14.17

 Norm of t1 vector:      0.03916168      S-energy:     0.00000000      T1 diagnostic:  0.00692287
                                                                       D1 diagnostic:  0.01252691


 Total CPU time for triples:      8.69 sec


 RESULTS
 =======

  Reference energy                    -80.398779489908
  CCSD singlet pair energy             -0.290158631055
  CCSD triplet pair energy             -0.094221579511
  CCSD correlation energy              -0.384380210566

  Triples (T) contribution             -0.009219573697
  Total correlation energy             -0.393599784264

  CCSD total energy                   -80.783159700475
  CCSD[T] energy                      -80.792600192942
  CCSD-T energy                       -80.792262052770
 !CCSD(T) total energy                -80.792379274172

 Timing summary (sec):

 STEP                 CPU(USER)    SYS     CPU(TOT)    WALL
 Transformation          0.57      0.08      0.65      0.64
 CCSD iterations        13.60      0.63     14.23     14.28
 Triples                 8.69      0.18      8.87      8.88

 Program statistics:

 Available memory in ccsd:               999999644
 Min. memory needed in ccsd:               1156281
 Max. memory used in ccsd:                 1468601
 Max. memory used in cckext:               1135046 (18 integral passes)



 **********************************************************************************************************************************
 DATASETS  * FILE   NREC   LENGTH (MB)   RECORD NAMES
              1      20      236.93       500      610      700      900      950      970     1000      129      960     1100   
                                          VAR    BASINP    GEOM    SYMINP    ZMAT    AOBASIS   BASIS     P2S    ABASIS      S 
                                         1400     1410     1200     1210     1080     1600     1650     1300     1700     1380   
                                           T        V       H0       H01     AOSYM     SMH    MOLCAS    ERIS     OPER     JKOP   

              2       3        0.70       700     1000     2100   
                                         GEOM     BASIS     RHF  

 PROGRAMS   *        TOTAL   CCSD(T)       RHF       INT
 CPU TIMES  *        26.89     22.88      2.66      1.31
 REAL TIME  *        28.74 SEC
 DISK USED  *       701.52 MB      
 GA USED    *         0.00 MB       (max)       0.00 MB       (current)
 **********************************************************************************************************************************

        CCSD(T)         RHF-SCF 
    -80.79237927    -80.39877949
 **********************************************************************************************************************************
 Variable memory released
