
 Primary working directories    : /tmp/1065196.152.gen6.q
 Secondary working directories  : /tmp/1065196.152.gen6.q
 Wavefunction directory         : /home/vulcan/jj04645/wfu/
 Main file repository           : /tmp/1065196.152.gen6.q/

 ARCHNAME  : Linux/x86_64
 FC        : /opt/intel/compilers_and_libraries_2016.1.150/linux/bin/intel64/ifort
 FCVERSION : 16.0.1
 BLASLIB   : -mkl
 id        : ccgc

 Nodes     nprocs
 n084         1
 ga_uses_ma=false, calling ma_init with nominal heap.
 GA-space will be limited to   8.0 MW (determined by -G option)

 Using customized tuning parameters: mindgm=10; mindgv=16; mindgc=4; mindgr=1; noblas=0; mincuda=1000; minvec=7
 default implementation of scratch files=df  

 ***,Optimization of t-butanol
 memory,1000,m
 gthresh,energy=1.0d-12,orbital=1.0d-10,oneint=1.0d-16,twoint=1.0d-16,optgrad=1.0d-6,compress=1.0d-13
 geomtyp=xyz
 
 bohr
 geometry = {
  C    0.0053881350   -0.0557281309   -0.0001489360
  O   -0.0222152058    2.6570337637   -0.0010884485
  C   -2.7727404109   -0.8325464563    0.0006639031
  C    1.3393175024   -1.0177725473   -2.3821817046
  C    1.3402474250   -1.0161130917    2.3820325285
  H    1.7103154086    3.2117511904   -0.0016198369
  H   -2.9505871014   -2.8886410025    0.0014147929
  H   -3.7160761445   -0.0830121394   -1.6735297765
  H   -3.7154223929   -0.0818460688    1.6747033544
  H    1.3092602374   -3.0809989541   -2.4673181653
  H    3.3154274870   -0.4077409715   -2.4014164552
  H    0.4093201065   -0.2685465178   -4.0639329208
  H    1.3238647328   -3.0797468718    2.4607858872
  H    3.3121619511   -0.3928865002    2.4077402544
  H    0.4013508312   -0.2783245006    4.0638955234
 }
 
 basis=VDZ
 {rhf;maxit,200}
 {ccsd(t);maxit,200}

 Variables initialized (661), CPU time= 0.00 sec
 Commands  initialized (458), CPU time= 0.01 sec, 486 directives.
 Default parameters read. Elapsed time= 0.04 sec

 Checking input...
 Passed
1


                                         ***  PROGRAM SYSTEM MOLPRO  ***
                         Copyright, University College Cardiff Consultants Limited, 2008

                                    Version 2010.1 linked May 16 2016 07:17:05


 **********************************************************************************************************************************
 LABEL *   Optimization of t-butanol                                                     
 Linux-4.4.3/n084(x86_64) 64 bit mpp version                                             DATE: 20-May-24          TIME: 10:42:20  
 **********************************************************************************************************************************

 SHA1:             9e8077add272b0f3cad6f7df79ec5211205f459d
 **********************************************************************************************************************************

 THRESHOLDS:

 ZERO    =  1.00D-12  ONEINT  =  1.00D-16  TWOINT  =  1.00D-16  PREFAC  =  1.00D-14  LOCALI  =  1.00D-09  EORDER  =  1.00D-04
 ENERGY  =  1.00D-12  ETEST   =  0.00D+00  EDENS   =  0.00D+00  THRDEDEF=  1.00D-06  GRADIENT=  1.00D-02  STEP    =  1.00D-03
 ORBITAL =  1.00D-10  CIVEC   =  1.00D-05  COEFF   =  1.00D-04  PRINTCI =  5.00D-02  PUNCHCI =  9.90D+01  OPTGRAD =  1.00D-06
 OPTENERG=  1.00D-06  OPTSTEP =  3.00D-04  THRGRAD =  1.00D-10  COMPRESS=  1.00D-13  VARMIN  =  1.00D-07  VARMAX  =  1.00D-03
 THRDOUB =  0.00D+00  THRDIV  =  1.00D-05  THRRED  =  1.00D-07  THRPSP  =  1.00D+00  THRDC   =  1.00D-10  THRCS   =  1.00D-10
 THRNRM  =  1.00D-08  THREQ   =  0.00D+00  THRDE   =  1.00D+00  THRREF  =  1.00D-05  SPARFAC =  1.00D+00  THRDLP  =  1.00D-07
 THRDIA  =  1.00D-10  THRDLS  =  1.00D-07  THRGPS  =  0.00D+00  THRKEX  =  0.00D+00  THRDIS  =  2.00D-01  THRVAR  =  1.00D-10
 THRLOC  =  1.00D-06  THRGAP  =  1.00D-06  THRLOCT = -1.00D+00  THRGAPT = -1.00D+00  THRORB  =  1.00D-06  THRMLTP =  0.00D+00
 THRCPQCI=  1.00D-10  KEXTA   =  0.00D+00  THRCOARS=  0.00D+00  SYMTOL  =  1.00D-06  GRADTOL =  1.00D-06  THROVL  =  1.00D-08
 THRORTH =  1.00D-08  GRID    =  1.00D-06  GRIDMAX =  1.00D-03  DTMAX   =  0.00D+00

 SETTING GEOMTYP        =    XYZ
 ZUNIT=BOHR
 

 Variable memory set to 1000000000 words,  buffer space   230000 words

 SETTING BASIS          =    VDZ


 Recomputing integrals since basis changed


 Using spherical harmonics

 Library entry C      S cc-pVDZ              selected for orbital group  1
 Library entry C      P cc-pVDZ              selected for orbital group  1
 Library entry C      D cc-pVDZ              selected for orbital group  1
 Library entry O      S cc-pVDZ              selected for orbital group  2
 Library entry O      P cc-pVDZ              selected for orbital group  2
 Library entry O      D cc-pVDZ              selected for orbital group  2
 Library entry H      S cc-pVDZ              selected for orbital group  4
 Library entry H      P cc-pVDZ              selected for orbital group  4

1PROGRAM * SEWARD (Integral evaluation for generally contracted gaussian basis sets)     Author: Roland Lindh, 1990

 Geometry written to block  1 of record 700


 Point group  C1  



 ATOMIC COORDINATES

 NR  ATOM    CHARGE       X              Y              Z

   1  C       6.00    0.005388135   -0.055728131   -0.000148936
   2  O       8.00   -0.022215206    2.657033764   -0.001088449
   3  C       6.00   -2.772740411   -0.832546456    0.000663903
   4  C       6.00    1.339317502   -1.017772547   -2.382181705
   5  C       6.00    1.340247425   -1.016113092    2.382032528
   6  H       1.00    1.710315409    3.211751190   -0.001619837
   7  H       1.00   -2.950587101   -2.888641002    0.001414793
   8  H       1.00   -3.716076145   -0.083012139   -1.673529776
   9  H       1.00   -3.715422393   -0.081846069    1.674703354
  10  H       1.00    1.309260237   -3.080998954   -2.467318165
  11  H       1.00    3.315427487   -0.407740971   -2.401416455
  12  H       1.00    0.409320107   -0.268546518   -4.063932921
  13  H       1.00    1.323864733   -3.079746872    2.460785887
  14  H       1.00    3.312161951   -0.392886500    2.407740254
  15  H       1.00    0.401350831   -0.278324501    4.063895523

 Bond lengths in Bohr (Angstrom)

 1-2  2.712902491  1-3  2.884691593  1-4  2.894646287  1-5  2.894646287  2-6  1.819168501
     ( 1.435606168)     ( 1.526513046)     ( 1.531780843)     ( 1.531780843)     ( 0.962662510)

  3- 7  2.063771982   3- 8  2.062670229   3- 9  2.062670229   4-10  2.065200925   4-11  2.068216423
       ( 1.092101097)       ( 1.091518075)       ( 1.091518075)       ( 1.092857262)       ( 1.094452994)

  4-12  2.062649256   5-13  2.065200925   5-14  2.068216422   5-15  2.062649256
       ( 1.091506976)       ( 1.092857262)       ( 1.094452994)       ( 1.091506976)

 Bond angles

  1-2-6  107.17091859   1-3-7  110.56564853   1-3-8  110.02067987   1-3-9  110.02067519

  1- 4-10  111.05427771   1- 4-11  110.48289374   1- 4-12  110.02622484   1- 5-13  111.05427806

  1- 5-14  110.48289343   1- 5-15  110.02622479   2- 1- 3  105.03903602   2- 1- 4  109.67835924

  2-1-5  109.67835923   3-1-4  110.76498583   3-1-5  110.76498583   4-1-5  110.75948302

  7- 3- 8  108.83917112   7- 3- 9  108.83916635   8- 3- 9  108.51019473  10- 4-11  107.95054619

 10- 4-12  108.82712295  11- 4-12  108.42572259  13- 5-14  107.95054629  13- 5-15  108.82712353

 14- 5-15  108.42572190

 NUCLEAR CHARGE:                   42
 NUMBER OF PRIMITIVE AOS:         205
 NUMBER OF SYMMETRY AOS:          200
 NUMBER OF CONTRACTIONS:          120   ( 120A   )
 NUMBER OF CORE ORBITALS:           5   (   5A   )
 NUMBER OF VALENCE ORBITALS:       30   (  30A   )


 NUCLEAR REPULSION ENERGY  199.42773790


 Eigenvalues of metric

         1 0.262E-02 0.492E-02 0.494E-02 0.837E-02 0.169E-01 0.192E-01 0.193E-01 0.241E-01


 Contracted 2-electron integrals neglected if value below      1.0D-16
 AO integral compression algorithm  1   Integral accuracy      1.0D-16

     221.512 MB (compressed) written to integral file ( 96.8%)

     Node minimum: 221.512 MB, node maximum: 221.512 MB


 NUMBER OF SORTED TWO-ELECTRON INTEGRALS:   26357430.     BUFFER LENGTH:  32768
 NUMBER OF SEGMENTS:   2  SEGMENT LENGTH:   15997996      RECORD LENGTH: 524288

 Memory used in sort:      16.56 MW

 SORT1 READ    28587587. AND WROTE    26318276. INTEGRALS IN     76 RECORDS. CPU TIME:     0.25 SEC, REAL TIME:     0.40 SEC
 SORT2 READ    26318276. AND WROTE    26357430. INTEGRALS IN    845 RECORDS. CPU TIME:     0.19 SEC, REAL TIME:     0.31 SEC

 FILE SIZES:   FILE 1:   206.6 MBYTE,  FILE 4:   318.8 MBYTE,   TOTAL:    525.4 MBYTE

 OPERATOR DM      FOR CENTER  0  COORDINATES:    0.000000    0.000000    0.000000


 **********************************************************************************************************************************
 DATASETS  * FILE   NREC   LENGTH (MB)   RECORD NAMES
              1      19      206.82       500      610      700      900      950      970     1000      129      960     1100   
                                          VAR    BASINP    GEOM    SYMINP    ZMAT    AOBASIS   BASIS     P2S    ABASIS      S 
                                         1400     1410     1200     1210     1080     1600     1650     1300     1700   
                                           T        V       H0       H01     AOSYM     SMH    MOLCAS    ERIS     OPER   

 PROGRAMS   *        TOTAL       INT
 CPU TIMES  *         2.53      2.48
 REAL TIME  *         3.07 SEC
 DISK USED  *       747.92 MB      
 GA USED    *         0.01 MB       (max)       0.00 MB       (current)
 **********************************************************************************************************************************

1PROGRAM * RHF-SCF (CLOSED SHELL)       Authors: W. Meyer, H.-J. Werner


 NUMBER OF ELECTRONS:      21+   21-    SPACE SYMMETRY=1    SPIN SYMMETRY: Singlet 
 CONVERGENCE THRESHOLDS:    1.00E-10 (Density)    1.00E-13 (Energy)
 MAX. NUMBER OF ITERATIONS:      200
 INTERPOLATION TYPE:            DIIS
 INTERPOLATION STEPS:              2 (START)      1 (STEP)
 LEVEL SHIFTS:                  0.00 (CLOSED)  0.00 (OPEN) 



 Orbital guess generated from atomic densities. Full valence occupancy:   35

 Molecular orbital dump at record        2100.2

 ITERATION    DDIFF          GRAD             ENERGY        2-EL.EN.            DIPOLE MOMENTS         DIIS
    1      0.000D+00      0.000D+00      -232.08683446    560.647854    0.88961   -0.62220    0.00011    0
    2      0.000D+00      0.616D-02      -232.16303822    555.476298    0.40939   -0.32360    0.00012    1
    3      0.122D-01      0.265D-02      -232.17373718    557.449488    0.53016   -0.42937    0.00009    2
    4      0.389D-02      0.734D-03      -232.17503817    557.228410    0.50332   -0.39337    0.00009    3
    5      0.141D-02      0.192D-03      -232.17511550    557.164560    0.50257   -0.40557    0.00009    4
    6      0.307D-03      0.357D-04      -232.17511854    557.184351    0.50194   -0.40392    0.00009    5
    7      0.899D-04      0.650D-05      -232.17511868    557.178885    0.50188   -0.40409    0.00009    6
    8      0.184D-04      0.206D-05      -232.17511869    557.180440    0.50189   -0.40419    0.00009    7
    9      0.395D-05      0.682D-06      -232.17511869    557.180077    0.50185   -0.40420    0.00009    7
   10      0.153D-05      0.191D-06      -232.17511869    557.180133    0.50186   -0.40422    0.00009    7
   11      0.502D-06      0.390D-07      -232.17511869    557.180122    0.50186   -0.40422    0.00009    7
   12      0.123D-06      0.120D-07      -232.17511869    557.180130    0.50186   -0.40422    0.00009    7
   13      0.242D-07      0.519D-08      -232.17511869    557.180128    0.50186   -0.40422    0.00009    7
   14      0.102D-07      0.170D-08      -232.17511869    557.180127    0.50186   -0.40422    0.00009    8
   15      0.303D-08      0.443D-09      -232.17511869    557.180128    0.50186   -0.40422    0.00009    8
   16      0.106D-08      0.109D-09      -232.17511869    557.180128    0.50186   -0.40422    0.00009    7
   17      0.253D-09      0.303D-10      -232.17511869    557.180128    0.50186   -0.40422    0.00009    7
   18      0.789D-10      0.859D-11      -232.17511869    557.180128    0.50186   -0.40422    0.00009    8
   19      0.173D-10      0.230D-11      -232.17511869    557.180128    0.50186   -0.40422    0.00009    8
   20      0.630D-11      0.774D-12      -232.17511869    557.180128    0.50186   -0.40422    0.00009    7
   21      0.180D-11      0.276D-12      -232.17511869    557.180128    0.50186   -0.40422    0.00009    7
   22      0.653D-12      0.908D-13      -232.17511869    557.180128    0.50186   -0.40422    0.00009    7
   23      0.336D-12      0.444D-13      -232.17511869    557.180128    0.50186   -0.40422    0.00009    8
   24      0.213D-12      0.262D-13      -232.17511869    557.180128    0.50186   -0.40422    0.00009    8
   25      0.106D-12      0.239D-13      -232.17511869    557.180128    0.50186   -0.40422    0.00009    9
   26      0.815D-13      0.305D-13      -232.17511869    557.180128    0.50186   -0.40422    0.00009    9
   27      0.510D-13      0.221D-13      -232.17511869    557.180128    0.50186   -0.40422    0.00009    9
   28      0.432D-13      0.228D-13      -232.17511869    557.180128    0.50186   -0.40422    0.00009    9
   29      0.354D-13      0.270D-13      -232.17511869    557.180128    0.50186   -0.40422    0.00009    9
   30      0.285D-13      0.271D-13      -232.17511869    557.180128    0.50186   -0.40422    0.00009    9
   31      0.200D-13      0.265D-13      -232.17511869    557.180128    0.50186   -0.40422    0.00009    9
   32      0.289D-13      0.211D-13      -232.17511869    557.180128    0.50186   -0.40422    0.00009    9
   33      0.233D-13      0.231D-13      -232.17511869    557.180128    0.50186   -0.40422    0.00009    9
   34      0.210D-13      0.181D-13      -232.17511869    557.180128    0.50186   -0.40422    0.00009    0

 Final occupancy:  21

 !RHF STATE 1.1 Energy               -232.175118690296
 Nuclear energy                       199.42773790
 One-electron energy                 -710.19292035
 Two-electron energy                  278.59006376
 Virial quotient                       -1.00096806
 !RHF STATE 1.1 Dipole moment           0.50185742    -0.40422073     0.00009178
 Dipole moment /Debye                   1.27551078    -1.02735934     0.00023326

 Orbital energies:

         1.1          2.1          3.1          4.1          5.1          6.1          7.1          8.1          9.1         10.1
    -20.545274   -11.282903   -11.220722   -11.220693   -11.214689    -1.352090    -1.063041    -0.939628    -0.937780    -0.766788

        11.1         12.1         13.1         14.1         15.1         16.1         17.1         18.1         19.1         20.1
     -0.665185    -0.620244    -0.617683    -0.573177    -0.553895    -0.527901    -0.514751    -0.505435    -0.500386    -0.457670

        21.1         22.1         23.1
     -0.426463     0.166817     0.220180


 **********************************************************************************************************************************
 DATASETS  * FILE   NREC   LENGTH (MB)   RECORD NAMES
              1      19      206.82       500      610      700      900      950      970     1000      129      960     1100   
                                          VAR    BASINP    GEOM    SYMINP    ZMAT    AOBASIS   BASIS     P2S    ABASIS      S 
                                         1400     1410     1200     1210     1080     1600     1650     1300     1700   
                                           T        V       H0       H01     AOSYM     SMH    MOLCAS    ERIS     OPER   

              2       3        0.80       700     1000     2100   
                                         GEOM     BASIS     RHF  

 PROGRAMS   *        TOTAL       RHF       INT
 CPU TIMES  *         7.63      5.11      2.48
 REAL TIME  *         8.84 SEC
 DISK USED  *       747.92 MB      
 GA USED    *         0.01 MB       (max)       0.00 MB       (current)
 **********************************************************************************************************************************


1PROGRAM * CCSD (Closed-shell coupled cluster)     Authors: C. Hampel, H.-J. Werner, 1991, M. Deegan, P.J. Knowles, 1992


 Convergence thresholds:  THRVAR = 1.00D-08  THRDEN = 1.00D-12

 CCSD(T)     terms to be evaluated (factor= 1.000)


 Number of core orbitals:           5 (   5 )
 Number of closed-shell orbitals:  16 (  16 )
 Number of external orbitals:      99 (  99 )

 Molecular orbitals read from record     2100.2  Type=RHF/CANONICAL (state 1.1)

 Number of N-1 electron functions:              16
 Number of N-2 electron functions:             136
 Number of singly external CSFs:              1584
 Number of doubly external CSFs:           1255320
 Total number of CSFs:                     1256905

 Length of J-op  integral file:               0.00 MB
 Length of K-op  integral file:               1.03 MB
 Length of 3-ext integral record:             0.00 MB

 Memory could be reduced to 21.47 Mwords without degradation in triples

 Integral transformation finished. Total CPU:   1.09 sec, npass=  1  Memory used:  18.35 MW

 Reference energy:                   -232.17511869

 MP2 singlet pair energy:              -0.49770002
 MP2 triplet pair energy:              -0.27467755
 MP2 correlation energy:               -0.77237757
 MP2 total energy:                   -232.94749627

 SCS-MP2 correlation energy:           -0.76815050   (PS=  1.200000  PT=  0.333333)
 SCS-MP2 total energy:               -232.94326919

 ITER.      SQ.NORM     CORR.ENERGY   TOTAL ENERGY   ENERGY CHANGE        DEN1      VAR(S)    VAR(P)  DIIS     TIME
   1      1.27383216    -0.82961683  -233.00473552    -0.05723925    -0.03608531  0.25D-02  0.44D-02  1  1     4.44
   2      1.29504671    -0.83394440  -233.00906309    -0.00432758    -0.02222146  0.67D-04  0.42D-03  2  2     7.83
   3      1.29958234    -0.83415564  -233.00927433    -0.00021124    -0.00278191  0.25D-04  0.25D-04  3  3    11.23
   4      1.30085370    -0.83416160  -233.00928029    -0.00000596    -0.00060474  0.64D-06  0.21D-05  4  4    14.62
   5      1.30108600    -0.83417062  -233.00928931    -0.00000903    -0.00008139  0.19D-06  0.15D-06  5  5    18.02
   6      1.30112724    -0.83416736  -233.00928605     0.00000326    -0.00001325  0.26D-07  0.14D-07  6  6    21.43
   7      1.30113414    -0.83416614  -233.00928483     0.00000122    -0.00000071  0.38D-08  0.17D-08  6  1    24.84
   8      1.30113771    -0.83416615  -233.00928484    -0.00000001    -0.00000042  0.68D-09  0.22D-09  6  2    28.24
   9      1.30113828    -0.83416609  -233.00928478     0.00000006     0.00000057  0.64D-10  0.39D-10  6  4    31.65
  10      1.30113886    -0.83416608  -233.00928477     0.00000001    -0.00000001  0.51D-11  0.38D-11  6  3    35.05
  11      1.30113884    -0.83416608  -233.00928477    -0.00000000     0.00000005  0.79D-12  0.47D-12  6  5    38.45
  12      1.30113878    -0.83416608  -233.00928477    -0.00000000     0.00000003  0.14D-12  0.66D-13  6  6    41.86
  13      1.30113872    -0.83416608  -233.00928477    -0.00000000     0.00000003  0.11D-13  0.10D-13  6  2    45.26
  14      1.30113871    -0.83416608  -233.00928477    -0.00000000     0.00000001  0.17D-14  0.62D-15  6  1    48.67
  15      1.30113871    -0.83416608  -233.00928477    -0.00000000     0.00000000  0.22D-15  0.13D-15  6  4    52.06
  16      1.30113871    -0.83416608  -233.00928477     0.00000000    -0.00000000  0.35D-16  0.20D-16  6  3    55.46
  17      1.30113871    -0.83416608  -233.00928477     0.00000000    -0.00000000  0.33D-17  0.26D-17  6  5    58.88
  18      1.30113871    -0.83416608  -233.00928477    -0.00000000    -0.00000000  0.88D-18  0.35D-18  6  6    62.28
  19      1.30113871    -0.83416608  -233.00928477    -0.00000000    -0.00000000  0.22D-18  0.63D-19  6  2    65.68
  20      1.30113871    -0.83416608  -233.00928477    -0.00000000     0.00000000  0.33D-19  0.12D-19  6  1    69.09
  21      1.30113871    -0.83416608  -233.00928477    -0.00000000     0.00000000  0.40D-20  0.21D-20  6  4    72.50
  22      1.30113871    -0.83416608  -233.00928477     0.00000000    -0.00000000  0.69D-21  0.32D-21  6  3    75.90

 Norm of t1 vector:      0.06602315      S-energy:    -0.00000000      T1 diagnostic:  0.00825289
                                                                       D1 diagnostic:  0.02158867


 Total CPU time for triples:     49.95 sec


 RESULTS
 =======

  Reference energy                   -232.175118690295
  CCSD singlet pair energy             -0.581199878373
  CCSD triplet pair energy             -0.252966205624
  CCSD correlation energy              -0.834166083997

  Triples (T) contribution             -0.023280443079
  Total correlation energy             -0.857446527077

  CCSD total energy                  -233.009284774293
  CCSD[T] energy                     -233.033262658496
  CCSD-T energy                      -233.032228387140
 !CCSD(T) total energy               -233.032565217372

 Timing summary (sec):

 STEP                 CPU(USER)    SYS     CPU(TOT)    WALL
 Transformation          1.14      0.11      1.25      1.25
 CCSD iterations        74.76      1.76     76.52     76.61
 Triples                49.95      0.96     50.91     50.92

 Program statistics:

 Available memory in ccsd:               999998876
 Min. memory needed in ccsd:               3310297
 Max. memory used in ccsd:                 4412497
 Max. memory used in cckext:               4149679 (22 integral passes)



 **********************************************************************************************************************************
 DATASETS  * FILE   NREC   LENGTH (MB)   RECORD NAMES
              1      20      293.48       500      610      700      900      950      970     1000      129      960     1100   
                                          VAR    BASINP    GEOM    SYMINP    ZMAT    AOBASIS   BASIS     P2S    ABASIS      S 
                                         1400     1410     1200     1210     1080     1600     1650     1300     1700     1380   
                                           T        V       H0       H01     AOSYM     SMH    MOLCAS    ERIS     OPER     JKOP   

              2       3        0.80       700     1000     2100   
                                         GEOM     BASIS     RHF  

 PROGRAMS   *        TOTAL   CCSD(T)       RHF       INT
 CPU TIMES  *       133.48    125.84      5.11      2.48
 REAL TIME  *       137.66 SEC
 DISK USED  *       747.92 MB      
 GA USED    *         0.01 MB       (max)       0.00 MB       (current)
 **********************************************************************************************************************************

        CCSD(T)         RHF-SCF 
   -233.03256522   -232.17511869
 **********************************************************************************************************************************
 Variable memory released
