
    -----------------------------------------------------------------------
          Psi4: An Open-Source Ab Initio Electronic Structure Package
                               Psi4 1.4a2.dev629 

                         Git: Rev {master} 2938fc2 dirty


    D. G. A. Smith, L. A. Burns, A. C. Simmonett, R. M. Parrish,
    M. C. Schieber, R. Galvelis, P. Kraus, H. Kruse, R. Di Remigio,
    A. Alenaizan, A. M. James, S. Lehtola, J. P. Misiewicz, M. Scheurer,
    R. A. Shaw, J. B. Schriber, Y. Xie, Z. L. Glick, D. A. Sirianni,
    J. S. O'Brien, J. M. Waldrop, A. Kumar, E. G. Hohenstein,
    B. P. Pritchard, B. R. Brooks, H. F. Schaefer III, A. Yu. Sokolov,
    K. Patkowski, A. E. DePrince III, U. Bozkaya, R. A. King,
    F. A. Evangelista, J. M. Turney, T. D. Crawford, C. D. Sherrill,
    J. Chem. Phys. 152(18) 184108 (2020). https://doi.org/10.1063/5.0006002

                            Additional Code Authors
    E. T. Seidl, C. L. Janssen, E. F. Valeev, M. L. Leininger,
    J. F. Gonthier, R. M. Richard, H. R. McAlexander, M. Saitow, X. Wang,
    P. Verma, and M. H. Lechner

             Previous Authors, Complete List of Code Contributors,
                       and Citations for Specific Modules
    https://github.com/psi4/psi4/blob/master/codemeta.json
    https://github.com/psi4/psi4/graphs/contributors
    http://psicode.org/psi4manual/master/introduction.html#citing-psifour

    -----------------------------------------------------------------------


    Psi4 started on: Saturday, 23 October 2021 03:54PM

    Process ID: 32762
    Host:       n051
    PSIDATADIR: /opt/psi/4/master/share/psi4
    Memory:     500.0 MiB
    Threads:    1
    
  ==> Input File <==

--------------------------------------------------------------------------
import os
memory 14 GB 
 
molecule {
 C    0.0019212639    2.6379235961    0.0000000000
 C   -2.2909367176    1.3204972192    0.0000000000
 C   -2.2909367176   -1.3204972192    0.0000000000
 C    0.0019212638   -2.6379235961   -0.0000000000
 C    2.2888258039   -1.3170562050    0.0000000000
 C    2.2888258040    1.3170562050   -0.0000000000
 H   -0.0006150690    4.6831638365   -0.0000000000
 H   -4.0645799715    2.3388099495   -0.0000000000
 H   -4.0645799715   -2.3388099496   -0.0000000000
 H   -0.0006150691   -4.6831638365   -0.0000000000
 H    4.0653846904   -2.3399743549   -0.0000000000
 H    4.0653846904    2.3399743550   -0.0000000000
units bohr
}

basis {

assign 6-31g_2dfp_

[ 6-31g_2dfp_ ]

spherical

!----------------------------------------------------------------------
! Basis Set Exchange
! Version v0.8.13
! https://www.basissetexchange.org
!----------------------------------------------------------------------
!   Basis set: 6-31G(2df,p)
! Description: 6-31G(2df,p)
!        Role: orbital
!     Version: 0  (Data from the original Basis Set Exchange)
!----------------------------------------------------------------------


****
H     0
S    3   1.00
     18.7311370              0.03349460
      2.8253937              0.23472695
      0.6401217              0.81375733
S    1   1.00
      0.1612778              1.00000000
P    1   1.00
      1.5000000              1.0000000
P    1   1.00
      0.3750000              1.0000000
****
B     0
S    6   1.00
   2068.8823000              0.0018663
    310.6495700              0.0142515
     70.6830330              0.0695516
     19.8610800              0.2325729
      6.2993048              0.4670787
      2.1270270              0.3634314
SP   3   1.00
      4.7279710             -0.1303938              0.0745976
      1.1903377             -0.1307889              0.3078467
      0.3594117              1.1309444              0.7434568
SP   1   1.00
      0.1267512              1.0000000              1.0000000
D    1   1.00
      0.8020000              1.0000000
D    1   1.00
      0.2005000              1.0000000
F    1   1.00
      0.5000000              1.0000000
****
C     0
S    6   1.00
   3047.5249000              0.0018347
    457.3695100              0.0140373
    103.9486900              0.0688426
     29.2101550              0.2321844
      9.2866630              0.4679413
      3.1639270              0.3623120
SP   3   1.00
      7.8682724             -0.1193324              0.0689991
      1.8812885             -0.1608542              0.3164240
      0.5442493              1.1434564              0.7443083
SP   1   1.00
      0.1687144              1.0000000              1.0000000
D    1   1.00
      1.2520000              1.0000000
D    1   1.00
      0.3130000              1.0000000
F    1   1.00
      0.8000000              1.0000000
****
N     0
S    6   1.00
   4173.5110000              0.0018348
    627.4579000              0.0139950
    142.9021000              0.0685870
     40.2343300              0.2322410
     12.8202100              0.4690700
      4.3904370              0.3604550
SP   3   1.00
     11.6263580             -0.1149610              0.0675800
      2.7162800             -0.1691180              0.3239070
      0.7722180              1.1458520              0.7408950
SP   1   1.00
      0.2120313              1.0000000              1.0000000
D    1   1.00
      1.8260000              1.0000000
D    1   1.00
      0.4565000              1.0000000
F    1   1.00
      1.0000000              1.0000000
****
O     0
S    6   1.00
   5484.6717000              0.0018311
    825.2349500              0.0139501
    188.0469600              0.0684451
     52.9645000              0.2327143
     16.8975700              0.4701930
      5.7996353              0.3585209
SP   3   1.00
     15.5396160             -0.1107775              0.0708743
      3.5999336             -0.1480263              0.3397528
      1.0137618              1.1307670              0.7271586
SP   1   1.00
      0.2700058              1.0000000              1.0000000
D    1   1.00
      2.5840000              1.0000000
D    1   1.00
      0.6460000              1.0000000
F    1   1.00
      1.4000000              1.0000000
****
F     0
S    6   1.00
   7001.7130900              0.0018196169
   1051.3660900              0.0139160796
    239.2856900              0.0684053245
     67.3974453              0.233185760
     21.5199573              0.471267439
      7.40310130             0.356618546
SP   3   1.00
     20.8479528             -0.108506975            0.0716287243
      4.80830834            -0.146451658            0.3459121030
      1.34406986             1.128688580            0.7224699570
SP   1   1.00
      0.358151393            1.0000000              1.0000000
D    1   1.00
      3.5000000              1.0000000
D    1   1.00
      0.8750000              1.0000000
F    1   1.00
      1.8500000              1.0000000
****
Al     0
S    6   1.00
  13983.1000000              0.00194267
   2098.7500000              0.0148599
    477.7050000              0.0728494
    134.3600000              0.2468300
     42.8709000              0.4872580
     14.5189000              0.3234960
SP   6   1.00
    239.6680000             -0.00292619             0.00460285
     57.4419000             -0.0374080              0.0331990
     18.2859000             -0.1144870              0.1362820
      6.5991400              0.1156350              0.3304760
      2.4904900              0.6125950              0.4491460
      0.9445400              0.3937990              0.2657040
SP   3   1.00
      1.2779000             -0.2276060             -0.0175130
      0.3975900              0.00144583             0.2445330
      0.1600950              1.0927900              0.8049340
SP   1   1.00
      0.0556577              1.0000000              1.0000000
D    1   1.00
      0.6500000              1.0000000
D    1   1.00
      0.1625000              1.0000000
F    1   1.00
      0.2500000              1.0000000
****
Si     0
S    6   1.00
  16115.9000000              0.00195948
   2425.5800000              0.01492880
    553.8670000              0.07284780
    156.3400000              0.24613000
     50.0683000              0.48591400
     17.0178000              0.32500200
SP   6   1.00
    292.7180000             -0.00278094             0.00443826
     69.8731000             -0.03571460             0.03266790
     22.3363000             -0.11498500             0.13472100
      8.1503900              0.09356340             0.32867800
      3.1345800              0.60301700             0.44964000
      1.2254300              0.41895900             0.26137200
SP   3   1.00
      1.7273800             -0.24463000            -0.01779510
      0.5729220              0.00431572             0.25353900
      0.2221920              1.09818000             0.80066900
SP   1   1.00
      0.0778369              1.00000000             1.00000000
D    1   1.00
      0.9000000              1.0000000
D    1   1.00
      0.2250000              1.0000000
F    1   1.00
      0.3200000              1.0000000
****
P     0
S    6   1.00
  19413.3000000              0.0018516
   2909.4200000              0.0142062
    661.3640000              0.0699995
    185.7590000              0.2400790
     59.1943000              0.4847620
     20.0310000              0.3352000
SP   6   1.00
    339.4780000             -0.00278217             0.00456462
     81.0101000             -0.0360499              0.03369360
     25.8780000             -0.1166310              0.13975500
      9.4522100              0.0968328              0.33936200
      3.6656600              0.6144180              0.45092100
      1.4674600              0.4037980              0.23858600
SP   3   1.00
      2.1562300             -0.2529230             -0.01776530
      0.7489970              0.0328517              0.27405800
      0.2831450              1.0812500              0.78542100
SP   1   1.00
      0.0998317              1.0000000              1.00000000
D    1   1.00
      1.1000000              1.0000000
D    1   1.00
      0.2750000              1.0000000
F    1   1.00
      0.4500000              1.0000000
****
S     0
S    6   1.00
  21917.1000000              0.0018690
   3301.4900000              0.0142300
    754.1460000              0.0696960
    212.7110000              0.2384870
     67.9896000              0.4833070
     23.0515000              0.3380740
SP   6   1.00
    423.7350000             -0.0023767              0.0040610
    100.7100000             -0.0316930              0.0306810
     32.1599000             -0.1133170              0.1304520
     11.8079000              0.0560900              0.3272050
      4.6311000              0.5922550              0.4528510
      1.8702500              0.4550060              0.2560420
SP   3   1.00
      2.6158400             -0.2503740             -0.0145110
      0.9221670              0.0669570              0.3102630
      0.3412870              1.0545100              0.7544830
SP   1   1.00
      0.1171670              1.0000000              1.0000000
D    1   1.00
      1.3000000              1.0000000
D    1   1.00
      0.3250000              1.0000000
F    1   1.00
      0.5500000              1.0000000
****
Cl     0
S    6   1.00
  25180.1000000              0.0018330
   3780.3500000              0.0140340
    860.4740000              0.0690970
    242.1450000              0.2374520
     77.3349000              0.4830340
     26.2470000              0.3398560
SP   6   1.00
    491.7650000             -0.0022974              0.0039894
    116.9840000             -0.0307140              0.0303180
     37.4153000             -0.1125280              0.1298800
     13.7834000              0.0450160              0.3279510
      5.4521500              0.5893530              0.4535270
      2.2258800              0.4652060              0.2521540
SP   3   1.00
      3.1864900             -0.2518300             -0.0142990
      1.1442700              0.0615890              0.3235720
      0.4203770              1.0601800              0.7435070
SP   1   1.00
      0.1426570              1.0000000              1.0000000
D    1   1.00
      1.5000000              1.0000000
D    1   1.00
      0.3750000              1.0000000
F    1   1.00
      0.7000000              1.0000000
****
}


set {
reference rhf                          
freeze_core true
e_convergence 10                       
d_convergence 10                      
dft_spherical_points 1202
dft_radial_points 99
}

e = energy('b3lyp')

print_out('Grab this energy {0}'.format(e))
--------------------------------------------------------------------------

  Memory set to  13.039 GiB by Python driver.

Scratch directory: /tmp/

*** tstart() called on n051
*** at Sat Oct 23 15:54:32 2021

   => Loading Basis Set <=

    Name: ANONYMOUSA9563AF4
    Role: ORBITAL
    Keyword: BASIS
    atoms 1-6  entry C          line    48 inputblock 6-31g_2dfp_ 
    atoms 7-12 entry H          line    15 inputblock 6-31g_2dfp_ 


         ---------------------------------------------------------
                                   SCF
               by Justin Turney, Rob Parrish, Andy Simmonett
                          and Daniel G. A. Smith
                              RKS Reference
                        1 Threads,  13351 MiB Core
         ---------------------------------------------------------

  ==> Geometry <==

    Molecular point group: c2v
    Full point group: C2v

    Geometry (in Bohr), charge = 0, multiplicity = 1:

       Center              X                  Y                   Z               Mass       
    ------------   -----------------  -----------------  -----------------  -----------------
         C            0.000000000000    -2.637923596100     0.001974684611    12.000000000000
         C            0.000000000000    -1.320497219200    -2.290883296839    12.000000000000
         C           -0.000000000000     1.320497219200    -2.290883296839    12.000000000000
         C           -0.000000000000     2.637923596100     0.001974684611    12.000000000000
         C           -0.000000000000     1.317056205000     2.288879224711    12.000000000000
         C            0.000000000000    -1.317056205000     2.288879224711    12.000000000000
         H            0.000000000000    -4.683163836500    -0.000561648289     1.007825032230
         H            0.000000000000    -2.338809949550    -4.064526550739     1.007825032230
         H           -0.000000000000     2.338809949550    -4.064526550739     1.007825032230
         H           -0.000000000000     4.683163836500    -0.000561648289     1.007825032230
         H           -0.000000000000     2.339974354950     4.065438111161     1.007825032230
         H            0.000000000000    -2.339974354950     4.065438111161     1.007825032230

  Running in c2v symmetry.

  Rotational constants: A =      0.19005  B =      0.18913  C =      0.09479 [cm^-1]
  Rotational constants: A =   5697.55049  B =   5669.85994  C =   2841.83574 [MHz]
  Nuclear repulsion =  203.182852555031388

  Charge       = 0
  Multiplicity = 1
  Electrons    = 42
  Nalpha       = 21
  Nbeta        = 21

  ==> Algorithm <==

  SCF Algorithm Type is DF.
  DIIS enabled.
  MOM disabled.
  Fractional occupation disabled.
  Guess Type is SAD.
  Energy threshold   = 1.00e-10
  Density threshold  = 1.00e-10
  Integral threshold = 0.00e+00

  ==> Primary Basis <==

  Basis Set: ANONYMOUSA9563AF4
    Blend: 6-31G_2DFP_
    Number of shells: 72
    Number of basis function: 204
    Number of Cartesian functions: 234
    Spherical Harmonics?: true
    Max angular momentum: 3

  ==> DFT Potential <==

   => Composite Functional: B3LYP <= 

    B3LYP Hyb-GGA Exchange-Correlation Functional

    P. J. Stephens, F. J. Devlin, C. F. Chabalowski, and M. J. Frisch, J. Phys. Chem. 98, 11623 (1994)

    Deriv               =              1
    GGA                 =           TRUE
    Meta                =          FALSE

    Exchange Hybrid     =           TRUE
    MP2 Hybrid          =          FALSE

   => Exchange Functionals <=

    0.0800   Slater exchange
    0.7200         Becke 88

   => Exact (HF) Exchange <=

    0.2000               HF 

   => Correlation Functionals <=

    0.1900   Vosko, Wilk & Nusair (VWN5_RPA)
    0.8100   Lee, Yang & Parr

   => Molecular Quadrature <=

    Radial Scheme          =       TREUTLER
    Pruning Scheme         =           NONE
    Nuclear Scheme         =       TREUTLER

    BS radius alpha        =              1
    Pruning alpha          =              1
    Radial Points          =             99
    Spherical Points       =           1202
    Total Points           =        1319796
    Total Blocks           =           8938
    Max Points             =            256
    Max Functions          =            198
    Weights Tolerance      =       1.00E-15

   => Loading Basis Set <=

    Name: (ANONYMOUSA9563AF4 AUX)
    Role: JKFIT
    Keyword: DF_BASIS_SCF
    atoms 1-6  entry C          line   198 file /opt/psi/4/master/share/psi4/basis/def2-universal-jkfit.gbs 
    atoms 7-12 entry H          line    18 file /opt/psi/4/master/share/psi4/basis/def2-universal-jkfit.gbs 

  ==> Integral Setup <==

  DFHelper Memory: AOs need 0.182 GiB; user supplied 3.650 GiB. Using in-core AOs.

  ==> MemDFJK: Density-Fitted J/K Matrices <==

    J tasked:                   Yes
    K tasked:                   Yes
    wK tasked:                   No
    OpenMP threads:               1
    Memory [MiB]:              3737
    Algorithm:                 Core
    Schwarz Cutoff:           1E-12
    Mask sparsity (%):       1.4466
    Fitting Condition:        1E-10

   => Auxiliary Basis Set <=

  Basis Set: (ANONYMOUSA9563AF4 AUX)
    Blend: DEF2-UNIVERSAL-JKFIT
    Number of shells: 186
    Number of basis function: 558
    Number of Cartesian functions: 654
    Spherical Harmonics?: true
    Max angular momentum: 4

  Cached 100.0% of DFT collocation blocks in 6.129 [GiB].

  Minimum eigenvalue in the overlap matrix is 1.0905004225E-04.
  Reciprocal condition number of the overlap matrix is 1.7046341374E-05.
    Using symmetric orthogonalization.

  ==> Pre-Iterations <==

  SCF Guess: Superposition of Atomic Densities via on-the-fly atomic UHF (no occupation information).

   -------------------------
    Irrep   Nso     Nmo    
   -------------------------
     A1        69      69 
     A2        33      33 
     B1        33      33 
     B2        69      69 
   -------------------------
    Total     204     204
   -------------------------

  ==> Iterations <==

                           Total Energy        Delta E     RMS |[F,P]|

   @DF-RKS iter SAD:  -231.71449985069131   -2.31714e+02   0.00000e+00 
   @DF-RKS iter   1:  -231.93073665029047   -2.16237e-01   6.97514e-03 DIIS
   @DF-RKS iter   2:  -231.83212821470426    9.86084e-02   8.20085e-03 DIIS
   @DF-RKS iter   3:  -232.26111483629276   -4.28987e-01   6.55111e-04 DIIS
   @DF-RKS iter   4:  -232.26337889025217   -2.26405e-03   9.04209e-05 DIIS
   @DF-RKS iter   5:  -232.26341593050455   -3.70403e-05   3.91248e-05 DIIS
   @DF-RKS iter   6:  -232.26342518679098   -9.25629e-06   1.42204e-05 DIIS
   @DF-RKS iter   7:  -232.26342659139820   -1.40461e-06   7.53630e-07 DIIS
   @DF-RKS iter   8:  -232.26342659210758   -7.09377e-10   6.78307e-07 DIIS
   @DF-RKS iter   9:  -232.26342659474858   -2.64100e-09   1.29662e-08 DIIS
   @DF-RKS iter  10:  -232.26342659474975   -1.16529e-12   1.26994e-09 DIIS
   @DF-RKS iter  11:  -232.26342659474975    0.00000e+00   1.97683e-10 DIIS
   @DF-RKS iter  12:  -232.26342659474963    1.13687e-13   2.93772e-11 DIIS
  Energy and wave function converged.


  ==> Post-Iterations <==

    Orbital Energies [Eh]
    ---------------------

    Doubly Occupied:                                                      

       1A1   -10.180853     1B2   -10.180756     2A1   -10.180668  
       3A1   -10.180242     2B2   -10.180220     3B2   -10.180001  
       4A1    -0.845655     5A1    -0.739579     4B2    -0.738585  
       6A1    -0.597066     5B2    -0.596210     7A1    -0.517197  
       6B2    -0.457765     8A1    -0.437823     9A1    -0.416046  
       7B2    -0.415110     1B1    -0.360651     8B2    -0.338852  
      10A1    -0.338618     2B1    -0.247920     1A2    -0.247102  

    Virtual:                                                              

       3B1     0.000628     2A2     0.001227    11A1     0.086155  
      12A1     0.130610     9B2     0.131255     3A2     0.158093  
      13A1     0.162671    10B2     0.163269    11B2     0.182659  
      14A1     0.283256    12B2     0.283528    13B2     0.302002  
      15A1     0.302025    16A1     0.370323    17A1     0.405688  
       4B1     0.422493    18A1     0.468668    14B2     0.469754  
      19A1     0.470824    20A1     0.472862    15B2     0.473955  
       5B1     0.496408     4A2     0.496996    16B2     0.502905  
       6B1     0.530280    17B2     0.546922    21A1     0.609719  
      18B2     0.610456     5A2     0.611127     7B1     0.611288  
      22A1     0.644419    19B2     0.644424     8B1     0.650417  
       6A2     0.667287     9B1     0.699803     7A2     0.700167  
      23A1     0.717670    20B2     0.718650    24A1     0.724168  
      21B2     0.726292     8A2     0.787689    10B1     0.788941  
      22B2     0.826234    25A1     0.874456    23B2     0.876061  
      24B2     0.887935    11B1     0.930915    26A1     0.966035  
      25B2     0.991414    27A1     0.991680    12B1     1.035823  
       9A2     1.037273    13B1     1.085605    10A2     1.086114  
      11A2     1.095940    26B2     1.131781    28A1     1.132424  
      29A1     1.147168    27B2     1.212528    30A1     1.214263  
      14B1     1.301794    12A2     1.302500    31A1     1.303435  
      28B2     1.304348    13A2     1.371621    15B1     1.373464  
      32A1     1.383915    33A1     1.396831    29B2     1.397400  
      34A1     1.421717    30B2     1.425476    35A1     1.425957  
      31B2     1.471393    32B2     1.485190    36A1     1.524032  
      33B2     1.525200    14A2     1.582550    15A2     1.586354  
      34B2     1.625056    37A1     1.625310    38A1     1.715745  
      35B2     1.787641    36B2     1.952824    39A1     1.959162  
      37B2     1.962446    40A1     2.348451    38B2     2.349923  
      39B2     2.379986    41A1     2.381790    16B1     2.460897  
      40B2     2.487902    41B2     2.541566    42A1     2.546674  
      17B1     2.636668    43A1     2.728847    18B1     2.813273  
      16A2     2.813371    44A1     2.825053    19B1     2.830590  
      17A2     2.832076    20B1     2.837626    21B1     2.897281  
      18A2     2.897966    45A1     2.935944    42B2     2.937901  
      46A1     2.988652    43B2     2.989983    47A1     2.992666  
      48A1     3.097892    19A2     3.130112    22B1     3.132007  
      49A1     3.136654    44B2     3.139078    23B1     3.156518  
      20A2     3.156722    24B1     3.181961    50A1     3.203670  
      51A1     3.277567    45B2     3.279167    21A2     3.323479  
      25B1     3.325177    46B2     3.326487    52A1     3.330293  
      47B2     3.336588    22A2     3.442789    23A2     3.515571  
      26B1     3.528692    53A1     3.540033    48B2     3.542306  
      49B2     3.598521    54A1     3.609856    50B2     3.612922  
      51B2     3.645641    24A2     3.660320    27B1     3.663798  
      25A2     3.666336    52B2     3.672444    55A1     3.676131  
      53B2     3.689018    28B1     3.716368    26A2     3.718977  
      56A1     3.831331    57A1     3.917186    54B2     3.920647  
      58A1     3.974587    55B2     3.976765    27A2     4.010108  
      29B1     4.037386    30B1     4.048805    28A2     4.049862  
      31B1     4.063655    29A2     4.065548    56B2     4.111177  
      59A1     4.117096    32B1     4.234103    30A2     4.239324  
      60A1     4.317770    61A1     4.324299    57B2     4.329659  
      62A1     4.342269    58B2     4.369505    31A2     4.437281  
      33B1     4.439540    59B2     4.470759    60B2     4.577315  
      61B2     4.624172    63A1     4.624727    32A2     4.737745  
      62B2     4.853976    64A1     4.856189    33A2     4.881491  
      63B2     4.894190    65A1     4.933938    66A1     5.080154  
      64B2     5.080427    65B2     5.151250    67A1     5.154641  
      66B2     5.441815    68A1     5.444404    69A1     5.595507  
      67B2     5.600667    68B2     5.975441    69B2     6.031978  

    Final Occupation by Irrep:
             A1    A2    B1    B2 
    DOCC [    10,    1,    2,    8 ]

  @DF-RKS Final Energy:  -232.26342659474963

   => Energetics <=

    Nuclear Repulsion Energy =            203.1828525550313884
    One-Electron Energy =                -713.8716654547106373
    Two-Electron Energy =                 306.6052697213958709
    DFT Exchange-Correlation Energy =     -28.1798834164662644
    Empirical Dispersion Energy =           0.0000000000000000
    VV10 Nonlocal Energy =                  0.0000000000000000
    Total Energy =                       -232.2634265947496317

Computation Completed


Properties will be evaluated at   0.000000,   0.000000,   0.000000 [a0]

Properties computed using the SCF density matrix

  Nuclear Dipole Moment: [e a0]
     X:     0.0000      Y:     0.0000      Z:     0.0003

  Electronic Dipole Moment: [e a0]
     X:     0.0000      Y:     0.0000      Z:    -0.0020

  Dipole Moment: [e a0]
     X:     0.0000      Y:     0.0000      Z:    -0.0016     Total:     0.0016

  Dipole Moment: [D]
     X:     0.0000      Y:     0.0000      Z:    -0.0041     Total:     0.0041


*** tstop() called on n051 at Sat Oct 23 15:56:20 2021
Module time:
	user time   =     106.62 seconds =       1.78 minutes
	system time =       1.49 seconds =       0.02 minutes
	total time  =        108 seconds =       1.80 minutes
Total time:
	user time   =     106.62 seconds =       1.78 minutes
	system time =       1.49 seconds =       0.02 minutes
	total time  =        108 seconds =       1.80 minutes
Grab this energy -232.26342659474963
    Psi4 stopped on: Saturday, 23 October 2021 03:56PM
    Psi4 wall time for execution: 0:01:48.15

*** Psi4 exiting successfully. Buy a developer a beer!
