
    -----------------------------------------------------------------------
          Psi4: An Open-Source Ab Initio Electronic Structure Package
                               Psi4 1.4a2.dev629 

                         Git: Rev {master} 2938fc2 dirty


    D. G. A. Smith, L. A. Burns, A. C. Simmonett, R. M. Parrish,
    M. C. Schieber, R. Galvelis, P. Kraus, H. Kruse, R. Di Remigio,
    A. Alenaizan, A. M. James, S. Lehtola, J. P. Misiewicz, M. Scheurer,
    R. A. Shaw, J. B. Schriber, Y. Xie, Z. L. Glick, D. A. Sirianni,
    J. S. O'Brien, J. M. Waldrop, A. Kumar, E. G. Hohenstein,
    B. P. Pritchard, B. R. Brooks, H. F. Schaefer III, A. Yu. Sokolov,
    K. Patkowski, A. E. DePrince III, U. Bozkaya, R. A. King,
    F. A. Evangelista, J. M. Turney, T. D. Crawford, C. D. Sherrill,
    J. Chem. Phys. 152(18) 184108 (2020). https://doi.org/10.1063/5.0006002

                            Additional Code Authors
    E. T. Seidl, C. L. Janssen, E. F. Valeev, M. L. Leininger,
    J. F. Gonthier, R. M. Richard, H. R. McAlexander, M. Saitow, X. Wang,
    P. Verma, and M. H. Lechner

             Previous Authors, Complete List of Code Contributors,
                       and Citations for Specific Modules
    https://github.com/psi4/psi4/blob/master/codemeta.json
    https://github.com/psi4/psi4/graphs/contributors
    http://psicode.org/psi4manual/master/introduction.html#citing-psifour

    -----------------------------------------------------------------------


    Psi4 started on: Saturday, 23 October 2021 05:36PM

    Process ID: 28607
    Host:       n036
    PSIDATADIR: /opt/psi/4/master/share/psi4
    Memory:     500.0 MiB
    Threads:    1
    
  ==> Input File <==

--------------------------------------------------------------------------
import os
memory 14 GB 
 
molecule {
 C   -0.0032872588    2.6409655937    0.0007300935
 C   -2.2885980617    1.3232204702   -0.0007298007
 C   -2.2856854942   -1.3177431000    0.0007303792
 C    0.0032872588   -2.6409655937   -0.0007300935
 C    2.2885980617   -1.3232204702    0.0007298007
 C    2.2856854942    1.3177431000   -0.0007303792
 H   -0.0075270050    4.6877696518    0.0032086766
 H   -4.0613006937    2.3491402566   -0.0032088415
 H   -4.0581557951   -2.3386331113    0.0032085156
 H    0.0075270050   -4.6877696518   -0.0032086766
 H    4.0613006937   -2.3491402566    0.0032088415
 H    4.0581557951    2.3386331113   -0.0032085156
units bohr
}

basis {

assign 6-31g_2dfp_

[ 6-31g_2dfp_ ]

spherical

!----------------------------------------------------------------------
! Basis Set Exchange
! Version v0.8.13
! https://www.basissetexchange.org
!----------------------------------------------------------------------
!   Basis set: 6-31G(2df,p)
! Description: 6-31G(2df,p)
!        Role: orbital
!     Version: 0  (Data from the original Basis Set Exchange)
!----------------------------------------------------------------------


****
H     0
S    3   1.00
     18.7311370              0.03349460
      2.8253937              0.23472695
      0.6401217              0.81375733
S    1   1.00
      0.1612778              1.00000000
P    1   1.00
      1.5000000              1.0000000
P    1   1.00
      0.3750000              1.0000000
****
B     0
S    6   1.00
   2068.8823000              0.0018663
    310.6495700              0.0142515
     70.6830330              0.0695516
     19.8610800              0.2325729
      6.2993048              0.4670787
      2.1270270              0.3634314
SP   3   1.00
      4.7279710             -0.1303938              0.0745976
      1.1903377             -0.1307889              0.3078467
      0.3594117              1.1309444              0.7434568
SP   1   1.00
      0.1267512              1.0000000              1.0000000
D    1   1.00
      0.8020000              1.0000000
D    1   1.00
      0.2005000              1.0000000
F    1   1.00
      0.5000000              1.0000000
****
C     0
S    6   1.00
   3047.5249000              0.0018347
    457.3695100              0.0140373
    103.9486900              0.0688426
     29.2101550              0.2321844
      9.2866630              0.4679413
      3.1639270              0.3623120
SP   3   1.00
      7.8682724             -0.1193324              0.0689991
      1.8812885             -0.1608542              0.3164240
      0.5442493              1.1434564              0.7443083
SP   1   1.00
      0.1687144              1.0000000              1.0000000
D    1   1.00
      1.2520000              1.0000000
D    1   1.00
      0.3130000              1.0000000
F    1   1.00
      0.8000000              1.0000000
****
N     0
S    6   1.00
   4173.5110000              0.0018348
    627.4579000              0.0139950
    142.9021000              0.0685870
     40.2343300              0.2322410
     12.8202100              0.4690700
      4.3904370              0.3604550
SP   3   1.00
     11.6263580             -0.1149610              0.0675800
      2.7162800             -0.1691180              0.3239070
      0.7722180              1.1458520              0.7408950
SP   1   1.00
      0.2120313              1.0000000              1.0000000
D    1   1.00
      1.8260000              1.0000000
D    1   1.00
      0.4565000              1.0000000
F    1   1.00
      1.0000000              1.0000000
****
O     0
S    6   1.00
   5484.6717000              0.0018311
    825.2349500              0.0139501
    188.0469600              0.0684451
     52.9645000              0.2327143
     16.8975700              0.4701930
      5.7996353              0.3585209
SP   3   1.00
     15.5396160             -0.1107775              0.0708743
      3.5999336             -0.1480263              0.3397528
      1.0137618              1.1307670              0.7271586
SP   1   1.00
      0.2700058              1.0000000              1.0000000
D    1   1.00
      2.5840000              1.0000000
D    1   1.00
      0.6460000              1.0000000
F    1   1.00
      1.4000000              1.0000000
****
F     0
S    6   1.00
   7001.7130900              0.0018196169
   1051.3660900              0.0139160796
    239.2856900              0.0684053245
     67.3974453              0.233185760
     21.5199573              0.471267439
      7.40310130             0.356618546
SP   3   1.00
     20.8479528             -0.108506975            0.0716287243
      4.80830834            -0.146451658            0.3459121030
      1.34406986             1.128688580            0.7224699570
SP   1   1.00
      0.358151393            1.0000000              1.0000000
D    1   1.00
      3.5000000              1.0000000
D    1   1.00
      0.8750000              1.0000000
F    1   1.00
      1.8500000              1.0000000
****
Al     0
S    6   1.00
  13983.1000000              0.00194267
   2098.7500000              0.0148599
    477.7050000              0.0728494
    134.3600000              0.2468300
     42.8709000              0.4872580
     14.5189000              0.3234960
SP   6   1.00
    239.6680000             -0.00292619             0.00460285
     57.4419000             -0.0374080              0.0331990
     18.2859000             -0.1144870              0.1362820
      6.5991400              0.1156350              0.3304760
      2.4904900              0.6125950              0.4491460
      0.9445400              0.3937990              0.2657040
SP   3   1.00
      1.2779000             -0.2276060             -0.0175130
      0.3975900              0.00144583             0.2445330
      0.1600950              1.0927900              0.8049340
SP   1   1.00
      0.0556577              1.0000000              1.0000000
D    1   1.00
      0.6500000              1.0000000
D    1   1.00
      0.1625000              1.0000000
F    1   1.00
      0.2500000              1.0000000
****
Si     0
S    6   1.00
  16115.9000000              0.00195948
   2425.5800000              0.01492880
    553.8670000              0.07284780
    156.3400000              0.24613000
     50.0683000              0.48591400
     17.0178000              0.32500200
SP   6   1.00
    292.7180000             -0.00278094             0.00443826
     69.8731000             -0.03571460             0.03266790
     22.3363000             -0.11498500             0.13472100
      8.1503900              0.09356340             0.32867800
      3.1345800              0.60301700             0.44964000
      1.2254300              0.41895900             0.26137200
SP   3   1.00
      1.7273800             -0.24463000            -0.01779510
      0.5729220              0.00431572             0.25353900
      0.2221920              1.09818000             0.80066900
SP   1   1.00
      0.0778369              1.00000000             1.00000000
D    1   1.00
      0.9000000              1.0000000
D    1   1.00
      0.2250000              1.0000000
F    1   1.00
      0.3200000              1.0000000
****
P     0
S    6   1.00
  19413.3000000              0.0018516
   2909.4200000              0.0142062
    661.3640000              0.0699995
    185.7590000              0.2400790
     59.1943000              0.4847620
     20.0310000              0.3352000
SP   6   1.00
    339.4780000             -0.00278217             0.00456462
     81.0101000             -0.0360499              0.03369360
     25.8780000             -0.1166310              0.13975500
      9.4522100              0.0968328              0.33936200
      3.6656600              0.6144180              0.45092100
      1.4674600              0.4037980              0.23858600
SP   3   1.00
      2.1562300             -0.2529230             -0.01776530
      0.7489970              0.0328517              0.27405800
      0.2831450              1.0812500              0.78542100
SP   1   1.00
      0.0998317              1.0000000              1.00000000
D    1   1.00
      1.1000000              1.0000000
D    1   1.00
      0.2750000              1.0000000
F    1   1.00
      0.4500000              1.0000000
****
S     0
S    6   1.00
  21917.1000000              0.0018690
   3301.4900000              0.0142300
    754.1460000              0.0696960
    212.7110000              0.2384870
     67.9896000              0.4833070
     23.0515000              0.3380740
SP   6   1.00
    423.7350000             -0.0023767              0.0040610
    100.7100000             -0.0316930              0.0306810
     32.1599000             -0.1133170              0.1304520
     11.8079000              0.0560900              0.3272050
      4.6311000              0.5922550              0.4528510
      1.8702500              0.4550060              0.2560420
SP   3   1.00
      2.6158400             -0.2503740             -0.0145110
      0.9221670              0.0669570              0.3102630
      0.3412870              1.0545100              0.7544830
SP   1   1.00
      0.1171670              1.0000000              1.0000000
D    1   1.00
      1.3000000              1.0000000
D    1   1.00
      0.3250000              1.0000000
F    1   1.00
      0.5500000              1.0000000
****
Cl     0
S    6   1.00
  25180.1000000              0.0018330
   3780.3500000              0.0140340
    860.4740000              0.0690970
    242.1450000              0.2374520
     77.3349000              0.4830340
     26.2470000              0.3398560
SP   6   1.00
    491.7650000             -0.0022974              0.0039894
    116.9840000             -0.0307140              0.0303180
     37.4153000             -0.1125280              0.1298800
     13.7834000              0.0450160              0.3279510
      5.4521500              0.5893530              0.4535270
      2.2258800              0.4652060              0.2521540
SP   3   1.00
      3.1864900             -0.2518300             -0.0142990
      1.1442700              0.0615890              0.3235720
      0.4203770              1.0601800              0.7435070
SP   1   1.00
      0.1426570              1.0000000              1.0000000
D    1   1.00
      1.5000000              1.0000000
D    1   1.00
      0.3750000              1.0000000
F    1   1.00
      0.7000000              1.0000000
****
}


set {
reference rhf                          
freeze_core true
e_convergence 10                       
d_convergence 10                      
dft_spherical_points 1202
dft_radial_points 99
}

e = energy('b3lyp')

print_out('Grab this energy {0}'.format(e))
--------------------------------------------------------------------------

  Memory set to  13.039 GiB by Python driver.

Scratch directory: /tmp/

*** tstart() called on n036
*** at Sat Oct 23 17:36:17 2021

   => Loading Basis Set <=

    Name: ANONYMOUS94EF4EC6
    Role: ORBITAL
    Keyword: BASIS
    atoms 1-6  entry C          line    48 inputblock 6-31g_2dfp_ 
    atoms 7-12 entry H          line    15 inputblock 6-31g_2dfp_ 


         ---------------------------------------------------------
                                   SCF
               by Justin Turney, Rob Parrish, Andy Simmonett
                          and Daniel G. A. Smith
                              RKS Reference
                        1 Threads,  13351 MiB Core
         ---------------------------------------------------------

  ==> Geometry <==

    Molecular point group: ci
    Full point group: Ci

    Geometry (in Bohr), charge = 0, multiplicity = 1:

       Center              X                  Y                   Z               Mass       
    ------------   -----------------  -----------------  -----------------  -----------------
         C           -0.003287258800     2.640965593700     0.000730093500    12.000000000000
         C           -2.288598061700     1.323220470200    -0.000729800700    12.000000000000
         C           -2.285685494200    -1.317743100000     0.000730379200    12.000000000000
         C            0.003287258800    -2.640965593700    -0.000730093500    12.000000000000
         C            2.288598061700    -1.323220470200     0.000729800700    12.000000000000
         C            2.285685494200     1.317743100000    -0.000730379200    12.000000000000
         H           -0.007527005000     4.687769651800     0.003208676600     1.007825032230
         H           -4.061300693700     2.349140256600    -0.003208841500     1.007825032230
         H           -4.058155795100    -2.338633111300     0.003208515600     1.007825032230
         H            0.007527005000    -4.687769651800    -0.003208676600     1.007825032230
         H            4.061300693700    -2.349140256600     0.003208841500     1.007825032230
         H            4.058155795100     2.338633111300    -0.003208515600     1.007825032230

  Running in ci symmetry.

  Rotational constants: A =      0.19005  B =      0.18913  C =      0.09479 [cm^-1]
  Rotational constants: A =   5697.54501  B =   5669.86204  C =   2841.83581 [MHz]
  Nuclear repulsion =  203.182727124672567

  Charge       = 0
  Multiplicity = 1
  Electrons    = 42
  Nalpha       = 21
  Nbeta        = 21

  ==> Algorithm <==

  SCF Algorithm Type is DF.
  DIIS enabled.
  MOM disabled.
  Fractional occupation disabled.
  Guess Type is SAD.
  Energy threshold   = 1.00e-10
  Density threshold  = 1.00e-10
  Integral threshold = 0.00e+00

  ==> Primary Basis <==

  Basis Set: ANONYMOUS94EF4EC6
    Blend: 6-31G_2DFP_
    Number of shells: 72
    Number of basis function: 204
    Number of Cartesian functions: 234
    Spherical Harmonics?: true
    Max angular momentum: 3

  ==> DFT Potential <==

   => Composite Functional: B3LYP <= 

    B3LYP Hyb-GGA Exchange-Correlation Functional

    P. J. Stephens, F. J. Devlin, C. F. Chabalowski, and M. J. Frisch, J. Phys. Chem. 98, 11623 (1994)

    Deriv               =              1
    GGA                 =           TRUE
    Meta                =          FALSE

    Exchange Hybrid     =           TRUE
    MP2 Hybrid          =          FALSE

   => Exchange Functionals <=

    0.0800   Slater exchange
    0.7200         Becke 88

   => Exact (HF) Exchange <=

    0.2000               HF 

   => Correlation Functionals <=

    0.1900   Vosko, Wilk & Nusair (VWN5_RPA)
    0.8100   Lee, Yang & Parr

   => Molecular Quadrature <=

    Radial Scheme          =       TREUTLER
    Pruning Scheme         =           NONE
    Nuclear Scheme         =       TREUTLER

    BS radius alpha        =              1
    Pruning alpha          =              1
    Radial Points          =             99
    Spherical Points       =           1202
    Total Points           =        1320456
    Total Blocks           =           8856
    Max Points             =            256
    Max Functions          =            198
    Weights Tolerance      =       1.00E-15

   => Loading Basis Set <=

    Name: (ANONYMOUS94EF4EC6 AUX)
    Role: JKFIT
    Keyword: DF_BASIS_SCF
    atoms 1-6  entry C          line   198 file /opt/psi/4/master/share/psi4/basis/def2-universal-jkfit.gbs 
    atoms 7-12 entry H          line    18 file /opt/psi/4/master/share/psi4/basis/def2-universal-jkfit.gbs 

  ==> Integral Setup <==

  DFHelper Memory: AOs need 0.182 GiB; user supplied 3.675 GiB. Using in-core AOs.

  ==> MemDFJK: Density-Fitted J/K Matrices <==

    J tasked:                   Yes
    K tasked:                   Yes
    wK tasked:                   No
    OpenMP threads:               1
    Memory [MiB]:              3762
    Algorithm:                 Core
    Schwarz Cutoff:           1E-12
    Mask sparsity (%):       1.4081
    Fitting Condition:        1E-10

   => Auxiliary Basis Set <=

  Basis Set: (ANONYMOUS94EF4EC6 AUX)
    Blend: DEF2-UNIVERSAL-JKFIT
    Number of shells: 186
    Number of basis function: 558
    Number of Cartesian functions: 654
    Spherical Harmonics?: true
    Max angular momentum: 4

  Cached 100.0% of DFT collocation blocks in 6.104 [GiB].

  Minimum eigenvalue in the overlap matrix is 7.4215282606E-05.
  Reciprocal condition number of the overlap matrix is 1.3829765915E-05.
    Using symmetric orthogonalization.

  ==> Pre-Iterations <==

  SCF Guess: Superposition of Atomic Densities via on-the-fly atomic UHF (no occupation information).

   -------------------------
    Irrep   Nso     Nmo    
   -------------------------
     Ag       102     102 
     Au       102     102 
   -------------------------
    Total     204     204
   -------------------------

  ==> Iterations <==

                           Total Energy        Delta E     RMS |[F,P]|

   @DF-RKS iter SAD:  -231.71449652788783   -2.31714e+02   0.00000e+00 
   @DF-RKS iter   1:  -231.93075666588493   -2.16260e-01   5.23028e-03 DIIS
   @DF-RKS iter   2:  -231.83216898713806    9.85877e-02   6.14927e-03 DIIS
   @DF-RKS iter   3:  -232.26113105020636   -4.28962e-01   4.90957e-04 DIIS
   @DF-RKS iter   4:  -232.26339588236939   -2.26483e-03   6.52467e-05 DIIS
   @DF-RKS iter   5:  -232.26343895351789   -4.30711e-05   5.58878e-06 DIIS
   @DF-RKS iter   6:  -232.26343922984165   -2.76324e-07   3.00695e-06 DIIS
   @DF-RKS iter   7:  -232.26343931791476   -8.80731e-08   6.37573e-07 DIIS
   @DF-RKS iter   8:  -232.26343932209724   -4.18248e-09   1.10291e-08 DIIS
   @DF-RKS iter   9:  -232.26343932209858   -1.33582e-12   2.64254e-09 DIIS
   @DF-RKS iter  10:  -232.26343932209852    5.68434e-14   2.42996e-09 DIIS
   @DF-RKS iter  11:  -232.26343932209960   -1.08002e-12   1.18730e-10 DIIS
   @DF-RKS iter  12:  -232.26343932209846    1.13687e-12   1.40907e-11 DIIS
  Energy and wave function converged.


  ==> Post-Iterations <==

    Orbital Energies [Eh]
    ---------------------

    Doubly Occupied:                                                      

       1Ag   -10.180822     1Au   -10.180750     2Au   -10.180692  
       2Ag   -10.180252     3Ag   -10.180181     3Au   -10.180043  
       4Ag    -0.845652     4Au    -0.739579     5Au    -0.738585  
       5Ag    -0.597064     6Ag    -0.596209     7Ag    -0.517196  
       6Au    -0.457763     7Au    -0.437819     8Au    -0.416049  
       9Au    -0.415109    10Au    -0.360648     8Ag    -0.338857  
       9Ag    -0.338621    10Ag    -0.247920    11Ag    -0.247101  

    Virtual:                                                              

      11Au     0.000628    12Au     0.001227    12Ag     0.086158  
      13Au     0.130608    14Au     0.131255    13Ag     0.158090  
      14Ag     0.162671    15Ag     0.163271    15Au     0.182658  
      16Ag     0.283263    17Ag     0.283530    16Au     0.302005  
      17Au     0.302020    18Ag     0.370323    18Au     0.405691  
      19Au     0.422493    20Au     0.468704    21Au     0.469765  
      19Ag     0.470797    20Ag     0.472817    21Ag     0.473989  
      22Ag     0.496410    23Ag     0.496999    22Au     0.502893  
      23Au     0.530281    24Ag     0.546913    24Au     0.609713  
      25Au     0.610444    26Au     0.611135    27Au     0.611304  
      25Ag     0.644412    26Ag     0.644423    27Ag     0.650421  
      28Ag     0.667286    29Ag     0.699796    30Ag     0.700175  
      28Au     0.717666    29Au     0.718658    31Ag     0.724163  
      30Au     0.726291    31Au     0.787691    32Au     0.788941  
      32Ag     0.826222    33Ag     0.874456    34Ag     0.876070  
      33Au     0.887926    34Au     0.930918    35Ag     0.966042  
      35Au     0.991408    36Au     0.991680    37Au     1.035825  
      38Au     1.037283    36Ag     1.085580    37Ag     1.086133  
      38Ag     1.095935    39Ag     1.131786    40Ag     1.132430  
      39Au     1.147164    41Ag     1.212541    42Ag     1.214262  
      43Ag     1.301791    44Ag     1.302491    40Au     1.303435  
      41Au     1.304341    42Au     1.371621    43Au     1.373466  
      45Ag     1.383915    46Ag     1.396826    47Ag     1.397435  
      44Au     1.421686    45Au     1.425546    46Au     1.425890  
      48Ag     1.471382    47Au     1.485192    48Au     1.524042  
      49Au     1.525201    49Ag     1.582551    50Au     1.586360  
      50Ag     1.625047    51Ag     1.625307    52Ag     1.715745  
      51Au     1.787628    53Ag     1.953006    52Au     1.959164  
      53Au     1.962249    54Au     2.348612    55Au     2.350119  
      54Ag     2.379791    55Ag     2.381642    56Ag     2.460897  
      56Au     2.487895    57Ag     2.541531    58Ag     2.546690  
      57Au     2.636673    58Au     2.728848    59Ag     2.813330  
      60Ag     2.813378    61Ag     2.825051    59Au     2.830603  
      60Au     2.832057    61Au     2.837578    62Ag     2.897283  
      63Ag     2.897968    62Au     2.935940    63Au     2.937906  
      64Ag     2.989319    65Ag     2.989960    64Au     2.992036  
      66Ag     3.097894    65Au     3.130136    66Au     3.132066  
      67Ag     3.136639    68Ag     3.139075    69Ag     3.156468  
      70Ag     3.156688    67Au     3.181953    71Ag     3.203687  
      68Au     3.277535    69Au     3.279210    70Au     3.323444  
      71Au     3.325009    72Au     3.327021    73Au     3.329786  
      74Au     3.336763    72Ag     3.442774    75Au     3.515569  
      73Ag     3.528696    76Au     3.540007    77Au     3.542333  
      78Au     3.598548    74Ag     3.609830    75Ag     3.612978  
      76Ag     3.645617    77Ag     3.660512    78Ag     3.663302  
      79Ag     3.666568    80Ag     3.672478    81Ag     3.676197  
      79Au     3.688938    80Au     3.716368    81Au     3.718964  
      82Au     3.831323    82Ag     3.917182    83Ag     3.920645  
      83Au     3.974610    84Au     3.976740    84Ag     4.010121  
      85Au     4.037526    86Au     4.048771    87Au     4.049944  
      85Ag     4.063477    86Ag     4.065525    87Ag     4.111203  
      88Ag     4.117171    89Ag     4.234108    90Ag     4.239319  
      91Ag     4.317790    88Au     4.324294    89Au     4.329662  
      90Au     4.342224    92Ag     4.369499    91Au     4.437286  
      92Au     4.439513    93Au     4.470715    93Ag     4.577302  
      94Ag     4.624125    95Ag     4.624751    94Au     4.737738  
      95Au     4.854253    96Au     4.855969    96Ag     4.881457  
      97Au     4.894182    97Ag     4.933908    98Ag     5.080169  
      99Ag     5.080478    98Au     5.151154    99Au     5.154573  
     100Ag     5.441801   101Ag     5.444371   100Au     5.595508  
     101Au     5.600649   102Au     5.975414   102Ag     6.031994  

    Final Occupation by Irrep:
             Ag    Au 
    DOCC [    11,   10 ]

  @DF-RKS Final Energy:  -232.26343932209846

   => Energetics <=

    Nuclear Repulsion Energy =            203.1827271246725672
    One-Electron Energy =                -713.8714550403133217
    Two-Electron Energy =                 306.6051662607034700
    DFT Exchange-Correlation Energy =     -28.1798776671611861
    Empirical Dispersion Energy =           0.0000000000000000
    VV10 Nonlocal Energy =                  0.0000000000000000
    Total Energy =                       -232.2634393220984634

Computation Completed


Properties will be evaluated at   0.000000,   0.000000,   0.000000 [a0]

Properties computed using the SCF density matrix

  Nuclear Dipole Moment: [e a0]
     X:    -0.0000      Y:     0.0000      Z:     0.0000

  Electronic Dipole Moment: [e a0]
     X:     0.0000      Y:     0.0000      Z:     0.0000

  Dipole Moment: [e a0]
     X:    -0.0000      Y:     0.0000      Z:     0.0000     Total:     0.0000

  Dipole Moment: [D]
     X:    -0.0000      Y:     0.0000      Z:     0.0000     Total:     0.0000


*** tstop() called on n036 at Sat Oct 23 17:38:31 2021
Module time:
	user time   =     132.21 seconds =       2.20 minutes
	system time =       1.16 seconds =       0.02 minutes
	total time  =        134 seconds =       2.23 minutes
Total time:
	user time   =     132.21 seconds =       2.20 minutes
	system time =       1.16 seconds =       0.02 minutes
	total time  =        134 seconds =       2.23 minutes
Grab this energy -232.26343932209846
    Psi4 stopped on: Saturday, 23 October 2021 05:38PM
    Psi4 wall time for execution: 0:02:13.39

*** Psi4 exiting successfully. Buy a developer a beer!
