
    -----------------------------------------------------------------------
          Psi4: An Open-Source Ab Initio Electronic Structure Package
                               Psi4 1.4a2.dev629 

                         Git: Rev {master} 2938fc2 dirty


    D. G. A. Smith, L. A. Burns, A. C. Simmonett, R. M. Parrish,
    M. C. Schieber, R. Galvelis, P. Kraus, H. Kruse, R. Di Remigio,
    A. Alenaizan, A. M. James, S. Lehtola, J. P. Misiewicz, M. Scheurer,
    R. A. Shaw, J. B. Schriber, Y. Xie, Z. L. Glick, D. A. Sirianni,
    J. S. O'Brien, J. M. Waldrop, A. Kumar, E. G. Hohenstein,
    B. P. Pritchard, B. R. Brooks, H. F. Schaefer III, A. Yu. Sokolov,
    K. Patkowski, A. E. DePrince III, U. Bozkaya, R. A. King,
    F. A. Evangelista, J. M. Turney, T. D. Crawford, C. D. Sherrill,
    J. Chem. Phys. 152(18) 184108 (2020). https://doi.org/10.1063/5.0006002

                            Additional Code Authors
    E. T. Seidl, C. L. Janssen, E. F. Valeev, M. L. Leininger,
    J. F. Gonthier, R. M. Richard, H. R. McAlexander, M. Saitow, X. Wang,
    P. Verma, and M. H. Lechner

             Previous Authors, Complete List of Code Contributors,
                       and Citations for Specific Modules
    https://github.com/psi4/psi4/blob/master/codemeta.json
    https://github.com/psi4/psi4/graphs/contributors
    http://psicode.org/psi4manual/master/introduction.html#citing-psifour

    -----------------------------------------------------------------------


    Psi4 started on: Saturday, 23 October 2021 03:06PM

    Process ID: 20122
    Host:       n041
    PSIDATADIR: /opt/psi/4/master/share/psi4
    Memory:     500.0 MiB
    Threads:    1
    
  ==> Input File <==

--------------------------------------------------------------------------
import os
memory 14 GB 
 
molecule {
 C   -0.0006898769    2.6391470748   -0.0000000000
 C   -2.2844685901    1.3203674174   -0.0000000000
 C   -2.2844685886   -1.3203674170    0.0000000000
 C   -0.0006898769   -2.6391470719   -0.0000000000
 C    2.2898012301   -1.3242481632   -0.0000000000
 C    2.2898012316    1.3242481635    0.0000000000
 H   -0.0084436934    4.6882417507    0.0000000000
 H   -4.0577702847    2.3375312038    0.0000000000
 H   -4.0577702801   -2.3375312077   -0.0000000000
 H   -0.0084436934   -4.6882417465    0.0000000000
 H    4.0615712089   -2.3494630182    0.0000000000
 H    4.0615712135    2.3494630143   -0.0000000000
units bohr
}

basis {

assign 6-31g_2dfp_

[ 6-31g_2dfp_ ]

spherical

!----------------------------------------------------------------------
! Basis Set Exchange
! Version v0.8.13
! https://www.basissetexchange.org
!----------------------------------------------------------------------
!   Basis set: 6-31G(2df,p)
! Description: 6-31G(2df,p)
!        Role: orbital
!     Version: 0  (Data from the original Basis Set Exchange)
!----------------------------------------------------------------------


****
H     0
S    3   1.00
     18.7311370              0.03349460
      2.8253937              0.23472695
      0.6401217              0.81375733
S    1   1.00
      0.1612778              1.00000000
P    1   1.00
      1.5000000              1.0000000
P    1   1.00
      0.3750000              1.0000000
****
B     0
S    6   1.00
   2068.8823000              0.0018663
    310.6495700              0.0142515
     70.6830330              0.0695516
     19.8610800              0.2325729
      6.2993048              0.4670787
      2.1270270              0.3634314
SP   3   1.00
      4.7279710             -0.1303938              0.0745976
      1.1903377             -0.1307889              0.3078467
      0.3594117              1.1309444              0.7434568
SP   1   1.00
      0.1267512              1.0000000              1.0000000
D    1   1.00
      0.8020000              1.0000000
D    1   1.00
      0.2005000              1.0000000
F    1   1.00
      0.5000000              1.0000000
****
C     0
S    6   1.00
   3047.5249000              0.0018347
    457.3695100              0.0140373
    103.9486900              0.0688426
     29.2101550              0.2321844
      9.2866630              0.4679413
      3.1639270              0.3623120
SP   3   1.00
      7.8682724             -0.1193324              0.0689991
      1.8812885             -0.1608542              0.3164240
      0.5442493              1.1434564              0.7443083
SP   1   1.00
      0.1687144              1.0000000              1.0000000
D    1   1.00
      1.2520000              1.0000000
D    1   1.00
      0.3130000              1.0000000
F    1   1.00
      0.8000000              1.0000000
****
N     0
S    6   1.00
   4173.5110000              0.0018348
    627.4579000              0.0139950
    142.9021000              0.0685870
     40.2343300              0.2322410
     12.8202100              0.4690700
      4.3904370              0.3604550
SP   3   1.00
     11.6263580             -0.1149610              0.0675800
      2.7162800             -0.1691180              0.3239070
      0.7722180              1.1458520              0.7408950
SP   1   1.00
      0.2120313              1.0000000              1.0000000
D    1   1.00
      1.8260000              1.0000000
D    1   1.00
      0.4565000              1.0000000
F    1   1.00
      1.0000000              1.0000000
****
O     0
S    6   1.00
   5484.6717000              0.0018311
    825.2349500              0.0139501
    188.0469600              0.0684451
     52.9645000              0.2327143
     16.8975700              0.4701930
      5.7996353              0.3585209
SP   3   1.00
     15.5396160             -0.1107775              0.0708743
      3.5999336             -0.1480263              0.3397528
      1.0137618              1.1307670              0.7271586
SP   1   1.00
      0.2700058              1.0000000              1.0000000
D    1   1.00
      2.5840000              1.0000000
D    1   1.00
      0.6460000              1.0000000
F    1   1.00
      1.4000000              1.0000000
****
F     0
S    6   1.00
   7001.7130900              0.0018196169
   1051.3660900              0.0139160796
    239.2856900              0.0684053245
     67.3974453              0.233185760
     21.5199573              0.471267439
      7.40310130             0.356618546
SP   3   1.00
     20.8479528             -0.108506975            0.0716287243
      4.80830834            -0.146451658            0.3459121030
      1.34406986             1.128688580            0.7224699570
SP   1   1.00
      0.358151393            1.0000000              1.0000000
D    1   1.00
      3.5000000              1.0000000
D    1   1.00
      0.8750000              1.0000000
F    1   1.00
      1.8500000              1.0000000
****
Al     0
S    6   1.00
  13983.1000000              0.00194267
   2098.7500000              0.0148599
    477.7050000              0.0728494
    134.3600000              0.2468300
     42.8709000              0.4872580
     14.5189000              0.3234960
SP   6   1.00
    239.6680000             -0.00292619             0.00460285
     57.4419000             -0.0374080              0.0331990
     18.2859000             -0.1144870              0.1362820
      6.5991400              0.1156350              0.3304760
      2.4904900              0.6125950              0.4491460
      0.9445400              0.3937990              0.2657040
SP   3   1.00
      1.2779000             -0.2276060             -0.0175130
      0.3975900              0.00144583             0.2445330
      0.1600950              1.0927900              0.8049340
SP   1   1.00
      0.0556577              1.0000000              1.0000000
D    1   1.00
      0.6500000              1.0000000
D    1   1.00
      0.1625000              1.0000000
F    1   1.00
      0.2500000              1.0000000
****
Si     0
S    6   1.00
  16115.9000000              0.00195948
   2425.5800000              0.01492880
    553.8670000              0.07284780
    156.3400000              0.24613000
     50.0683000              0.48591400
     17.0178000              0.32500200
SP   6   1.00
    292.7180000             -0.00278094             0.00443826
     69.8731000             -0.03571460             0.03266790
     22.3363000             -0.11498500             0.13472100
      8.1503900              0.09356340             0.32867800
      3.1345800              0.60301700             0.44964000
      1.2254300              0.41895900             0.26137200
SP   3   1.00
      1.7273800             -0.24463000            -0.01779510
      0.5729220              0.00431572             0.25353900
      0.2221920              1.09818000             0.80066900
SP   1   1.00
      0.0778369              1.00000000             1.00000000
D    1   1.00
      0.9000000              1.0000000
D    1   1.00
      0.2250000              1.0000000
F    1   1.00
      0.3200000              1.0000000
****
P     0
S    6   1.00
  19413.3000000              0.0018516
   2909.4200000              0.0142062
    661.3640000              0.0699995
    185.7590000              0.2400790
     59.1943000              0.4847620
     20.0310000              0.3352000
SP   6   1.00
    339.4780000             -0.00278217             0.00456462
     81.0101000             -0.0360499              0.03369360
     25.8780000             -0.1166310              0.13975500
      9.4522100              0.0968328              0.33936200
      3.6656600              0.6144180              0.45092100
      1.4674600              0.4037980              0.23858600
SP   3   1.00
      2.1562300             -0.2529230             -0.01776530
      0.7489970              0.0328517              0.27405800
      0.2831450              1.0812500              0.78542100
SP   1   1.00
      0.0998317              1.0000000              1.00000000
D    1   1.00
      1.1000000              1.0000000
D    1   1.00
      0.2750000              1.0000000
F    1   1.00
      0.4500000              1.0000000
****
S     0
S    6   1.00
  21917.1000000              0.0018690
   3301.4900000              0.0142300
    754.1460000              0.0696960
    212.7110000              0.2384870
     67.9896000              0.4833070
     23.0515000              0.3380740
SP   6   1.00
    423.7350000             -0.0023767              0.0040610
    100.7100000             -0.0316930              0.0306810
     32.1599000             -0.1133170              0.1304520
     11.8079000              0.0560900              0.3272050
      4.6311000              0.5922550              0.4528510
      1.8702500              0.4550060              0.2560420
SP   3   1.00
      2.6158400             -0.2503740             -0.0145110
      0.9221670              0.0669570              0.3102630
      0.3412870              1.0545100              0.7544830
SP   1   1.00
      0.1171670              1.0000000              1.0000000
D    1   1.00
      1.3000000              1.0000000
D    1   1.00
      0.3250000              1.0000000
F    1   1.00
      0.5500000              1.0000000
****
Cl     0
S    6   1.00
  25180.1000000              0.0018330
   3780.3500000              0.0140340
    860.4740000              0.0690970
    242.1450000              0.2374520
     77.3349000              0.4830340
     26.2470000              0.3398560
SP   6   1.00
    491.7650000             -0.0022974              0.0039894
    116.9840000             -0.0307140              0.0303180
     37.4153000             -0.1125280              0.1298800
     13.7834000              0.0450160              0.3279510
      5.4521500              0.5893530              0.4535270
      2.2258800              0.4652060              0.2521540
SP   3   1.00
      3.1864900             -0.2518300             -0.0142990
      1.1442700              0.0615890              0.3235720
      0.4203770              1.0601800              0.7435070
SP   1   1.00
      0.1426570              1.0000000              1.0000000
D    1   1.00
      1.5000000              1.0000000
D    1   1.00
      0.3750000              1.0000000
F    1   1.00
      0.7000000              1.0000000
****
}


set {
reference rhf                          
freeze_core true
e_convergence 10                       
d_convergence 10                      
dft_spherical_points 1202
dft_radial_points 99
}

e = energy('b3lyp')

print_out('Grab this energy {0}'.format(e))
--------------------------------------------------------------------------

  Memory set to  13.039 GiB by Python driver.

Scratch directory: /tmp/

*** tstart() called on n041
*** at Sat Oct 23 15:06:34 2021

   => Loading Basis Set <=

    Name: ANONYMOUS17794DA6
    Role: ORBITAL
    Keyword: BASIS
    atoms 1-6  entry C          line    48 inputblock 6-31g_2dfp_ 
    atoms 7-12 entry H          line    15 inputblock 6-31g_2dfp_ 


         ---------------------------------------------------------
                                   SCF
               by Justin Turney, Rob Parrish, Andy Simmonett
                          and Daniel G. A. Smith
                              RKS Reference
                        1 Threads,  13351 MiB Core
         ---------------------------------------------------------

  ==> Geometry <==

    Molecular point group: c2v
    Full point group: C2v

    Geometry (in Bohr), charge = 0, multiplicity = 1:

       Center              X                  Y                   Z               Mass       
    ------------   -----------------  -----------------  -----------------  -----------------
         C            0.000000000000    -2.639147073350    -0.001997655889    12.000000000000
         C            0.000000000000    -1.320367417200    -2.285776368339    12.000000000000
         C           -0.000000000000     1.320367417200    -2.285776368339    12.000000000000
         C           -0.000000000000     2.639147073350    -0.001997655889    12.000000000000
         C           -0.000000000000     1.324248163350     2.288493451861    12.000000000000
         C            0.000000000000    -1.324248163350     2.288493451861    12.000000000000
         H            0.000000000000    -4.688241748600    -0.009751472389     1.007825032230
         H            0.000000000000    -2.337531205750    -4.059078061389     1.007825032230
         H           -0.000000000000     2.337531205750    -4.059078061389     1.007825032230
         H           -0.000000000000     4.688241748600    -0.009751472389     1.007825032230
         H           -0.000000000000     2.349463016250     4.060263432211     1.007825032230
         H            0.000000000000    -2.349463016250     4.060263432211     1.007825032230

  Running in c2v symmetry.

  Rotational constants: A =      0.18959  B =      0.18959  C =      0.09479 [cm^-1]
  Rotational constants: A =   5683.73606  B =   5683.62322  C =   2841.83982 [MHz]
  Nuclear repulsion =  203.182897071743355

  Charge       = 0
  Multiplicity = 1
  Electrons    = 42
  Nalpha       = 21
  Nbeta        = 21

  ==> Algorithm <==

  SCF Algorithm Type is DF.
  DIIS enabled.
  MOM disabled.
  Fractional occupation disabled.
  Guess Type is SAD.
  Energy threshold   = 1.00e-10
  Density threshold  = 1.00e-10
  Integral threshold = 0.00e+00

  ==> Primary Basis <==

  Basis Set: ANONYMOUS17794DA6
    Blend: 6-31G_2DFP_
    Number of shells: 72
    Number of basis function: 204
    Number of Cartesian functions: 234
    Spherical Harmonics?: true
    Max angular momentum: 3

  ==> DFT Potential <==

   => Composite Functional: B3LYP <= 

    B3LYP Hyb-GGA Exchange-Correlation Functional

    P. J. Stephens, F. J. Devlin, C. F. Chabalowski, and M. J. Frisch, J. Phys. Chem. 98, 11623 (1994)

    Deriv               =              1
    GGA                 =           TRUE
    Meta                =          FALSE

    Exchange Hybrid     =           TRUE
    MP2 Hybrid          =          FALSE

   => Exchange Functionals <=

    0.0800   Slater exchange
    0.7200         Becke 88

   => Exact (HF) Exchange <=

    0.2000               HF 

   => Correlation Functionals <=

    0.1900   Vosko, Wilk & Nusair (VWN5_RPA)
    0.8100   Lee, Yang & Parr

   => Molecular Quadrature <=

    Radial Scheme          =       TREUTLER
    Pruning Scheme         =           NONE
    Nuclear Scheme         =       TREUTLER

    BS radius alpha        =              1
    Pruning alpha          =              1
    Radial Points          =             99
    Spherical Points       =           1202
    Total Points           =        1319834
    Total Blocks           =           8940
    Max Points             =            256
    Max Functions          =            198
    Weights Tolerance      =       1.00E-15

   => Loading Basis Set <=

    Name: (ANONYMOUS17794DA6 AUX)
    Role: JKFIT
    Keyword: DF_BASIS_SCF
    atoms 1-6  entry C          line   198 file /opt/psi/4/master/share/psi4/basis/def2-universal-jkfit.gbs 
    atoms 7-12 entry H          line    18 file /opt/psi/4/master/share/psi4/basis/def2-universal-jkfit.gbs 

  ==> Integral Setup <==

  DFHelper Memory: AOs need 0.181 GiB; user supplied 3.649 GiB. Using in-core AOs.

  ==> MemDFJK: Density-Fitted J/K Matrices <==

    J tasked:                   Yes
    K tasked:                   Yes
    wK tasked:                   No
    OpenMP threads:               1
    Memory [MiB]:              3736
    Algorithm:                 Core
    Schwarz Cutoff:           1E-12
    Mask sparsity (%):       1.4658
    Fitting Condition:        1E-10

   => Auxiliary Basis Set <=

  Basis Set: (ANONYMOUS17794DA6 AUX)
    Blend: DEF2-UNIVERSAL-JKFIT
    Number of shells: 186
    Number of basis function: 558
    Number of Cartesian functions: 654
    Spherical Harmonics?: true
    Max angular momentum: 4

  Cached 100.0% of DFT collocation blocks in 6.130 [GiB].

  Minimum eigenvalue in the overlap matrix is 1.0873284786E-04.
  Reciprocal condition number of the overlap matrix is 1.6991764931E-05.
    Using symmetric orthogonalization.

  ==> Pre-Iterations <==

  SCF Guess: Superposition of Atomic Densities via on-the-fly atomic UHF (no occupation information).

   -------------------------
    Irrep   Nso     Nmo    
   -------------------------
     A1        69      69 
     A2        33      33 
     B1        33      33 
     B2        69      69 
   -------------------------
    Total     204     204
   -------------------------

  ==> Iterations <==

                           Total Energy        Delta E     RMS |[F,P]|

   @DF-RKS iter SAD:  -231.71450149226948   -2.31715e+02   0.00000e+00 
   @DF-RKS iter   1:  -231.93073105703942   -2.16230e-01   6.97524e-03 DIIS
   @DF-RKS iter   2:  -231.83210109297403    9.86300e-02   8.20111e-03 DIIS
   @DF-RKS iter   3:  -232.26111513835272   -4.29014e-01   6.55296e-04 DIIS
   @DF-RKS iter   4:  -232.26337907439824   -2.26394e-03   9.19410e-05 DIIS
   @DF-RKS iter   5:  -232.26341370620358   -3.46318e-05   4.64515e-05 DIIS
   @DF-RKS iter   6:  -232.26342755708603   -1.38509e-05   1.28406e-05 DIIS
   @DF-RKS iter   7:  -232.26342869238320   -1.13530e-06   1.47497e-06 DIIS
   @DF-RKS iter   8:  -232.26342870192212   -9.53892e-09   7.32115e-07 DIIS
   @DF-RKS iter   9:  -232.26342870501276   -3.09063e-09   1.07565e-08 DIIS
   @DF-RKS iter  10:  -232.26342870501401   -1.25056e-12   1.53722e-09 DIIS
   @DF-RKS iter  11:  -232.26342870501415   -1.42109e-13   3.84604e-10 DIIS
   @DF-RKS iter  12:  -232.26342870501401    1.42109e-13   2.60776e-11 DIIS
  Energy and wave function converged.


  ==> Post-Iterations <==

    Orbital Energies [Eh]
    ---------------------

    Doubly Occupied:                                                      

       1A1   -10.181230     1B2   -10.180899     2A1   -10.180474  
       2B2   -10.180378     3A1   -10.180044     3B2   -10.179713  
       4A1    -0.845654     4B2    -0.739295     5A1    -0.738868  
       5B2    -0.596999     6A1    -0.596277     7A1    -0.517198  
       6B2    -0.457767     8A1    -0.437821     7B2    -0.415583  
       9A1    -0.415568     1B1    -0.360651     8B2    -0.339435  
      10A1    -0.338041     1A2    -0.247794     2B1    -0.247229  

    Virtual:                                                              

       2A2     0.000494     3B1     0.001361    11A1     0.086159  
       9B2     0.130766    12A1     0.131097     3A2     0.158094  
      13A1     0.162896    10B2     0.163023    11B2     0.182679  
      12B2     0.283044    14A1     0.283725    13B2     0.301332  
      15A1     0.302715    16A1     0.370325    17A1     0.405690  
       4B1     0.422493    14B2     0.469011    18A1     0.469330  
      19A1     0.470806    15B2     0.472894    20A1     0.473980  
       4A2     0.496628     5B1     0.496775    16B2     0.502935  
       6B1     0.530278    17B2     0.546914    18B2     0.609812  
      21A1     0.610370     5A2     0.611150     7B1     0.611263  
      22A1     0.644391    19B2     0.644449     8B1     0.650426  
       6A2     0.667289     9B1     0.699774     7A2     0.700174  
      20B2     0.717551    23A1     0.718769    24A1     0.724156  
      21B2     0.726308     8A2     0.788236    10B1     0.788402  
      22B2     0.826222    23B2     0.875054    25A1     0.875399  
      24B2     0.888009    11B1     0.930920    26A1     0.966009  
      27A1     0.991529    25B2     0.991602    12B1     1.036298  
       9A2     1.036781    10A2     1.085679    13B1     1.086088  
      11A2     1.095909    26B2     1.132010    28A1     1.132191  
      29A1     1.147168    30A1     1.213068    27B2     1.213707  
      12A2     1.302120    14B1     1.302155    31A1     1.303765  
      28B2     1.304043    13A2     1.372237    15B1     1.372875  
      32A1     1.383855    29B2     1.396420    33A1     1.397777  
      34A1     1.421303    30B2     1.425769    35A1     1.426097  
      31B2     1.471329    32B2     1.485220    33B2     1.523574  
      36A1     1.525720    14A2     1.582555    15A2     1.586346  
      37A1     1.624719    34B2     1.625625    38A1     1.715748  
      35B2     1.787671    36B2     1.952633    39A1     1.960717  
      37B2     1.961065    40A1     2.348530    38B2     2.349760  
      41A1     2.379300    39B2     2.382575    16B1     2.460893  
      40B2     2.487997    41B2     2.542998    42A1     2.545243  
      17B1     2.636675    43A1     2.728834    16A2     2.813250  
      18B1     2.813437    44A1     2.825024    19B1     2.830922  
      17A2     2.831668    20B1     2.837652    21B1     2.897440  
      18A2     2.897800    45A1     2.936534    42B2     2.937309  
      46A1     2.989218    43B2     2.989853    47A1     2.992284  
      48A1     3.097851    19A2     3.130728    22B1     3.131393  
      44B2     3.137505    49A1     3.138233    23B1     3.155754  
      20A2     3.157459    24B1     3.181974    50A1     3.203684  
      45B2     3.276971    51A1     3.279833    25B1     3.323870  
      21A2     3.324779    46B2     3.327326    52A1     3.330366  
      47B2     3.335590    22A2     3.442796    23A2     3.515543  
      26B1     3.528699    53A1     3.540575    48B2     3.541771  
      49B2     3.598483    54A1     3.610293    50B2     3.612490  
      51B2     3.645576    24A2     3.662117    27B1     3.662309  
      25A2     3.665983    52B2     3.673672    55A1     3.674970  
      53B2     3.689102    26A2     3.716944    28B1     3.718455  
      56A1     3.831308    54B2     3.918721    57A1     3.919045  
      58A1     3.975121    55B2     3.976360    27A2     4.009982  
      29B1     4.037662    30B1     4.049288    28A2     4.049409  
      29A2     4.062509    31B1     4.066509    56B2     4.112013  
      59A1     4.116249    30A2     4.236212    32B1     4.237170  
      60A1     4.317777    57B2     4.325057    61A1     4.328709  
      62A1     4.342227    58B2     4.369514    31A2     4.438029  
      33B1     4.438864    59B2     4.470767    60B2     4.577231  
      63A1     4.623299    61B2     4.625728    32A2     4.737720  
      62B2     4.854953    64A1     4.856021    33A2     4.881520  
      63B2     4.893458    65A1     4.933972    66A1     5.079334  
      64B2     5.081150    67A1     5.146236    65B2     5.159745  
      66B2     5.442310    68A1     5.443734    67B2     5.598066  
      69A1     5.598312    68B2     5.975467    69B2     6.031973  

    Final Occupation by Irrep:
             A1    A2    B1    B2 
    DOCC [    10,    1,    2,    8 ]

  @DF-RKS Final Energy:  -232.26342870501401

   => Energetics <=

    Nuclear Repulsion Energy =            203.1828970717433549
    One-Electron Energy =                -713.8717600044894880
    Two-Electron Energy =                 306.6053186375161204
    DFT Exchange-Correlation Energy =     -28.1798844097839876
    Empirical Dispersion Energy =           0.0000000000000000
    VV10 Nonlocal Energy =                  0.0000000000000000
    Total Energy =                       -232.2634287050140074

Computation Completed


Properties will be evaluated at   0.000000,   0.000000,   0.000000 [a0]

Properties computed using the SCF density matrix

  Nuclear Dipole Moment: [e a0]
     X:     0.0000      Y:    -0.0000      Z:    -0.0085

  Electronic Dipole Moment: [e a0]
     X:     0.0000      Y:     0.0000      Z:     0.0068

  Dipole Moment: [e a0]
     X:     0.0000      Y:    -0.0000      Z:    -0.0017     Total:     0.0017

  Dipole Moment: [D]
     X:     0.0000      Y:    -0.0000      Z:    -0.0042     Total:     0.0042


*** tstop() called on n041 at Sat Oct 23 15:08:48 2021
Module time:
	user time   =     133.23 seconds =       2.22 minutes
	system time =       1.15 seconds =       0.02 minutes
	total time  =        134 seconds =       2.23 minutes
Total time:
	user time   =     133.23 seconds =       2.22 minutes
	system time =       1.15 seconds =       0.02 minutes
	total time  =        134 seconds =       2.23 minutes
Grab this energy -232.263428705014
    Psi4 stopped on: Saturday, 23 October 2021 03:08PM
    Psi4 wall time for execution: 0:02:14.42

*** Psi4 exiting successfully. Buy a developer a beer!
