
    -----------------------------------------------------------------------
          Psi4: An Open-Source Ab Initio Electronic Structure Package
                               Psi4 1.4a2.dev629 

                         Git: Rev {master} 2938fc2 dirty


    D. G. A. Smith, L. A. Burns, A. C. Simmonett, R. M. Parrish,
    M. C. Schieber, R. Galvelis, P. Kraus, H. Kruse, R. Di Remigio,
    A. Alenaizan, A. M. James, S. Lehtola, J. P. Misiewicz, M. Scheurer,
    R. A. Shaw, J. B. Schriber, Y. Xie, Z. L. Glick, D. A. Sirianni,
    J. S. O'Brien, J. M. Waldrop, A. Kumar, E. G. Hohenstein,
    B. P. Pritchard, B. R. Brooks, H. F. Schaefer III, A. Yu. Sokolov,
    K. Patkowski, A. E. DePrince III, U. Bozkaya, R. A. King,
    F. A. Evangelista, J. M. Turney, T. D. Crawford, C. D. Sherrill,
    J. Chem. Phys. 152(18) 184108 (2020). https://doi.org/10.1063/5.0006002

                            Additional Code Authors
    E. T. Seidl, C. L. Janssen, E. F. Valeev, M. L. Leininger,
    J. F. Gonthier, R. M. Richard, H. R. McAlexander, M. Saitow, X. Wang,
    P. Verma, and M. H. Lechner

             Previous Authors, Complete List of Code Contributors,
                       and Citations for Specific Modules
    https://github.com/psi4/psi4/blob/master/codemeta.json
    https://github.com/psi4/psi4/graphs/contributors
    http://psicode.org/psi4manual/master/introduction.html#citing-psifour

    -----------------------------------------------------------------------


    Psi4 started on: Saturday, 23 October 2021 02:55PM

    Process ID: 3131
    Host:       n035
    PSIDATADIR: /opt/psi/4/master/share/psi4
    Memory:     500.0 MiB
    Threads:    1
    
  ==> Input File <==

--------------------------------------------------------------------------
import os
memory 14 GB 
 
molecule {
 C   -0.0000000000    2.6427827954   -0.0016183245
 C   -2.2871456185    1.3186577897   -0.0016180539
 C   -2.2871456185   -1.3186577897   -0.0016180539
 C    0.0000000000   -2.6427827954   -0.0016183245
 C    2.2871456185   -1.3186577897   -0.0016180539
 C    2.2871456185    1.3186577897   -0.0016180539
 H   -0.0000000000    4.6872908004    0.0016103495
 H   -4.0597793717    2.3442784952    0.0016220414
 H   -4.0597793717   -2.3442784952    0.0016220414
 H    0.0000000000   -4.6872908004    0.0016103495
 H    4.0597793717   -2.3442784952    0.0016220414
 H    4.0597793717    2.3442784952    0.0016220414
units bohr
}

basis {

assign 6-31g_2dfp_

[ 6-31g_2dfp_ ]

spherical

!----------------------------------------------------------------------
! Basis Set Exchange
! Version v0.8.13
! https://www.basissetexchange.org
!----------------------------------------------------------------------
!   Basis set: 6-31G(2df,p)
! Description: 6-31G(2df,p)
!        Role: orbital
!     Version: 0  (Data from the original Basis Set Exchange)
!----------------------------------------------------------------------


****
H     0
S    3   1.00
     18.7311370              0.03349460
      2.8253937              0.23472695
      0.6401217              0.81375733
S    1   1.00
      0.1612778              1.00000000
P    1   1.00
      1.5000000              1.0000000
P    1   1.00
      0.3750000              1.0000000
****
B     0
S    6   1.00
   2068.8823000              0.0018663
    310.6495700              0.0142515
     70.6830330              0.0695516
     19.8610800              0.2325729
      6.2993048              0.4670787
      2.1270270              0.3634314
SP   3   1.00
      4.7279710             -0.1303938              0.0745976
      1.1903377             -0.1307889              0.3078467
      0.3594117              1.1309444              0.7434568
SP   1   1.00
      0.1267512              1.0000000              1.0000000
D    1   1.00
      0.8020000              1.0000000
D    1   1.00
      0.2005000              1.0000000
F    1   1.00
      0.5000000              1.0000000
****
C     0
S    6   1.00
   3047.5249000              0.0018347
    457.3695100              0.0140373
    103.9486900              0.0688426
     29.2101550              0.2321844
      9.2866630              0.4679413
      3.1639270              0.3623120
SP   3   1.00
      7.8682724             -0.1193324              0.0689991
      1.8812885             -0.1608542              0.3164240
      0.5442493              1.1434564              0.7443083
SP   1   1.00
      0.1687144              1.0000000              1.0000000
D    1   1.00
      1.2520000              1.0000000
D    1   1.00
      0.3130000              1.0000000
F    1   1.00
      0.8000000              1.0000000
****
N     0
S    6   1.00
   4173.5110000              0.0018348
    627.4579000              0.0139950
    142.9021000              0.0685870
     40.2343300              0.2322410
     12.8202100              0.4690700
      4.3904370              0.3604550
SP   3   1.00
     11.6263580             -0.1149610              0.0675800
      2.7162800             -0.1691180              0.3239070
      0.7722180              1.1458520              0.7408950
SP   1   1.00
      0.2120313              1.0000000              1.0000000
D    1   1.00
      1.8260000              1.0000000
D    1   1.00
      0.4565000              1.0000000
F    1   1.00
      1.0000000              1.0000000
****
O     0
S    6   1.00
   5484.6717000              0.0018311
    825.2349500              0.0139501
    188.0469600              0.0684451
     52.9645000              0.2327143
     16.8975700              0.4701930
      5.7996353              0.3585209
SP   3   1.00
     15.5396160             -0.1107775              0.0708743
      3.5999336             -0.1480263              0.3397528
      1.0137618              1.1307670              0.7271586
SP   1   1.00
      0.2700058              1.0000000              1.0000000
D    1   1.00
      2.5840000              1.0000000
D    1   1.00
      0.6460000              1.0000000
F    1   1.00
      1.4000000              1.0000000
****
F     0
S    6   1.00
   7001.7130900              0.0018196169
   1051.3660900              0.0139160796
    239.2856900              0.0684053245
     67.3974453              0.233185760
     21.5199573              0.471267439
      7.40310130             0.356618546
SP   3   1.00
     20.8479528             -0.108506975            0.0716287243
      4.80830834            -0.146451658            0.3459121030
      1.34406986             1.128688580            0.7224699570
SP   1   1.00
      0.358151393            1.0000000              1.0000000
D    1   1.00
      3.5000000              1.0000000
D    1   1.00
      0.8750000              1.0000000
F    1   1.00
      1.8500000              1.0000000
****
Al     0
S    6   1.00
  13983.1000000              0.00194267
   2098.7500000              0.0148599
    477.7050000              0.0728494
    134.3600000              0.2468300
     42.8709000              0.4872580
     14.5189000              0.3234960
SP   6   1.00
    239.6680000             -0.00292619             0.00460285
     57.4419000             -0.0374080              0.0331990
     18.2859000             -0.1144870              0.1362820
      6.5991400              0.1156350              0.3304760
      2.4904900              0.6125950              0.4491460
      0.9445400              0.3937990              0.2657040
SP   3   1.00
      1.2779000             -0.2276060             -0.0175130
      0.3975900              0.00144583             0.2445330
      0.1600950              1.0927900              0.8049340
SP   1   1.00
      0.0556577              1.0000000              1.0000000
D    1   1.00
      0.6500000              1.0000000
D    1   1.00
      0.1625000              1.0000000
F    1   1.00
      0.2500000              1.0000000
****
Si     0
S    6   1.00
  16115.9000000              0.00195948
   2425.5800000              0.01492880
    553.8670000              0.07284780
    156.3400000              0.24613000
     50.0683000              0.48591400
     17.0178000              0.32500200
SP   6   1.00
    292.7180000             -0.00278094             0.00443826
     69.8731000             -0.03571460             0.03266790
     22.3363000             -0.11498500             0.13472100
      8.1503900              0.09356340             0.32867800
      3.1345800              0.60301700             0.44964000
      1.2254300              0.41895900             0.26137200
SP   3   1.00
      1.7273800             -0.24463000            -0.01779510
      0.5729220              0.00431572             0.25353900
      0.2221920              1.09818000             0.80066900
SP   1   1.00
      0.0778369              1.00000000             1.00000000
D    1   1.00
      0.9000000              1.0000000
D    1   1.00
      0.2250000              1.0000000
F    1   1.00
      0.3200000              1.0000000
****
P     0
S    6   1.00
  19413.3000000              0.0018516
   2909.4200000              0.0142062
    661.3640000              0.0699995
    185.7590000              0.2400790
     59.1943000              0.4847620
     20.0310000              0.3352000
SP   6   1.00
    339.4780000             -0.00278217             0.00456462
     81.0101000             -0.0360499              0.03369360
     25.8780000             -0.1166310              0.13975500
      9.4522100              0.0968328              0.33936200
      3.6656600              0.6144180              0.45092100
      1.4674600              0.4037980              0.23858600
SP   3   1.00
      2.1562300             -0.2529230             -0.01776530
      0.7489970              0.0328517              0.27405800
      0.2831450              1.0812500              0.78542100
SP   1   1.00
      0.0998317              1.0000000              1.00000000
D    1   1.00
      1.1000000              1.0000000
D    1   1.00
      0.2750000              1.0000000
F    1   1.00
      0.4500000              1.0000000
****
S     0
S    6   1.00
  21917.1000000              0.0018690
   3301.4900000              0.0142300
    754.1460000              0.0696960
    212.7110000              0.2384870
     67.9896000              0.4833070
     23.0515000              0.3380740
SP   6   1.00
    423.7350000             -0.0023767              0.0040610
    100.7100000             -0.0316930              0.0306810
     32.1599000             -0.1133170              0.1304520
     11.8079000              0.0560900              0.3272050
      4.6311000              0.5922550              0.4528510
      1.8702500              0.4550060              0.2560420
SP   3   1.00
      2.6158400             -0.2503740             -0.0145110
      0.9221670              0.0669570              0.3102630
      0.3412870              1.0545100              0.7544830
SP   1   1.00
      0.1171670              1.0000000              1.0000000
D    1   1.00
      1.3000000              1.0000000
D    1   1.00
      0.3250000              1.0000000
F    1   1.00
      0.5500000              1.0000000
****
Cl     0
S    6   1.00
  25180.1000000              0.0018330
   3780.3500000              0.0140340
    860.4740000              0.0690970
    242.1450000              0.2374520
     77.3349000              0.4830340
     26.2470000              0.3398560
SP   6   1.00
    491.7650000             -0.0022974              0.0039894
    116.9840000             -0.0307140              0.0303180
     37.4153000             -0.1125280              0.1298800
     13.7834000              0.0450160              0.3279510
      5.4521500              0.5893530              0.4535270
      2.2258800              0.4652060              0.2521540
SP   3   1.00
      3.1864900             -0.2518300             -0.0142990
      1.1442700              0.0615890              0.3235720
      0.4203770              1.0601800              0.7435070
SP   1   1.00
      0.1426570              1.0000000              1.0000000
D    1   1.00
      1.5000000              1.0000000
D    1   1.00
      0.3750000              1.0000000
F    1   1.00
      0.7000000              1.0000000
****
}


set {
reference rhf                          
freeze_core true
e_convergence 10                       
d_convergence 10                      
dft_spherical_points 1202
dft_radial_points 99
}

e = energy('b3lyp')

print_out('Grab this energy {0}'.format(e))
--------------------------------------------------------------------------

  Memory set to  13.039 GiB by Python driver.

Scratch directory: /tmp/

*** tstart() called on n035
*** at Sat Oct 23 14:55:03 2021

   => Loading Basis Set <=

    Name: ANONYMOUS3BB6E827
    Role: ORBITAL
    Keyword: BASIS
    atoms 1-6  entry C          line    48 inputblock 6-31g_2dfp_ 
    atoms 7-12 entry H          line    15 inputblock 6-31g_2dfp_ 


         ---------------------------------------------------------
                                   SCF
               by Justin Turney, Rob Parrish, Andy Simmonett
                          and Daniel G. A. Smith
                              RKS Reference
                        1 Threads,  13351 MiB Core
         ---------------------------------------------------------

  ==> Geometry <==

    Molecular point group: c2v
    Full point group: C2v

    Geometry (in Bohr), charge = 0, multiplicity = 1:

       Center              X                  Y                   Z               Mass       
    ------------   -----------------  -----------------  -----------------  -----------------
         C           -0.000000000000     2.642782795400    -0.000250922723    12.000000000000
         C           -2.287145618500     1.318657789700    -0.000250652123    12.000000000000
         C           -2.287145618500    -1.318657789700    -0.000250652123    12.000000000000
         C            0.000000000000    -2.642782795400    -0.000250922723    12.000000000000
         C            2.287145618500    -1.318657789700    -0.000250652123    12.000000000000
         C            2.287145618500     1.318657789700    -0.000250652123    12.000000000000
         H           -0.000000000000     4.687290800400     0.002977751277     1.007825032230
         H           -4.059779371700     2.344278495200     0.002989443177     1.007825032230
         H           -4.059779371700    -2.344278495200     0.002989443177     1.007825032230
         H            0.000000000000    -4.687290800400     0.002977751277     1.007825032230
         H            4.059779371700    -2.344278495200     0.002989443177     1.007825032230
         H            4.059779371700     2.344278495200     0.002989443177     1.007825032230

  Running in c2v symmetry.

  Rotational constants: A =      0.18959  B =      0.18959  C =      0.09479 [cm^-1]
  Rotational constants: A =   5683.71773  B =   5683.63604  C =   2841.83897 [MHz]
  Nuclear repulsion =  203.182710975485833

  Charge       = 0
  Multiplicity = 1
  Electrons    = 42
  Nalpha       = 21
  Nbeta        = 21

  ==> Algorithm <==

  SCF Algorithm Type is DF.
  DIIS enabled.
  MOM disabled.
  Fractional occupation disabled.
  Guess Type is SAD.
  Energy threshold   = 1.00e-10
  Density threshold  = 1.00e-10
  Integral threshold = 0.00e+00

  ==> Primary Basis <==

  Basis Set: ANONYMOUS3BB6E827
    Blend: 6-31G_2DFP_
    Number of shells: 72
    Number of basis function: 204
    Number of Cartesian functions: 234
    Spherical Harmonics?: true
    Max angular momentum: 3

  ==> DFT Potential <==

   => Composite Functional: B3LYP <= 

    B3LYP Hyb-GGA Exchange-Correlation Functional

    P. J. Stephens, F. J. Devlin, C. F. Chabalowski, and M. J. Frisch, J. Phys. Chem. 98, 11623 (1994)

    Deriv               =              1
    GGA                 =           TRUE
    Meta                =          FALSE

    Exchange Hybrid     =           TRUE
    MP2 Hybrid          =          FALSE

   => Exchange Functionals <=

    0.0800   Slater exchange
    0.7200         Becke 88

   => Exact (HF) Exchange <=

    0.2000               HF 

   => Correlation Functionals <=

    0.1900   Vosko, Wilk & Nusair (VWN5_RPA)
    0.8100   Lee, Yang & Parr

   => Molecular Quadrature <=

    Radial Scheme          =       TREUTLER
    Pruning Scheme         =           NONE
    Nuclear Scheme         =       TREUTLER

    BS radius alpha        =              1
    Pruning alpha          =              1
    Radial Points          =             99
    Spherical Points       =           1202
    Total Points           =        1319798
    Total Blocks           =           8858
    Max Points             =            256
    Max Functions          =            198
    Weights Tolerance      =       1.00E-15

   => Loading Basis Set <=

    Name: (ANONYMOUS3BB6E827 AUX)
    Role: JKFIT
    Keyword: DF_BASIS_SCF
    atoms 1-6  entry C          line   198 file /opt/psi/4/master/share/psi4/basis/def2-universal-jkfit.gbs 
    atoms 7-12 entry H          line    18 file /opt/psi/4/master/share/psi4/basis/def2-universal-jkfit.gbs 

  ==> Integral Setup <==

  DFHelper Memory: AOs need 0.182 GiB; user supplied 3.662 GiB. Using in-core AOs.

  ==> MemDFJK: Density-Fitted J/K Matrices <==

    J tasked:                   Yes
    K tasked:                   Yes
    wK tasked:                   No
    OpenMP threads:               1
    Memory [MiB]:              3749
    Algorithm:                 Core
    Schwarz Cutoff:           1E-12
    Mask sparsity (%):       1.4081
    Fitting Condition:        1E-10

   => Auxiliary Basis Set <=

  Basis Set: (ANONYMOUS3BB6E827 AUX)
    Blend: DEF2-UNIVERSAL-JKFIT
    Number of shells: 186
    Number of basis function: 558
    Number of Cartesian functions: 654
    Spherical Harmonics?: true
    Max angular momentum: 4

  Cached 100.0% of DFT collocation blocks in 6.117 [GiB].

  Minimum eigenvalue in the overlap matrix is 9.8911794488E-05.
  Reciprocal condition number of the overlap matrix is 1.6780277099E-05.
    Using symmetric orthogonalization.

  ==> Pre-Iterations <==

  SCF Guess: Superposition of Atomic Densities via on-the-fly atomic UHF (no occupation information).

   -------------------------
    Irrep   Nso     Nmo    
   -------------------------
     A1        57      57 
     A2        45      45 
     B1        45      45 
     B2        57      57 
   -------------------------
    Total     204     204
   -------------------------

  ==> Iterations <==

                           Total Energy        Delta E     RMS |[F,P]|

   @DF-RKS iter SAD:  -231.71448863139784   -2.31714e+02   0.00000e+00 
   @DF-RKS iter   1:  -231.93076064516222   -2.16272e-01   7.34608e-03 DIIS
   @DF-RKS iter   2:  -231.83216540318767    9.85952e-02   8.63690e-03 DIIS
   @DF-RKS iter   3:  -232.26113527861051   -4.28970e-01   6.89607e-04 DIIS
   @DF-RKS iter   4:  -232.26340028838271   -2.26501e-03   9.17979e-05 DIIS
   @DF-RKS iter   5:  -232.26344332499795   -4.30366e-05   9.86455e-06 DIIS
   @DF-RKS iter   6:  -232.26344354943325   -2.24435e-07   7.97248e-06 DIIS
   @DF-RKS iter   7:  -232.26344387650863   -3.27075e-07   5.24146e-07 DIIS
   @DF-RKS iter   8:  -232.26344387798230   -1.47367e-09   2.20608e-08 DIIS
   @DF-RKS iter   9:  -232.26344387798417   -1.87583e-12   1.21476e-08 DIIS
   @DF-RKS iter  10:  -232.26344387798486   -6.82121e-13   1.37409e-09 DIIS
   @DF-RKS iter  11:  -232.26344387798511   -2.55795e-13   6.29792e-11 DIIS
  Energy and wave function converged.


  ==> Post-Iterations <==

    Orbital Energies [Eh]
    ---------------------

    Doubly Occupied:                                                      

       1A1   -10.180822     1B2   -10.180753     1B1   -10.180689  
       2A1   -10.180252     1A2   -10.180181     2B2   -10.180043  
       3A1    -0.845651     2B1    -0.739295     3B2    -0.738869  
       4A1    -0.597000     2A2    -0.596274     5A1    -0.517196  
       4B2    -0.457768     3B1    -0.437822     4B1    -0.415581  
       5B2    -0.415571     6A1    -0.360649     7A1    -0.339436  
       3A2    -0.338042     5B1    -0.247794     6B2    -0.247229  

    Virtual:                                                              

       8A1     0.000495     4A2     0.001361     9A1     0.086159  
       6B1     0.130766     7B2     0.131097     8B2     0.158090  
       5A2     0.162897    10A1     0.163045     9B2     0.182661  
      11A1     0.283061     6A2     0.283736     7B1     0.301319  
      10B2     0.302706    12A1     0.370322     8B1     0.405691  
      13A1     0.422494     9B1     0.469066    11B2     0.469406  
      14A1     0.470711    15A1     0.473034     7A2     0.473857  
      10B1     0.496630    12B2     0.496776    13B2     0.502885  
      16A1     0.530279     8A2     0.546913    11B1     0.609809  
      14B2     0.610372    17A1     0.611156     9A2     0.611259  
      10A2     0.644388    18A1     0.644452    12B1     0.650430  
      15B2     0.667284    16B2     0.699774    13B1     0.700176  
      14B1     0.717571    17B2     0.718751    19A1     0.724157  
      18B2     0.726307    20A1     0.788234    11A2     0.788391  
      12A2     0.826213    21A1     0.875128    13A2     0.875417  
      19B2     0.887926    22A1     0.930923    23A1     0.966063  
      20B2     0.991492    15B1     0.991596    14A2     1.036298  
      24A1     1.036794    16B1     1.085677    21B2     1.086083  
      22B2     1.095898    25A1     1.132019    15A2     1.132196  
      17B1     1.147172    16A2     1.213060    26A1     1.213726  
      23B2     1.301933    18B1     1.301935    24B2     1.303990  
      19B1     1.304231    27A1     1.372221    17A2     1.372862  
      28A1     1.383885    29A1     1.396503    18A2     1.397798  
      20B1     1.421338    25B2     1.425427    21B1     1.426320  
      19A2     1.471342    26B2     1.485202    22B1     1.523515  
      27B2     1.525720    28B2     1.582554    20A2     1.586355  
      21A2     1.624725    30A1     1.625619    31A1     1.715748  
      29B2     1.787647    22A2     1.953047    23B1     1.960705  
      30B2     1.960718    31B2     2.348780    24B1     2.349953  
      23A2     2.379047    32A1     2.382447    25B1     2.460890  
      32B2     2.487955    33A1     2.542956    24A2     2.545255  
      34A1     2.636679    26B1     2.728829    27B1     2.813256  
      33B2     2.813432    35A1     2.825020    25A2     2.831040  
      36A1     2.831551    37A1     2.837661    34B2     2.897446  
      28B1     2.897805    35B2     2.936549    29B1     2.937285  
      26A2     2.989451    38A1     2.989842    30B1     2.992041  
      39A1     3.097853    40A1     3.130791    27A2     3.131444  
      41A1     3.137555    28A2     3.138198    36B2     3.155746  
      31B1     3.157404    42A1     3.181910    43A1     3.203702  
      32B1     3.276975    37B2     3.279820    29A2     3.323844  
      44A1     3.324815    33B1     3.327338    38B2     3.330364  
      39B2     3.335621    40B2     3.442774    30A2     3.515551  
      34B1     3.528701    41B2     3.540560    35B1     3.541828  
      42B2     3.598520    31A2     3.610290    45A1     3.612480  
      32A2     3.645555    43B2     3.662139    36B1     3.662321  
      44B2     3.665988    46A1     3.673690    33A2     3.675021  
      45B2     3.688996    47A1     3.716869    34A2     3.718474  
      37B1     3.831316    48A1     3.918755    35A2     3.919094  
      46B2     3.975053    38B1     3.976291    47B2     4.010075  
      49A1     4.037666    36A2     4.049276    50A1     4.049284  
      39B1     4.062471    48B2     4.066533    51A1     4.111975  
      37A2     4.116288    40B1     4.236239    49B2     4.237196  
      52A1     4.317764    41B1     4.325113    50B2     4.328702  
      42B1     4.342244    38A2     4.369469    53A1     4.438039  
      39A2     4.438831    51B2     4.470812    40A2     4.577261  
      41A2     4.623317    54A1     4.625719    42A2     4.737710  
      43B1     4.854907    52B2     4.856017    53B2     4.881478  
      54B2     4.893580    55A1     4.933940    43A2     5.079456  
      56A1     5.081101    55B2     5.146166    44B1     5.159498  
      57A1     5.442403    44A2     5.443842    45B1     5.597949  
      56B2     5.598234    57B2     5.975468    45A2     6.031976  

    Final Occupation by Irrep:
             A1    A2    B1    B2 
    DOCC [     7,    3,    5,    6 ]

  @DF-RKS Final Energy:  -232.26344387798511

   => Energetics <=

    Nuclear Repulsion Energy =            203.1827109754858327
    One-Electron Energy =                -713.8714233314088915
    Two-Electron Energy =                 306.6051466260004190
    DFT Exchange-Correlation Energy =     -28.1798781480624960
    Empirical Dispersion Energy =           0.0000000000000000
    VV10 Nonlocal Energy =                  0.0000000000000000
    Total Energy =                       -232.2634438779851109

Computation Completed


Properties will be evaluated at   0.000000,   0.000000,   0.000000 [a0]

Properties computed using the SCF density matrix

  Nuclear Dipole Moment: [e a0]
     X:     0.0000      Y:     0.0000      Z:     0.0089

  Electronic Dipole Moment: [e a0]
     X:     0.0000      Y:     0.0000      Z:    -0.0069

  Dipole Moment: [e a0]
     X:     0.0000      Y:     0.0000      Z:     0.0020     Total:     0.0020

  Dipole Moment: [D]
     X:     0.0000      Y:     0.0000      Z:     0.0051     Total:     0.0051


*** tstop() called on n035 at Sat Oct 23 14:57:07 2021
Module time:
	user time   =     122.92 seconds =       2.05 minutes
	system time =       1.15 seconds =       0.02 minutes
	total time  =        124 seconds =       2.07 minutes
Total time:
	user time   =     122.92 seconds =       2.05 minutes
	system time =       1.15 seconds =       0.02 minutes
	total time  =        124 seconds =       2.07 minutes
Grab this energy -232.2634438779851
    Psi4 stopped on: Saturday, 23 October 2021 02:57PM
    Psi4 wall time for execution: 0:02:04.12

*** Psi4 exiting successfully. Buy a developer a beer!
