
    -----------------------------------------------------------------------
          Psi4: An Open-Source Ab Initio Electronic Structure Package
                               Psi4 1.4a2.dev629 

                         Git: Rev {master} 2938fc2 dirty


    D. G. A. Smith, L. A. Burns, A. C. Simmonett, R. M. Parrish,
    M. C. Schieber, R. Galvelis, P. Kraus, H. Kruse, R. Di Remigio,
    A. Alenaizan, A. M. James, S. Lehtola, J. P. Misiewicz, M. Scheurer,
    R. A. Shaw, J. B. Schriber, Y. Xie, Z. L. Glick, D. A. Sirianni,
    J. S. O'Brien, J. M. Waldrop, A. Kumar, E. G. Hohenstein,
    B. P. Pritchard, B. R. Brooks, H. F. Schaefer III, A. Yu. Sokolov,
    K. Patkowski, A. E. DePrince III, U. Bozkaya, R. A. King,
    F. A. Evangelista, J. M. Turney, T. D. Crawford, C. D. Sherrill,
    J. Chem. Phys. 152(18) 184108 (2020). https://doi.org/10.1063/5.0006002

                            Additional Code Authors
    E. T. Seidl, C. L. Janssen, E. F. Valeev, M. L. Leininger,
    J. F. Gonthier, R. M. Richard, H. R. McAlexander, M. Saitow, X. Wang,
    P. Verma, and M. H. Lechner

             Previous Authors, Complete List of Code Contributors,
                       and Citations for Specific Modules
    https://github.com/psi4/psi4/blob/master/codemeta.json
    https://github.com/psi4/psi4/graphs/contributors
    http://psicode.org/psi4manual/master/introduction.html#citing-psifour

    -----------------------------------------------------------------------


    Psi4 started on: Saturday, 23 October 2021 03:41PM

    Process ID: 32732
    Host:       n056
    PSIDATADIR: /opt/psi/4/master/share/psi4
    Memory:     500.0 MiB
    Threads:    1
    
  ==> Input File <==

--------------------------------------------------------------------------
import os
memory 14 GB 
 
molecule {
 C    0.0019236295    2.6409630696    0.0000000000
 C   -2.2881982585    1.3222027651    0.0000000000
 C   -2.2881982585   -1.3222027651    0.0000000000
 C    0.0019236295   -2.6409630696   -0.0000000000
 C    2.2860873514   -1.3187628149    0.0000000000
 C    2.2860873514    1.3187628149    0.0000000000
 H   -0.0006113278    4.6877714499   -0.0000000000
 H   -4.0593318357    2.3433053798   -0.0000000000
 H   -4.0593318357   -2.3433053798   -0.0000000000
 H   -0.0006113278   -4.6877714499   -0.0000000000
 H    4.0601304411   -2.3444723544   -0.0000000000
 H    4.0601304411    2.3444723544   -0.0000000000
units bohr
}

basis {

assign 6-31g_2dfp_

[ 6-31g_2dfp_ ]

spherical

!----------------------------------------------------------------------
! Basis Set Exchange
! Version v0.8.13
! https://www.basissetexchange.org
!----------------------------------------------------------------------
!   Basis set: 6-31G(2df,p)
! Description: 6-31G(2df,p)
!        Role: orbital
!     Version: 0  (Data from the original Basis Set Exchange)
!----------------------------------------------------------------------


****
H     0
S    3   1.00
     18.7311370              0.03349460
      2.8253937              0.23472695
      0.6401217              0.81375733
S    1   1.00
      0.1612778              1.00000000
P    1   1.00
      1.5000000              1.0000000
P    1   1.00
      0.3750000              1.0000000
****
B     0
S    6   1.00
   2068.8823000              0.0018663
    310.6495700              0.0142515
     70.6830330              0.0695516
     19.8610800              0.2325729
      6.2993048              0.4670787
      2.1270270              0.3634314
SP   3   1.00
      4.7279710             -0.1303938              0.0745976
      1.1903377             -0.1307889              0.3078467
      0.3594117              1.1309444              0.7434568
SP   1   1.00
      0.1267512              1.0000000              1.0000000
D    1   1.00
      0.8020000              1.0000000
D    1   1.00
      0.2005000              1.0000000
F    1   1.00
      0.5000000              1.0000000
****
C     0
S    6   1.00
   3047.5249000              0.0018347
    457.3695100              0.0140373
    103.9486900              0.0688426
     29.2101550              0.2321844
      9.2866630              0.4679413
      3.1639270              0.3623120
SP   3   1.00
      7.8682724             -0.1193324              0.0689991
      1.8812885             -0.1608542              0.3164240
      0.5442493              1.1434564              0.7443083
SP   1   1.00
      0.1687144              1.0000000              1.0000000
D    1   1.00
      1.2520000              1.0000000
D    1   1.00
      0.3130000              1.0000000
F    1   1.00
      0.8000000              1.0000000
****
N     0
S    6   1.00
   4173.5110000              0.0018348
    627.4579000              0.0139950
    142.9021000              0.0685870
     40.2343300              0.2322410
     12.8202100              0.4690700
      4.3904370              0.3604550
SP   3   1.00
     11.6263580             -0.1149610              0.0675800
      2.7162800             -0.1691180              0.3239070
      0.7722180              1.1458520              0.7408950
SP   1   1.00
      0.2120313              1.0000000              1.0000000
D    1   1.00
      1.8260000              1.0000000
D    1   1.00
      0.4565000              1.0000000
F    1   1.00
      1.0000000              1.0000000
****
O     0
S    6   1.00
   5484.6717000              0.0018311
    825.2349500              0.0139501
    188.0469600              0.0684451
     52.9645000              0.2327143
     16.8975700              0.4701930
      5.7996353              0.3585209
SP   3   1.00
     15.5396160             -0.1107775              0.0708743
      3.5999336             -0.1480263              0.3397528
      1.0137618              1.1307670              0.7271586
SP   1   1.00
      0.2700058              1.0000000              1.0000000
D    1   1.00
      2.5840000              1.0000000
D    1   1.00
      0.6460000              1.0000000
F    1   1.00
      1.4000000              1.0000000
****
F     0
S    6   1.00
   7001.7130900              0.0018196169
   1051.3660900              0.0139160796
    239.2856900              0.0684053245
     67.3974453              0.233185760
     21.5199573              0.471267439
      7.40310130             0.356618546
SP   3   1.00
     20.8479528             -0.108506975            0.0716287243
      4.80830834            -0.146451658            0.3459121030
      1.34406986             1.128688580            0.7224699570
SP   1   1.00
      0.358151393            1.0000000              1.0000000
D    1   1.00
      3.5000000              1.0000000
D    1   1.00
      0.8750000              1.0000000
F    1   1.00
      1.8500000              1.0000000
****
Al     0
S    6   1.00
  13983.1000000              0.00194267
   2098.7500000              0.0148599
    477.7050000              0.0728494
    134.3600000              0.2468300
     42.8709000              0.4872580
     14.5189000              0.3234960
SP   6   1.00
    239.6680000             -0.00292619             0.00460285
     57.4419000             -0.0374080              0.0331990
     18.2859000             -0.1144870              0.1362820
      6.5991400              0.1156350              0.3304760
      2.4904900              0.6125950              0.4491460
      0.9445400              0.3937990              0.2657040
SP   3   1.00
      1.2779000             -0.2276060             -0.0175130
      0.3975900              0.00144583             0.2445330
      0.1600950              1.0927900              0.8049340
SP   1   1.00
      0.0556577              1.0000000              1.0000000
D    1   1.00
      0.6500000              1.0000000
D    1   1.00
      0.1625000              1.0000000
F    1   1.00
      0.2500000              1.0000000
****
Si     0
S    6   1.00
  16115.9000000              0.00195948
   2425.5800000              0.01492880
    553.8670000              0.07284780
    156.3400000              0.24613000
     50.0683000              0.48591400
     17.0178000              0.32500200
SP   6   1.00
    292.7180000             -0.00278094             0.00443826
     69.8731000             -0.03571460             0.03266790
     22.3363000             -0.11498500             0.13472100
      8.1503900              0.09356340             0.32867800
      3.1345800              0.60301700             0.44964000
      1.2254300              0.41895900             0.26137200
SP   3   1.00
      1.7273800             -0.24463000            -0.01779510
      0.5729220              0.00431572             0.25353900
      0.2221920              1.09818000             0.80066900
SP   1   1.00
      0.0778369              1.00000000             1.00000000
D    1   1.00
      0.9000000              1.0000000
D    1   1.00
      0.2250000              1.0000000
F    1   1.00
      0.3200000              1.0000000
****
P     0
S    6   1.00
  19413.3000000              0.0018516
   2909.4200000              0.0142062
    661.3640000              0.0699995
    185.7590000              0.2400790
     59.1943000              0.4847620
     20.0310000              0.3352000
SP   6   1.00
    339.4780000             -0.00278217             0.00456462
     81.0101000             -0.0360499              0.03369360
     25.8780000             -0.1166310              0.13975500
      9.4522100              0.0968328              0.33936200
      3.6656600              0.6144180              0.45092100
      1.4674600              0.4037980              0.23858600
SP   3   1.00
      2.1562300             -0.2529230             -0.01776530
      0.7489970              0.0328517              0.27405800
      0.2831450              1.0812500              0.78542100
SP   1   1.00
      0.0998317              1.0000000              1.00000000
D    1   1.00
      1.1000000              1.0000000
D    1   1.00
      0.2750000              1.0000000
F    1   1.00
      0.4500000              1.0000000
****
S     0
S    6   1.00
  21917.1000000              0.0018690
   3301.4900000              0.0142300
    754.1460000              0.0696960
    212.7110000              0.2384870
     67.9896000              0.4833070
     23.0515000              0.3380740
SP   6   1.00
    423.7350000             -0.0023767              0.0040610
    100.7100000             -0.0316930              0.0306810
     32.1599000             -0.1133170              0.1304520
     11.8079000              0.0560900              0.3272050
      4.6311000              0.5922550              0.4528510
      1.8702500              0.4550060              0.2560420
SP   3   1.00
      2.6158400             -0.2503740             -0.0145110
      0.9221670              0.0669570              0.3102630
      0.3412870              1.0545100              0.7544830
SP   1   1.00
      0.1171670              1.0000000              1.0000000
D    1   1.00
      1.3000000              1.0000000
D    1   1.00
      0.3250000              1.0000000
F    1   1.00
      0.5500000              1.0000000
****
Cl     0
S    6   1.00
  25180.1000000              0.0018330
   3780.3500000              0.0140340
    860.4740000              0.0690970
    242.1450000              0.2374520
     77.3349000              0.4830340
     26.2470000              0.3398560
SP   6   1.00
    491.7650000             -0.0022974              0.0039894
    116.9840000             -0.0307140              0.0303180
     37.4153000             -0.1125280              0.1298800
     13.7834000              0.0450160              0.3279510
      5.4521500              0.5893530              0.4535270
      2.2258800              0.4652060              0.2521540
SP   3   1.00
      3.1864900             -0.2518300             -0.0142990
      1.1442700              0.0615890              0.3235720
      0.4203770              1.0601800              0.7435070
SP   1   1.00
      0.1426570              1.0000000              1.0000000
D    1   1.00
      1.5000000              1.0000000
D    1   1.00
      0.3750000              1.0000000
F    1   1.00
      0.7000000              1.0000000
****
}


set {
reference rhf                          
freeze_core true
e_convergence 10                       
d_convergence 10                      
dft_spherical_points 1202
dft_radial_points 99
}

e = energy('b3lyp')

print_out('Grab this energy {0}'.format(e))
--------------------------------------------------------------------------

  Memory set to  13.039 GiB by Python driver.

Scratch directory: /tmp/

*** tstart() called on n056
*** at Sat Oct 23 15:41:17 2021

   => Loading Basis Set <=

    Name: ANONYMOUS941245C4
    Role: ORBITAL
    Keyword: BASIS
    atoms 1-6  entry C          line    48 inputblock 6-31g_2dfp_ 
    atoms 7-12 entry H          line    15 inputblock 6-31g_2dfp_ 


         ---------------------------------------------------------
                                   SCF
               by Justin Turney, Rob Parrish, Andy Simmonett
                          and Daniel G. A. Smith
                              RKS Reference
                        1 Threads,  13351 MiB Core
         ---------------------------------------------------------

  ==> Geometry <==

    Molecular point group: c2v
    Full point group: C2v

    Geometry (in Bohr), charge = 0, multiplicity = 1:

       Center              X                  Y                   Z               Mass       
    ------------   -----------------  -----------------  -----------------  -----------------
         C            0.000000000000    -2.640963069600     0.001976382058    12.000000000000
         C            0.000000000000    -1.322202765100    -2.288145505942    12.000000000000
         C           -0.000000000000     1.322202765100    -2.288145505942    12.000000000000
         C           -0.000000000000     2.640963069600     0.001976382058    12.000000000000
         C           -0.000000000000     1.318762814900     2.286140103958    12.000000000000
         C            0.000000000000    -1.318762814900     2.286140103958    12.000000000000
         H            0.000000000000    -4.687771449900    -0.000558575242     1.007825032230
         H            0.000000000000    -2.343305379800    -4.059279083142     1.007825032230
         H           -0.000000000000     2.343305379800    -4.059279083142     1.007825032230
         H           -0.000000000000     4.687771449900    -0.000558575242     1.007825032230
         H           -0.000000000000     2.344472354400     4.060183193658     1.007825032230
         H            0.000000000000    -2.344472354400     4.060183193658     1.007825032230

  Running in c2v symmetry.

  Rotational constants: A =      0.18959  B =      0.18959  C =      0.09479 [cm^-1]
  Rotational constants: A =   5683.67775  B =   5683.67384  C =   2841.83790 [MHz]
  Nuclear repulsion =  203.182699512066051

  Charge       = 0
  Multiplicity = 1
  Electrons    = 42
  Nalpha       = 21
  Nbeta        = 21

  ==> Algorithm <==

  SCF Algorithm Type is DF.
  DIIS enabled.
  MOM disabled.
  Fractional occupation disabled.
  Guess Type is SAD.
  Energy threshold   = 1.00e-10
  Density threshold  = 1.00e-10
  Integral threshold = 0.00e+00

  ==> Primary Basis <==

  Basis Set: ANONYMOUS941245C4
    Blend: 6-31G_2DFP_
    Number of shells: 72
    Number of basis function: 204
    Number of Cartesian functions: 234
    Spherical Harmonics?: true
    Max angular momentum: 3

  ==> DFT Potential <==

   => Composite Functional: B3LYP <= 

    B3LYP Hyb-GGA Exchange-Correlation Functional

    P. J. Stephens, F. J. Devlin, C. F. Chabalowski, and M. J. Frisch, J. Phys. Chem. 98, 11623 (1994)

    Deriv               =              1
    GGA                 =           TRUE
    Meta                =          FALSE

    Exchange Hybrid     =           TRUE
    MP2 Hybrid          =          FALSE

   => Exchange Functionals <=

    0.0800   Slater exchange
    0.7200         Becke 88

   => Exact (HF) Exchange <=

    0.2000               HF 

   => Correlation Functionals <=

    0.1900   Vosko, Wilk & Nusair (VWN5_RPA)
    0.8100   Lee, Yang & Parr

   => Molecular Quadrature <=

    Radial Scheme          =       TREUTLER
    Pruning Scheme         =           NONE
    Nuclear Scheme         =       TREUTLER

    BS radius alpha        =              1
    Pruning alpha          =              1
    Radial Points          =             99
    Spherical Points       =           1202
    Total Points           =        1319800
    Total Blocks           =           8926
    Max Points             =            256
    Max Functions          =            198
    Weights Tolerance      =       1.00E-15

   => Loading Basis Set <=

    Name: (ANONYMOUS941245C4 AUX)
    Role: JKFIT
    Keyword: DF_BASIS_SCF
    atoms 1-6  entry C          line   198 file /opt/psi/4/master/share/psi4/basis/def2-universal-jkfit.gbs 
    atoms 7-12 entry H          line    18 file /opt/psi/4/master/share/psi4/basis/def2-universal-jkfit.gbs 

  ==> Integral Setup <==

  DFHelper Memory: AOs need 0.182 GiB; user supplied 3.641 GiB. Using in-core AOs.

  ==> MemDFJK: Density-Fitted J/K Matrices <==

    J tasked:                   Yes
    K tasked:                   Yes
    wK tasked:                   No
    OpenMP threads:               1
    Memory [MiB]:              3728
    Algorithm:                 Core
    Schwarz Cutoff:           1E-12
    Mask sparsity (%):       1.4466
    Fitting Condition:        1E-10

   => Auxiliary Basis Set <=

  Basis Set: (ANONYMOUS941245C4 AUX)
    Blend: DEF2-UNIVERSAL-JKFIT
    Number of shells: 186
    Number of basis function: 558
    Number of Cartesian functions: 654
    Spherical Harmonics?: true
    Max angular momentum: 4

  Cached 100.0% of DFT collocation blocks in 6.137 [GiB].

  Minimum eigenvalue in the overlap matrix is 1.0888854380E-04.
  Reciprocal condition number of the overlap matrix is 1.7016349103E-05.
    Using symmetric orthogonalization.

  ==> Pre-Iterations <==

  SCF Guess: Superposition of Atomic Densities via on-the-fly atomic UHF (no occupation information).

   -------------------------
    Irrep   Nso     Nmo    
   -------------------------
     A1        69      69 
     A2        33      33 
     B1        33      33 
     B2        69      69 
   -------------------------
    Total     204     204
   -------------------------

  ==> Iterations <==

                           Total Energy        Delta E     RMS |[F,P]|

   @DF-RKS iter SAD:  -231.71448770387838   -2.31714e+02   0.00000e+00 
   @DF-RKS iter   1:  -231.93075859463482   -2.16271e-01   6.97508e-03 DIIS
   @DF-RKS iter   2:  -231.83215173222848    9.86069e-02   8.20079e-03 DIIS
   @DF-RKS iter   3:  -232.26113183437505   -4.28980e-01   6.55093e-04 DIIS
   @DF-RKS iter   4:  -232.26339583047664   -2.26400e-03   9.03512e-05 DIIS
   @DF-RKS iter   5:  -232.26343292643102   -3.70960e-05   3.88591e-05 DIIS
   @DF-RKS iter   6:  -232.26344203910486   -9.11267e-06   1.42735e-05 DIIS
   @DF-RKS iter   7:  -232.26344345738022   -1.41828e-06   2.63765e-07 DIIS
   @DF-RKS iter   8:  -232.26344345785702   -4.76803e-10   1.81265e-08 DIIS
   @DF-RKS iter   9:  -232.26344345785810   -1.08002e-12   1.31078e-08 DIIS
   @DF-RKS iter  10:  -232.26344345785890   -7.95808e-13   3.84871e-09 DIIS
   @DF-RKS iter  11:  -232.26344345785901   -1.13687e-13   1.51672e-10 DIIS
   @DF-RKS iter  12:  -232.26344345785947   -4.54747e-13   3.73393e-11 DIIS
  Energy and wave function converged.


  ==> Post-Iterations <==

    Orbital Energies [Eh]
    ---------------------

    Doubly Occupied:                                                      

       1A1   -10.180859     1B2   -10.180726     2A1   -10.180685  
       2B2   -10.180246     3A1   -10.180212     3B2   -10.180012  
       4A1    -0.845653     4B2    -0.739082     5A1    -0.739081  
       6A1    -0.596638     5B2    -0.596638     7A1    -0.517196  
       6B2    -0.457766     8A1    -0.437819     9A1    -0.415581  
       7B2    -0.415581     1B1    -0.360650     8B2    -0.338736  
      10A1    -0.338736     1A2    -0.247511     2B1    -0.247510  

    Virtual:                                                              

       2A2     0.000927     3B1     0.000928    11A1     0.086157  
       9B2     0.130932    12A1     0.130934     3A2     0.158092  
      10B2     0.162970    13A1     0.162970    11B2     0.182661  
      12B2     0.283395    14A1     0.283396    13B2     0.302012  
      15A1     0.302017    16A1     0.370323    17A1     0.405689  
       4B1     0.422493    18A1     0.469190    14B2     0.469230  
      19A1     0.470882    15B2     0.473376    20A1     0.473391  
       4A2     0.496702     5B1     0.496703    16B2     0.502893  
       6B1     0.530281    17B2     0.546910    18B2     0.610087  
      21A1     0.610088     7B1     0.611208     5A2     0.611208  
      22A1     0.644421    19B2     0.644424     8B1     0.650432  
       6A2     0.667288     7A2     0.699976     9B1     0.699977  
      20B2     0.718163    23A1     0.718165    24A1     0.724161  
      21B2     0.726288     8A2     0.788313    10B1     0.788314  
      22B2     0.826234    23B2     0.875256    25A1     0.875265  
      24B2     0.887929    11B1     0.930922    26A1     0.966067  
      25B2     0.991544    27A1     0.991544     9A2     1.036545  
      12B1     1.036547    10A2     1.085879    13B1     1.085881  
      11A2     1.095898    28A1     1.132095    26B2     1.132103  
      29A1     1.147175    30A1     1.213382    27B2     1.213386  
      12A2     1.302147    14B1     1.302149    31A1     1.303897  
      28B2     1.303899    15B1     1.372545    13A2     1.372547  
      32A1     1.383907    33A1     1.397127    29B2     1.397134  
      34A1     1.421877    30B2     1.425618    35A1     1.425626  
      31B2     1.471354    32B2     1.485198    33B2     1.524612  
      36A1     1.524616    14A2     1.582555    15A2     1.586343  
      34B2     1.625182    37A1     1.625182    38A1     1.715733  
      35B2     1.787645    36B2     1.952823    39A1     1.960716  
      37B2     1.960932    40A1     2.349210    38B2     2.349217  
      39B2     2.380905    41A1     2.380911    16B1     2.460889  
      40B2     2.487917    42A1     2.544104    41B2     2.544121  
      17B1     2.636675    43A1     2.728831    18B1     2.813294  
      16A2     2.813342    44A1     2.825027    19B1     2.831351  
      17A2     2.831353    20B1     2.837596    18A2     2.897621  
      21B1     2.897624    42B2     2.936925    45A1     2.936927  
      46A1     2.988924    43B2     2.989670    47A1     2.992734  
      48A1     3.097876    19A2     3.131081    22B1     3.131087  
      44B2     3.137846    49A1     3.137873    23B1     3.156621  
      20A2     3.156622    24B1     3.181914    50A1     3.203687  
      45B2     3.278389    51A1     3.278404    21A2     3.324330  
      25B1     3.324342    46B2     3.328841    52A1     3.328871  
      47B2     3.335621    22A2     3.442794    23A2     3.515551  
      26B1     3.528708    48B2     3.541196    53A1     3.541201  
      49B2     3.598491    50B2     3.611388    54A1     3.611427  
      51B2     3.645631    27B1     3.662304    24A2     3.662306  
      25A2     3.665837    55A1     3.674274    52B2     3.674310  
      53B2     3.689001    28B1     3.717662    26A2     3.717672  
      56A1     3.831343    54B2     3.918926    57A1     3.918929  
      55B2     3.975657    58A1     3.975661    27A2     4.010097  
      29B1     4.037538    30B1     4.049247    28A2     4.049263  
      29A2     4.064503    31B1     4.064654    59A1     4.114129  
      56B2     4.114146    32B1     4.236710    30A2     4.236713  
      60A1     4.317677    57B2     4.326974    61A1     4.327008  
      62A1     4.342213    58B2     4.369472    33B1     4.438435  
      31A2     4.438438    59B2     4.470740    60B2     4.577311  
      63A1     4.624458    61B2     4.624487    32A2     4.737716  
      64A1     4.855400    62B2     4.855457    33A2     4.881515  
      63B2     4.893537    65A1     4.933988    66A1     5.080235  
      64B2     5.080250    65B2     5.152911    67A1     5.152945  
      68A1     5.443124    66B2     5.443136    67B2     5.598106  
      69A1     5.598107    68B2     5.975474    69B2     6.031979  

    Final Occupation by Irrep:
             A1    A2    B1    B2 
    DOCC [    10,    1,    2,    8 ]

  @DF-RKS Final Energy:  -232.26344345785947

   => Energetics <=

    Nuclear Repulsion Energy =            203.1826995120660513
    One-Electron Energy =                -713.8714001104483486
    Two-Electron Energy =                 306.6051350883204236
    DFT Exchange-Correlation Energy =     -28.1798779477975785
    Empirical Dispersion Energy =           0.0000000000000000
    VV10 Nonlocal Energy =                  0.0000000000000000
    Total Energy =                       -232.2634434578594664

Computation Completed


Properties will be evaluated at   0.000000,   0.000000,   0.000000 [a0]

Properties computed using the SCF density matrix

  Nuclear Dipole Moment: [e a0]
     X:     0.0000      Y:     0.0000      Z:     0.0003

  Electronic Dipole Moment: [e a0]
     X:     0.0000      Y:     0.0000      Z:    -0.0020

  Dipole Moment: [e a0]
     X:     0.0000      Y:     0.0000      Z:    -0.0016     Total:     0.0016

  Dipole Moment: [D]
     X:     0.0000      Y:     0.0000      Z:    -0.0041     Total:     0.0041


*** tstop() called on n056 at Sat Oct 23 15:43:06 2021
Module time:
	user time   =     106.83 seconds =       1.78 minutes
	system time =       1.65 seconds =       0.03 minutes
	total time  =        109 seconds =       1.82 minutes
Total time:
	user time   =     106.83 seconds =       1.78 minutes
	system time =       1.65 seconds =       0.03 minutes
	total time  =        109 seconds =       1.82 minutes
Grab this energy -232.26344345785947
    Psi4 stopped on: Saturday, 23 October 2021 03:43PM
    Psi4 wall time for execution: 0:01:48.52

*** Psi4 exiting successfully. Buy a developer a beer!
