
    -----------------------------------------------------------------------
          Psi4: An Open-Source Ab Initio Electronic Structure Package
                               Psi4 1.4a2.dev629 

                         Git: Rev {master} 2938fc2 dirty


    D. G. A. Smith, L. A. Burns, A. C. Simmonett, R. M. Parrish,
    M. C. Schieber, R. Galvelis, P. Kraus, H. Kruse, R. Di Remigio,
    A. Alenaizan, A. M. James, S. Lehtola, J. P. Misiewicz, M. Scheurer,
    R. A. Shaw, J. B. Schriber, Y. Xie, Z. L. Glick, D. A. Sirianni,
    J. S. O'Brien, J. M. Waldrop, A. Kumar, E. G. Hohenstein,
    B. P. Pritchard, B. R. Brooks, H. F. Schaefer III, A. Yu. Sokolov,
    K. Patkowski, A. E. DePrince III, U. Bozkaya, R. A. King,
    F. A. Evangelista, J. M. Turney, T. D. Crawford, C. D. Sherrill,
    J. Chem. Phys. 152(18) 184108 (2020). https://doi.org/10.1063/5.0006002

                            Additional Code Authors
    E. T. Seidl, C. L. Janssen, E. F. Valeev, M. L. Leininger,
    J. F. Gonthier, R. M. Richard, H. R. McAlexander, M. Saitow, X. Wang,
    P. Verma, and M. H. Lechner

             Previous Authors, Complete List of Code Contributors,
                       and Citations for Specific Modules
    https://github.com/psi4/psi4/blob/master/codemeta.json
    https://github.com/psi4/psi4/graphs/contributors
    http://psicode.org/psi4manual/master/introduction.html#citing-psifour

    -----------------------------------------------------------------------


    Psi4 started on: Saturday, 23 October 2021 02:25PM

    Process ID: 17144
    Host:       n067
    PSIDATADIR: /opt/psi/4/master/share/psi4
    Memory:     500.0 MiB
    Threads:    1
    
  ==> Input File <==

--------------------------------------------------------------------------
import os
memory 14 GB 
 
molecule {
 C   -0.0000000000    2.6409635844    0.0000000002
 C   -2.2871405196    1.3204801153    0.0033352130
 C   -2.2871427564   -1.3204830440   -0.0002405479
 C   -0.0000000000   -2.6409666637    0.0000000002
 C    2.2871427564   -1.3204830440    0.0002405477
 C    2.2871405196    1.3204801153   -0.0033352132
 H   -0.0000000000    4.6877735344    0.0000000006
 H   -4.0597295398    2.3438849900    0.0046129234
 H   -4.0597268461   -2.3438789821   -0.0063563745
 H   -0.0000000000   -4.6877766137    0.0000000006
 H    4.0597268461   -2.3438789821    0.0063563738
 H    4.0597295398    2.3438849900   -0.0046129239
units bohr
}

basis {

assign 6-31g_2dfp_

[ 6-31g_2dfp_ ]

spherical

!----------------------------------------------------------------------
! Basis Set Exchange
! Version v0.8.13
! https://www.basissetexchange.org
!----------------------------------------------------------------------
!   Basis set: 6-31G(2df,p)
! Description: 6-31G(2df,p)
!        Role: orbital
!     Version: 0  (Data from the original Basis Set Exchange)
!----------------------------------------------------------------------


****
H     0
S    3   1.00
     18.7311370              0.03349460
      2.8253937              0.23472695
      0.6401217              0.81375733
S    1   1.00
      0.1612778              1.00000000
P    1   1.00
      1.5000000              1.0000000
P    1   1.00
      0.3750000              1.0000000
****
B     0
S    6   1.00
   2068.8823000              0.0018663
    310.6495700              0.0142515
     70.6830330              0.0695516
     19.8610800              0.2325729
      6.2993048              0.4670787
      2.1270270              0.3634314
SP   3   1.00
      4.7279710             -0.1303938              0.0745976
      1.1903377             -0.1307889              0.3078467
      0.3594117              1.1309444              0.7434568
SP   1   1.00
      0.1267512              1.0000000              1.0000000
D    1   1.00
      0.8020000              1.0000000
D    1   1.00
      0.2005000              1.0000000
F    1   1.00
      0.5000000              1.0000000
****
C     0
S    6   1.00
   3047.5249000              0.0018347
    457.3695100              0.0140373
    103.9486900              0.0688426
     29.2101550              0.2321844
      9.2866630              0.4679413
      3.1639270              0.3623120
SP   3   1.00
      7.8682724             -0.1193324              0.0689991
      1.8812885             -0.1608542              0.3164240
      0.5442493              1.1434564              0.7443083
SP   1   1.00
      0.1687144              1.0000000              1.0000000
D    1   1.00
      1.2520000              1.0000000
D    1   1.00
      0.3130000              1.0000000
F    1   1.00
      0.8000000              1.0000000
****
N     0
S    6   1.00
   4173.5110000              0.0018348
    627.4579000              0.0139950
    142.9021000              0.0685870
     40.2343300              0.2322410
     12.8202100              0.4690700
      4.3904370              0.3604550
SP   3   1.00
     11.6263580             -0.1149610              0.0675800
      2.7162800             -0.1691180              0.3239070
      0.7722180              1.1458520              0.7408950
SP   1   1.00
      0.2120313              1.0000000              1.0000000
D    1   1.00
      1.8260000              1.0000000
D    1   1.00
      0.4565000              1.0000000
F    1   1.00
      1.0000000              1.0000000
****
O     0
S    6   1.00
   5484.6717000              0.0018311
    825.2349500              0.0139501
    188.0469600              0.0684451
     52.9645000              0.2327143
     16.8975700              0.4701930
      5.7996353              0.3585209
SP   3   1.00
     15.5396160             -0.1107775              0.0708743
      3.5999336             -0.1480263              0.3397528
      1.0137618              1.1307670              0.7271586
SP   1   1.00
      0.2700058              1.0000000              1.0000000
D    1   1.00
      2.5840000              1.0000000
D    1   1.00
      0.6460000              1.0000000
F    1   1.00
      1.4000000              1.0000000
****
F     0
S    6   1.00
   7001.7130900              0.0018196169
   1051.3660900              0.0139160796
    239.2856900              0.0684053245
     67.3974453              0.233185760
     21.5199573              0.471267439
      7.40310130             0.356618546
SP   3   1.00
     20.8479528             -0.108506975            0.0716287243
      4.80830834            -0.146451658            0.3459121030
      1.34406986             1.128688580            0.7224699570
SP   1   1.00
      0.358151393            1.0000000              1.0000000
D    1   1.00
      3.5000000              1.0000000
D    1   1.00
      0.8750000              1.0000000
F    1   1.00
      1.8500000              1.0000000
****
Al     0
S    6   1.00
  13983.1000000              0.00194267
   2098.7500000              0.0148599
    477.7050000              0.0728494
    134.3600000              0.2468300
     42.8709000              0.4872580
     14.5189000              0.3234960
SP   6   1.00
    239.6680000             -0.00292619             0.00460285
     57.4419000             -0.0374080              0.0331990
     18.2859000             -0.1144870              0.1362820
      6.5991400              0.1156350              0.3304760
      2.4904900              0.6125950              0.4491460
      0.9445400              0.3937990              0.2657040
SP   3   1.00
      1.2779000             -0.2276060             -0.0175130
      0.3975900              0.00144583             0.2445330
      0.1600950              1.0927900              0.8049340
SP   1   1.00
      0.0556577              1.0000000              1.0000000
D    1   1.00
      0.6500000              1.0000000
D    1   1.00
      0.1625000              1.0000000
F    1   1.00
      0.2500000              1.0000000
****
Si     0
S    6   1.00
  16115.9000000              0.00195948
   2425.5800000              0.01492880
    553.8670000              0.07284780
    156.3400000              0.24613000
     50.0683000              0.48591400
     17.0178000              0.32500200
SP   6   1.00
    292.7180000             -0.00278094             0.00443826
     69.8731000             -0.03571460             0.03266790
     22.3363000             -0.11498500             0.13472100
      8.1503900              0.09356340             0.32867800
      3.1345800              0.60301700             0.44964000
      1.2254300              0.41895900             0.26137200
SP   3   1.00
      1.7273800             -0.24463000            -0.01779510
      0.5729220              0.00431572             0.25353900
      0.2221920              1.09818000             0.80066900
SP   1   1.00
      0.0778369              1.00000000             1.00000000
D    1   1.00
      0.9000000              1.0000000
D    1   1.00
      0.2250000              1.0000000
F    1   1.00
      0.3200000              1.0000000
****
P     0
S    6   1.00
  19413.3000000              0.0018516
   2909.4200000              0.0142062
    661.3640000              0.0699995
    185.7590000              0.2400790
     59.1943000              0.4847620
     20.0310000              0.3352000
SP   6   1.00
    339.4780000             -0.00278217             0.00456462
     81.0101000             -0.0360499              0.03369360
     25.8780000             -0.1166310              0.13975500
      9.4522100              0.0968328              0.33936200
      3.6656600              0.6144180              0.45092100
      1.4674600              0.4037980              0.23858600
SP   3   1.00
      2.1562300             -0.2529230             -0.01776530
      0.7489970              0.0328517              0.27405800
      0.2831450              1.0812500              0.78542100
SP   1   1.00
      0.0998317              1.0000000              1.00000000
D    1   1.00
      1.1000000              1.0000000
D    1   1.00
      0.2750000              1.0000000
F    1   1.00
      0.4500000              1.0000000
****
S     0
S    6   1.00
  21917.1000000              0.0018690
   3301.4900000              0.0142300
    754.1460000              0.0696960
    212.7110000              0.2384870
     67.9896000              0.4833070
     23.0515000              0.3380740
SP   6   1.00
    423.7350000             -0.0023767              0.0040610
    100.7100000             -0.0316930              0.0306810
     32.1599000             -0.1133170              0.1304520
     11.8079000              0.0560900              0.3272050
      4.6311000              0.5922550              0.4528510
      1.8702500              0.4550060              0.2560420
SP   3   1.00
      2.6158400             -0.2503740             -0.0145110
      0.9221670              0.0669570              0.3102630
      0.3412870              1.0545100              0.7544830
SP   1   1.00
      0.1171670              1.0000000              1.0000000
D    1   1.00
      1.3000000              1.0000000
D    1   1.00
      0.3250000              1.0000000
F    1   1.00
      0.5500000              1.0000000
****
Cl     0
S    6   1.00
  25180.1000000              0.0018330
   3780.3500000              0.0140340
    860.4740000              0.0690970
    242.1450000              0.2374520
     77.3349000              0.4830340
     26.2470000              0.3398560
SP   6   1.00
    491.7650000             -0.0022974              0.0039894
    116.9840000             -0.0307140              0.0303180
     37.4153000             -0.1125280              0.1298800
     13.7834000              0.0450160              0.3279510
      5.4521500              0.5893530              0.4535270
      2.2258800              0.4652060              0.2521540
SP   3   1.00
      3.1864900             -0.2518300             -0.0142990
      1.1442700              0.0615890              0.3235720
      0.4203770              1.0601800              0.7435070
SP   1   1.00
      0.1426570              1.0000000              1.0000000
D    1   1.00
      1.5000000              1.0000000
D    1   1.00
      0.3750000              1.0000000
F    1   1.00
      0.7000000              1.0000000
****
}


set {
reference rhf                          
freeze_core true
e_convergence 10                       
d_convergence 10                      
dft_spherical_points 1202
dft_radial_points 99
}

e = energy('b3lyp')

print_out('Grab this energy {0}'.format(e))
--------------------------------------------------------------------------

  Memory set to  13.039 GiB by Python driver.

Scratch directory: /tmp/

*** tstart() called on n067
*** at Sat Oct 23 14:25:17 2021

   => Loading Basis Set <=

    Name: ANONYMOUSB67F158A
    Role: ORBITAL
    Keyword: BASIS
    atoms 1-6  entry C          line    48 inputblock 6-31g_2dfp_ 
    atoms 7-12 entry H          line    15 inputblock 6-31g_2dfp_ 


         ---------------------------------------------------------
                                   SCF
               by Justin Turney, Rob Parrish, Andy Simmonett
                          and Daniel G. A. Smith
                              RKS Reference
                        1 Threads,  13351 MiB Core
         ---------------------------------------------------------

  ==> Geometry <==

    Molecular point group: c2
    Full point group: C2

    Geometry (in Bohr), charge = 0, multiplicity = 1:

       Center              X                  Y                   Z               Mass       
    ------------   -----------------  -----------------  -----------------  -----------------
         C           -0.000000000000     0.000000000000     2.640964843052    12.000000000000
         C           -0.003335213100     2.287140519600     1.320481373952    12.000000000000
         C            0.000240547800     2.287142756400    -1.320481785348    12.000000000000
         C           -0.000000000000     0.000000000000    -2.640965405048    12.000000000000
         C           -0.000240547800    -2.287142756400    -1.320481785348    12.000000000000
         C            0.003335213100    -2.287140519600     1.320481373952    12.000000000000
         H           -0.000000000000     0.000000000000     4.687774793052     1.007825032230
         H           -0.004612923650     4.059729539800     2.343886248652     1.007825032230
         H            0.006356374150     4.059726846100    -2.343877723448     1.007825032230
         H           -0.000000000000     0.000000000000    -4.687775355048     1.007825032230
         H           -0.006356374150    -4.059726846100    -2.343877723448     1.007825032230
         H            0.004612923650    -4.059729539800     2.343886248652     1.007825032230

  Running in c2 symmetry.

  Rotational constants: A =      0.18959  B =      0.18959  C =      0.09479 [cm^-1]
  Rotational constants: A =   5683.67569  B =   5683.67384  C =   2841.84022 [MHz]
  Nuclear repulsion =  203.182596503483921

  Charge       = 0
  Multiplicity = 1
  Electrons    = 42
  Nalpha       = 21
  Nbeta        = 21

  ==> Algorithm <==

  SCF Algorithm Type is DF.
  DIIS enabled.
  MOM disabled.
  Fractional occupation disabled.
  Guess Type is SAD.
  Energy threshold   = 1.00e-10
  Density threshold  = 1.00e-10
  Integral threshold = 0.00e+00

  ==> Primary Basis <==

  Basis Set: ANONYMOUSB67F158A
    Blend: 6-31G_2DFP_
    Number of shells: 72
    Number of basis function: 204
    Number of Cartesian functions: 234
    Spherical Harmonics?: true
    Max angular momentum: 3

  ==> DFT Potential <==

   => Composite Functional: B3LYP <= 

    B3LYP Hyb-GGA Exchange-Correlation Functional

    P. J. Stephens, F. J. Devlin, C. F. Chabalowski, and M. J. Frisch, J. Phys. Chem. 98, 11623 (1994)

    Deriv               =              1
    GGA                 =           TRUE
    Meta                =          FALSE

    Exchange Hybrid     =           TRUE
    MP2 Hybrid          =          FALSE

   => Exchange Functionals <=

    0.0800   Slater exchange
    0.7200         Becke 88

   => Exact (HF) Exchange <=

    0.2000               HF 

   => Correlation Functionals <=

    0.1900   Vosko, Wilk & Nusair (VWN5_RPA)
    0.8100   Lee, Yang & Parr

   => Molecular Quadrature <=

    Radial Scheme          =       TREUTLER
    Pruning Scheme         =           NONE
    Nuclear Scheme         =       TREUTLER

    BS radius alpha        =              1
    Pruning alpha          =              1
    Radial Points          =             99
    Spherical Points       =           1202
    Total Points           =        1319782
    Total Blocks           =           8936
    Max Points             =            256
    Max Functions          =            198
    Weights Tolerance      =       1.00E-15

   => Loading Basis Set <=

    Name: (ANONYMOUSB67F158A AUX)
    Role: JKFIT
    Keyword: DF_BASIS_SCF
    atoms 1-6  entry C          line   198 file /opt/psi/4/master/share/psi4/basis/def2-universal-jkfit.gbs 
    atoms 7-12 entry H          line    18 file /opt/psi/4/master/share/psi4/basis/def2-universal-jkfit.gbs 

  ==> Integral Setup <==

  DFHelper Memory: AOs need 0.181 GiB; user supplied 3.639 GiB. Using in-core AOs.

  ==> MemDFJK: Density-Fitted J/K Matrices <==

    J tasked:                   Yes
    K tasked:                   Yes
    wK tasked:                   No
    OpenMP threads:               1
    Memory [MiB]:              3726
    Algorithm:                 Core
    Schwarz Cutoff:           1E-12
    Mask sparsity (%):       1.4658
    Fitting Condition:        1E-10

   => Auxiliary Basis Set <=

  Basis Set: (ANONYMOUSB67F158A AUX)
    Blend: DEF2-UNIVERSAL-JKFIT
    Number of shells: 186
    Number of basis function: 558
    Number of Cartesian functions: 654
    Spherical Harmonics?: true
    Max angular momentum: 4

  Cached 100.0% of DFT collocation blocks in 6.140 [GiB].

  Minimum eigenvalue in the overlap matrix is 5.7592654157E-05.
  Reciprocal condition number of the overlap matrix is 1.0311647453E-05.
    Using symmetric orthogonalization.

  ==> Pre-Iterations <==

  SCF Guess: Superposition of Atomic Densities via on-the-fly atomic UHF (no occupation information).

   -------------------------
    Irrep   Nso     Nmo    
   -------------------------
     A        104     104 
     B        100     100 
   -------------------------
    Total     204     204
   -------------------------

  ==> Iterations <==

                           Total Energy        Delta E     RMS |[F,P]|

   @DF-RKS iter SAD:  -231.71448479138013   -2.31714e+02   0.00000e+00 
   @DF-RKS iter   1:  -231.93077805317424   -2.16293e-01   5.22923e-03 DIIS
   @DF-RKS iter   2:  -231.83219159621100    9.85865e-02   6.14804e-03 DIIS
   @DF-RKS iter   3:  -232.26114761701183   -4.28956e-01   4.90851e-04 DIIS
   @DF-RKS iter   4:  -232.26341238032586   -2.26476e-03   6.51988e-05 DIIS
   @DF-RKS iter   5:  -232.26345546009028   -4.30798e-05   5.08132e-06 DIIS
   @DF-RKS iter   6:  -232.26345577278840   -3.12698e-07   2.74884e-07 DIIS
   @DF-RKS iter   7:  -232.26345577370404   -9.15634e-10   2.01108e-08 DIIS
   @DF-RKS iter   8:  -232.26345577370537   -1.33582e-12   1.78837e-08 DIIS
   @DF-RKS iter   9:  -232.26345577370844   -3.06954e-12   6.46653e-09 DIIS
   @DF-RKS iter  10:  -232.26345577370932   -8.81073e-13   5.32411e-10 DIIS
   @DF-RKS iter  11:  -232.26345577370910    2.27374e-13   2.37806e-10 DIIS
   @DF-RKS iter  12:  -232.26345577370978   -6.82121e-13   4.01349e-11 DIIS
  Energy and wave function converged.


  ==> Post-Iterations <==

    Orbital Energies [Eh]
    ---------------------

    Doubly Occupied:                                                      

       1A    -10.180819     2A    -10.180719     1B    -10.180719  
       3A    -10.180219     2B    -10.180219     4A    -10.180046  
       5A     -0.845651     3B     -0.739081     6A     -0.739081  
       4B     -0.596636     7A     -0.596636     8A     -0.517196  
       9A     -0.457764     5B     -0.437815     6B     -0.415582  
      10A     -0.415582     7B     -0.360649    11A     -0.338739  
       8B     -0.338738     9B     -0.247511    12A     -0.247511  

    Virtual:                                                              

      13A      0.000927    10B      0.000928    14A      0.086161  
      11B      0.130932    15A      0.130932    12B      0.158088  
      16A      0.162971    13B      0.162972    17A      0.182660  
      14B      0.283400    18A      0.283400    19A      0.302013  
      15B      0.302014    20A      0.370322    16B      0.405692  
      17B      0.422494    21A      0.469237    18B      0.469237  
      22A      0.470842    23A      0.473381    19B      0.473382  
      24A      0.496704    20B      0.496705    25A      0.502883  
      21B      0.530281    22B      0.546905    26A      0.610086  
      23B      0.610087    27A      0.611209    24B      0.611212  
      25B      0.644418    28A      0.644418    29A      0.650432  
      26B      0.667285    30A      0.699975    27B      0.699976  
      31A      0.718168    28B      0.718169    32A      0.724157  
      33A      0.726288    29B      0.788312    34A      0.788313  
      30B      0.826226    31B      0.875264    35A      0.875265  
      36A      0.887926    32B      0.930922    37A      0.966075  
      33B      0.991544    38A      0.991545    34B      1.036545  
      39A      1.036545    35B      1.085878    40A      1.085878  
      36B      1.095898    41A      1.132104    37B      1.132105  
      38B      1.147175    39B      1.213386    42A      1.213387  
      40B      1.302123    43A      1.302132    44A      1.303914  
      41B      1.303917    45A      1.372528    42B      1.372542  
      46A      1.383919    47A      1.397141    43B      1.397143  
      44B      1.421871    48A      1.425617    45B      1.425619  
      46B      1.471349    49A      1.485203    47B      1.524611  
      50A      1.524617    48B      1.582560    51A      1.586345  
      49B      1.625174    52A      1.625177    53A      1.715734  
      54A      1.787634    50B      1.953036    55A      1.960710  
      51B      1.960710    56A      2.349387    52B      2.349390  
      57A      2.380724    53B      2.380731    58A      2.460906  
      59A      2.487912    54B      2.544098    60A      2.544102  
      55B      2.636682    56B      2.728825    61A      2.813347  
      57B      2.813351    62A      2.825011    58B      2.831356  
      63A      2.831368    59B      2.837547    64A      2.897622  
      60B      2.897624    65A      2.936926    61B      2.936927  
      62B      2.989650    66A      2.989657    63B      2.992030  
      67A      3.097872    68A      3.131120    64B      3.131130  
      65B      3.137850    69A      3.137852    70A      3.156579  
      66B      3.156582    67B      3.181914    71A      3.203709  
      72A      3.278391    68B      3.278392    73A      3.324291  
      69B      3.324295    74A      3.328893    70B      3.328894  
      75A      3.335632    71B      3.442782    76A      3.515551  
      77A      3.528687    72B      3.541196    78A      3.541224  
      79A      3.598492    73B      3.611417    80A      3.611427  
      74B      3.645603    75B      3.662297    81A      3.662322  
      76B      3.665844    77B      3.674282    82A      3.674295  
      83A      3.688919    78B      3.717673    84A      3.717687  
      79B      3.831333    80B      3.918919    85A      3.918923  
      81B      3.975649    86A      3.975666    82B      4.010133  
      83B      4.037685    87A      4.049254    84B      4.049265  
      85B      4.064482    88A      4.064487    89A      4.114192  
      86B      4.114194    87B      4.236702    90A      4.236711  
      91A      4.317698    92A      4.326992    88B      4.326994  
      89B      4.342177    90B      4.369465    93A      4.438399  
      91B      4.438428    94A      4.470719    92B      4.577300  
      93B      4.624456    95A      4.624461    96A      4.737698  
      94B      4.855432    97A      4.855465    95B      4.881528  
      98A      4.893527    99A      4.933937    96B      5.080272  
     100A      5.080276   101A      5.152842    97B      5.152848  
     102A      5.443105    98B      5.443107   103A      5.598096  
      99B      5.598098   104A      5.975443   100B      6.031992  

    Final Occupation by Irrep:
              A     B 
    DOCC [    12,    9 ]

  @DF-RKS Final Energy:  -232.26345577370978

   => Energetics <=

    Nuclear Repulsion Energy =            203.1825965034839214
    One-Electron Energy =                -713.8712338354425810
    Two-Electron Energy =                 306.6050538441498929
    DFT Exchange-Correlation Energy =     -28.1798722859010411
    Empirical Dispersion Energy =           0.0000000000000000
    VV10 Nonlocal Energy =                  0.0000000000000000
    Total Energy =                       -232.2634557737098078

Computation Completed


Properties will be evaluated at   0.000000,   0.000000,   0.000000 [a0]

Properties computed using the SCF density matrix

  Nuclear Dipole Moment: [e a0]
     X:     0.0000      Y:    -0.0000      Z:     0.0000

  Electronic Dipole Moment: [e a0]
     X:     0.0000      Y:     0.0000      Z:    -0.0000

  Dipole Moment: [e a0]
     X:     0.0000      Y:    -0.0000      Z:     0.0000     Total:     0.0000

  Dipole Moment: [D]
     X:     0.0000      Y:    -0.0000      Z:     0.0000     Total:     0.0000


*** tstop() called on n067 at Sat Oct 23 14:27:05 2021
Module time:
	user time   =     106.72 seconds =       1.78 minutes
	system time =       1.58 seconds =       0.03 minutes
	total time  =        108 seconds =       1.80 minutes
Total time:
	user time   =     106.72 seconds =       1.78 minutes
	system time =       1.58 seconds =       0.03 minutes
	total time  =        108 seconds =       1.80 minutes
Grab this energy -232.26345577370978
    Psi4 stopped on: Saturday, 23 October 2021 02:27PM
    Psi4 wall time for execution: 0:01:48.35

*** Psi4 exiting successfully. Buy a developer a beer!
