
    -----------------------------------------------------------------------
          Psi4: An Open-Source Ab Initio Electronic Structure Package
                               Psi4 1.4a2.dev629 

                         Git: Rev {master} 2938fc2 dirty


    D. G. A. Smith, L. A. Burns, A. C. Simmonett, R. M. Parrish,
    M. C. Schieber, R. Galvelis, P. Kraus, H. Kruse, R. Di Remigio,
    A. Alenaizan, A. M. James, S. Lehtola, J. P. Misiewicz, M. Scheurer,
    R. A. Shaw, J. B. Schriber, Y. Xie, Z. L. Glick, D. A. Sirianni,
    J. S. O'Brien, J. M. Waldrop, A. Kumar, E. G. Hohenstein,
    B. P. Pritchard, B. R. Brooks, H. F. Schaefer III, A. Yu. Sokolov,
    K. Patkowski, A. E. DePrince III, U. Bozkaya, R. A. King,
    F. A. Evangelista, J. M. Turney, T. D. Crawford, C. D. Sherrill,
    J. Chem. Phys. 152(18) 184108 (2020). https://doi.org/10.1063/5.0006002

                            Additional Code Authors
    E. T. Seidl, C. L. Janssen, E. F. Valeev, M. L. Leininger,
    J. F. Gonthier, R. M. Richard, H. R. McAlexander, M. Saitow, X. Wang,
    P. Verma, and M. H. Lechner

             Previous Authors, Complete List of Code Contributors,
                       and Citations for Specific Modules
    https://github.com/psi4/psi4/blob/master/codemeta.json
    https://github.com/psi4/psi4/graphs/contributors
    http://psicode.org/psi4manual/master/introduction.html#citing-psifour

    -----------------------------------------------------------------------


    Psi4 started on: Saturday, 23 October 2021 05:32PM

    Process ID: 5595
    Host:       n035
    PSIDATADIR: /opt/psi/4/master/share/psi4
    Memory:     500.0 MiB
    Threads:    1
    
  ==> Input File <==

--------------------------------------------------------------------------
import os
memory 14 GB 
 
molecule {
 C   -0.0000000000    2.6393343618    0.0007297854
 C   -2.2885526643    1.3212964927   -0.0007303930
 C   -2.2857306049   -1.3196671759    0.0007297853
 C    0.0000000000   -2.6425929953   -0.0007303930
 C    2.2857306049   -1.3196671759    0.0007297853
 C    2.2885526643    1.3212964927   -0.0007303930
 H   -0.0000000000    4.6830098213    0.0032089789
 H   -4.0638540334    2.3462672171   -0.0032083713
 H   -4.0556054766   -2.3415049107    0.0032089789
 H    0.0000000000   -4.6925344343   -0.0032083713
 H    4.0556054766   -2.3415049107    0.0032089789
 H    4.0638540334    2.3462672171   -0.0032083713
units bohr
}

basis {

assign 6-31g_2dfp_

[ 6-31g_2dfp_ ]

spherical

!----------------------------------------------------------------------
! Basis Set Exchange
! Version v0.8.13
! https://www.basissetexchange.org
!----------------------------------------------------------------------
!   Basis set: 6-31G(2df,p)
! Description: 6-31G(2df,p)
!        Role: orbital
!     Version: 0  (Data from the original Basis Set Exchange)
!----------------------------------------------------------------------


****
H     0
S    3   1.00
     18.7311370              0.03349460
      2.8253937              0.23472695
      0.6401217              0.81375733
S    1   1.00
      0.1612778              1.00000000
P    1   1.00
      1.5000000              1.0000000
P    1   1.00
      0.3750000              1.0000000
****
B     0
S    6   1.00
   2068.8823000              0.0018663
    310.6495700              0.0142515
     70.6830330              0.0695516
     19.8610800              0.2325729
      6.2993048              0.4670787
      2.1270270              0.3634314
SP   3   1.00
      4.7279710             -0.1303938              0.0745976
      1.1903377             -0.1307889              0.3078467
      0.3594117              1.1309444              0.7434568
SP   1   1.00
      0.1267512              1.0000000              1.0000000
D    1   1.00
      0.8020000              1.0000000
D    1   1.00
      0.2005000              1.0000000
F    1   1.00
      0.5000000              1.0000000
****
C     0
S    6   1.00
   3047.5249000              0.0018347
    457.3695100              0.0140373
    103.9486900              0.0688426
     29.2101550              0.2321844
      9.2866630              0.4679413
      3.1639270              0.3623120
SP   3   1.00
      7.8682724             -0.1193324              0.0689991
      1.8812885             -0.1608542              0.3164240
      0.5442493              1.1434564              0.7443083
SP   1   1.00
      0.1687144              1.0000000              1.0000000
D    1   1.00
      1.2520000              1.0000000
D    1   1.00
      0.3130000              1.0000000
F    1   1.00
      0.8000000              1.0000000
****
N     0
S    6   1.00
   4173.5110000              0.0018348
    627.4579000              0.0139950
    142.9021000              0.0685870
     40.2343300              0.2322410
     12.8202100              0.4690700
      4.3904370              0.3604550
SP   3   1.00
     11.6263580             -0.1149610              0.0675800
      2.7162800             -0.1691180              0.3239070
      0.7722180              1.1458520              0.7408950
SP   1   1.00
      0.2120313              1.0000000              1.0000000
D    1   1.00
      1.8260000              1.0000000
D    1   1.00
      0.4565000              1.0000000
F    1   1.00
      1.0000000              1.0000000
****
O     0
S    6   1.00
   5484.6717000              0.0018311
    825.2349500              0.0139501
    188.0469600              0.0684451
     52.9645000              0.2327143
     16.8975700              0.4701930
      5.7996353              0.3585209
SP   3   1.00
     15.5396160             -0.1107775              0.0708743
      3.5999336             -0.1480263              0.3397528
      1.0137618              1.1307670              0.7271586
SP   1   1.00
      0.2700058              1.0000000              1.0000000
D    1   1.00
      2.5840000              1.0000000
D    1   1.00
      0.6460000              1.0000000
F    1   1.00
      1.4000000              1.0000000
****
F     0
S    6   1.00
   7001.7130900              0.0018196169
   1051.3660900              0.0139160796
    239.2856900              0.0684053245
     67.3974453              0.233185760
     21.5199573              0.471267439
      7.40310130             0.356618546
SP   3   1.00
     20.8479528             -0.108506975            0.0716287243
      4.80830834            -0.146451658            0.3459121030
      1.34406986             1.128688580            0.7224699570
SP   1   1.00
      0.358151393            1.0000000              1.0000000
D    1   1.00
      3.5000000              1.0000000
D    1   1.00
      0.8750000              1.0000000
F    1   1.00
      1.8500000              1.0000000
****
Al     0
S    6   1.00
  13983.1000000              0.00194267
   2098.7500000              0.0148599
    477.7050000              0.0728494
    134.3600000              0.2468300
     42.8709000              0.4872580
     14.5189000              0.3234960
SP   6   1.00
    239.6680000             -0.00292619             0.00460285
     57.4419000             -0.0374080              0.0331990
     18.2859000             -0.1144870              0.1362820
      6.5991400              0.1156350              0.3304760
      2.4904900              0.6125950              0.4491460
      0.9445400              0.3937990              0.2657040
SP   3   1.00
      1.2779000             -0.2276060             -0.0175130
      0.3975900              0.00144583             0.2445330
      0.1600950              1.0927900              0.8049340
SP   1   1.00
      0.0556577              1.0000000              1.0000000
D    1   1.00
      0.6500000              1.0000000
D    1   1.00
      0.1625000              1.0000000
F    1   1.00
      0.2500000              1.0000000
****
Si     0
S    6   1.00
  16115.9000000              0.00195948
   2425.5800000              0.01492880
    553.8670000              0.07284780
    156.3400000              0.24613000
     50.0683000              0.48591400
     17.0178000              0.32500200
SP   6   1.00
    292.7180000             -0.00278094             0.00443826
     69.8731000             -0.03571460             0.03266790
     22.3363000             -0.11498500             0.13472100
      8.1503900              0.09356340             0.32867800
      3.1345800              0.60301700             0.44964000
      1.2254300              0.41895900             0.26137200
SP   3   1.00
      1.7273800             -0.24463000            -0.01779510
      0.5729220              0.00431572             0.25353900
      0.2221920              1.09818000             0.80066900
SP   1   1.00
      0.0778369              1.00000000             1.00000000
D    1   1.00
      0.9000000              1.0000000
D    1   1.00
      0.2250000              1.0000000
F    1   1.00
      0.3200000              1.0000000
****
P     0
S    6   1.00
  19413.3000000              0.0018516
   2909.4200000              0.0142062
    661.3640000              0.0699995
    185.7590000              0.2400790
     59.1943000              0.4847620
     20.0310000              0.3352000
SP   6   1.00
    339.4780000             -0.00278217             0.00456462
     81.0101000             -0.0360499              0.03369360
     25.8780000             -0.1166310              0.13975500
      9.4522100              0.0968328              0.33936200
      3.6656600              0.6144180              0.45092100
      1.4674600              0.4037980              0.23858600
SP   3   1.00
      2.1562300             -0.2529230             -0.01776530
      0.7489970              0.0328517              0.27405800
      0.2831450              1.0812500              0.78542100
SP   1   1.00
      0.0998317              1.0000000              1.00000000
D    1   1.00
      1.1000000              1.0000000
D    1   1.00
      0.2750000              1.0000000
F    1   1.00
      0.4500000              1.0000000
****
S     0
S    6   1.00
  21917.1000000              0.0018690
   3301.4900000              0.0142300
    754.1460000              0.0696960
    212.7110000              0.2384870
     67.9896000              0.4833070
     23.0515000              0.3380740
SP   6   1.00
    423.7350000             -0.0023767              0.0040610
    100.7100000             -0.0316930              0.0306810
     32.1599000             -0.1133170              0.1304520
     11.8079000              0.0560900              0.3272050
      4.6311000              0.5922550              0.4528510
      1.8702500              0.4550060              0.2560420
SP   3   1.00
      2.6158400             -0.2503740             -0.0145110
      0.9221670              0.0669570              0.3102630
      0.3412870              1.0545100              0.7544830
SP   1   1.00
      0.1171670              1.0000000              1.0000000
D    1   1.00
      1.3000000              1.0000000
D    1   1.00
      0.3250000              1.0000000
F    1   1.00
      0.5500000              1.0000000
****
Cl     0
S    6   1.00
  25180.1000000              0.0018330
   3780.3500000              0.0140340
    860.4740000              0.0690970
    242.1450000              0.2374520
     77.3349000              0.4830340
     26.2470000              0.3398560
SP   6   1.00
    491.7650000             -0.0022974              0.0039894
    116.9840000             -0.0307140              0.0303180
     37.4153000             -0.1125280              0.1298800
     13.7834000              0.0450160              0.3279510
      5.4521500              0.5893530              0.4535270
      2.2258800              0.4652060              0.2521540
SP   3   1.00
      3.1864900             -0.2518300             -0.0142990
      1.1442700              0.0615890              0.3235720
      0.4203770              1.0601800              0.7435070
SP   1   1.00
      0.1426570              1.0000000              1.0000000
D    1   1.00
      1.5000000              1.0000000
D    1   1.00
      0.3750000              1.0000000
F    1   1.00
      0.7000000              1.0000000
****
}


set {
reference rhf                          
freeze_core true
e_convergence 10                       
d_convergence 10                      
dft_spherical_points 1202
dft_radial_points 99
}

e = energy('b3lyp')

print_out('Grab this energy {0}'.format(e))
--------------------------------------------------------------------------

  Memory set to  13.039 GiB by Python driver.

Scratch directory: /tmp/

*** tstart() called on n035
*** at Sat Oct 23 17:32:33 2021

   => Loading Basis Set <=

    Name: ANONYMOUS10F8ED1E
    Role: ORBITAL
    Keyword: BASIS
    atoms 1-6  entry C          line    48 inputblock 6-31g_2dfp_ 
    atoms 7-12 entry H          line    15 inputblock 6-31g_2dfp_ 


         ---------------------------------------------------------
                                   SCF
               by Justin Turney, Rob Parrish, Andy Simmonett
                          and Daniel G. A. Smith
                              RKS Reference
                        1 Threads,  13351 MiB Core
         ---------------------------------------------------------

  ==> Geometry <==

    Molecular point group: cs
    Full point group: C1v

    Geometry (in Bohr), charge = 0, multiplicity = 1:

       Center              X                  Y                   Z               Mass       
    ------------   -----------------  -----------------  -----------------  -----------------
         C           -2.639334361787    -0.000730042155     0.000000000000    12.000000000000
         C           -1.321296492687     0.000730136245    -2.288552664300    12.000000000000
         C            1.319667175913    -0.000730042055    -2.285730604900    12.000000000000
         C            2.642592995313     0.000730136245     0.000000000000    12.000000000000
         C            1.319667175913    -0.000730042055     2.285730604900    12.000000000000
         C           -1.321296492687     0.000730136245     2.288552664300    12.000000000000
         H           -4.683009821287    -0.003209235655     0.000000000000     1.007825032230
         H           -2.346267217087     0.003208114545    -4.063854033400     1.007825032230
         H            2.341504910713    -0.003209235655    -4.055605476600     1.007825032230
         H            4.692534434313     0.003208114545     0.000000000000     1.007825032230
         H            2.341504910713    -0.003209235655     4.055605476600     1.007825032230
         H           -2.346267217087     0.003208114545     4.063854033400     1.007825032230

  Running in cs symmetry.

  Rotational constants: A =      0.18959  B =      0.18959  C =      0.09479 [cm^-1]
  Rotational constants: A =   5683.67709  B =   5683.67708  C =   2841.83944 [MHz]
  Nuclear repulsion =  203.182699452055743

  Charge       = 0
  Multiplicity = 1
  Electrons    = 42
  Nalpha       = 21
  Nbeta        = 21

  ==> Algorithm <==

  SCF Algorithm Type is DF.
  DIIS enabled.
  MOM disabled.
  Fractional occupation disabled.
  Guess Type is SAD.
  Energy threshold   = 1.00e-10
  Density threshold  = 1.00e-10
  Integral threshold = 0.00e+00

  ==> Primary Basis <==

  Basis Set: ANONYMOUS10F8ED1E
    Blend: 6-31G_2DFP_
    Number of shells: 72
    Number of basis function: 204
    Number of Cartesian functions: 234
    Spherical Harmonics?: true
    Max angular momentum: 3

  ==> DFT Potential <==

   => Composite Functional: B3LYP <= 

    B3LYP Hyb-GGA Exchange-Correlation Functional

    P. J. Stephens, F. J. Devlin, C. F. Chabalowski, and M. J. Frisch, J. Phys. Chem. 98, 11623 (1994)

    Deriv               =              1
    GGA                 =           TRUE
    Meta                =          FALSE

    Exchange Hybrid     =           TRUE
    MP2 Hybrid          =          FALSE

   => Exchange Functionals <=

    0.0800   Slater exchange
    0.7200         Becke 88

   => Exact (HF) Exchange <=

    0.2000               HF 

   => Correlation Functionals <=

    0.1900   Vosko, Wilk & Nusair (VWN5_RPA)
    0.8100   Lee, Yang & Parr

   => Molecular Quadrature <=

    Radial Scheme          =       TREUTLER
    Pruning Scheme         =           NONE
    Nuclear Scheme         =       TREUTLER

    BS radius alpha        =              1
    Pruning alpha          =              1
    Radial Points          =             99
    Spherical Points       =           1202
    Total Points           =        1319810
    Total Blocks           =           8909
    Max Points             =            256
    Max Functions          =            198
    Weights Tolerance      =       1.00E-15

   => Loading Basis Set <=

    Name: (ANONYMOUS10F8ED1E AUX)
    Role: JKFIT
    Keyword: DF_BASIS_SCF
    atoms 1-6  entry C          line   198 file /opt/psi/4/master/share/psi4/basis/def2-universal-jkfit.gbs 
    atoms 7-12 entry H          line    18 file /opt/psi/4/master/share/psi4/basis/def2-universal-jkfit.gbs 

  ==> Integral Setup <==

  DFHelper Memory: AOs need 0.182 GiB; user supplied 3.666 GiB. Using in-core AOs.

  ==> MemDFJK: Density-Fitted J/K Matrices <==

    J tasked:                   Yes
    K tasked:                   Yes
    wK tasked:                   No
    OpenMP threads:               1
    Memory [MiB]:              3753
    Algorithm:                 Core
    Schwarz Cutoff:           1E-12
    Mask sparsity (%):       1.4466
    Fitting Condition:        1E-10

   => Auxiliary Basis Set <=

  Basis Set: (ANONYMOUS10F8ED1E AUX)
    Blend: DEF2-UNIVERSAL-JKFIT
    Number of shells: 186
    Number of basis function: 558
    Number of Cartesian functions: 654
    Spherical Harmonics?: true
    Max angular momentum: 4

  Cached 100.0% of DFT collocation blocks in 6.113 [GiB].

  Minimum eigenvalue in the overlap matrix is 5.7610314312E-05.
  Reciprocal condition number of the overlap matrix is 1.0298047156E-05.
    Using symmetric orthogonalization.

  ==> Pre-Iterations <==

  SCF Guess: Superposition of Atomic Densities via on-the-fly atomic UHF (no occupation information).

   -------------------------
    Irrep   Nso     Nmo    
   -------------------------
     A'       114     114 
     A"        90      90 
   -------------------------
    Total     204     204
   -------------------------

  ==> Iterations <==

                           Total Energy        Delta E     RMS |[F,P]|

   @DF-RKS iter SAD:  -231.71448271525753   -2.31714e+02   0.00000e+00 
   @DF-RKS iter   1:  -231.93075621379722   -2.16273e-01   5.19446e-03 DIIS
   @DF-RKS iter   2:  -231.83216037883898    9.85958e-02   6.10722e-03 DIIS
   @DF-RKS iter   3:  -232.26113176997251   -4.28971e-01   4.87613e-04 DIIS
   @DF-RKS iter   4:  -232.26339672085672   -2.26495e-03   6.48462e-05 DIIS
   @DF-RKS iter   5:  -232.26343978601608   -4.30652e-05   6.10820e-06 DIIS
   @DF-RKS iter   6:  -232.26344004092127   -2.54905e-07   4.20095e-06 DIIS
   @DF-RKS iter   7:  -232.26344021912365   -1.78202e-07   4.58871e-07 DIIS
   @DF-RKS iter   8:  -232.26344022134097   -2.21732e-09   1.13767e-08 DIIS
   @DF-RKS iter   9:  -232.26344022134256   -1.59162e-12   1.34598e-09 DIIS
   @DF-RKS iter  10:  -232.26344022134234    2.27374e-13   1.44577e-10 DIIS
   @DF-RKS iter  11:  -232.26344022134151    8.24230e-13   3.11371e-11 DIIS
  Energy and wave function converged.


  ==> Post-Iterations <==

    Orbital Energies [Eh]
    ---------------------

    Doubly Occupied:                                                      

       1Ap   -10.180855     1App  -10.180771     2Ap   -10.180771  
       2App  -10.180166     3Ap   -10.180166     4Ap   -10.180010  
       5Ap    -0.845651     3App   -0.739082     6Ap    -0.739082  
       7Ap    -0.596637     4App   -0.596637     8Ap    -0.517197  
       9Ap    -0.457763     5App   -0.437815     6App   -0.415581  
      10Ap    -0.415581    11Ap    -0.360648    12Ap    -0.338738  
       7App   -0.338738    13Ap    -0.247510     8App   -0.247510  

    Virtual:                                                              

      14Ap     0.000928     9App    0.000928    15Ap     0.086156  
      10App    0.130928    16Ap     0.130928    17Ap     0.158089  
      18Ap     0.162973    11App    0.162973    19Ap     0.182662  
      20Ap     0.283398    12App    0.283398    13App    0.302018  
      21Ap     0.302018    22Ap     0.370322    14App    0.405686  
      23Ap     0.422494    15App    0.469230    24Ap     0.469230  
      25Ap     0.470808    26Ap     0.473389    16App    0.473389  
      27Ap     0.496704    17App    0.496704    28Ap     0.502918  
      29Ap     0.530281    18App    0.546909    19App    0.610073  
      30Ap     0.610073    31Ap     0.611220    20App    0.611220  
      21App    0.644426    32Ap     0.644426    22App    0.650436  
      33Ap     0.667287    34Ap     0.699976    23App    0.699976  
      24App    0.718169    35Ap     0.718169    36Ap     0.723773  
      37Ap     0.726676    38Ap     0.788317    25App    0.788317  
      26App    0.826218    27App    0.875264    39Ap     0.875264  
      40Ap     0.887865    41Ap     0.930922    42Ap     0.966156  
      43Ap     0.991543    28App    0.991543    44Ap     1.036542  
      29App    1.036542    45Ap     1.085888    30App    1.085888  
      46Ap     1.095900    47Ap     1.132098    31App    1.132098  
      32App    1.147175    33App    1.213391    48Ap     1.213391  
      49Ap     1.302133    34App    1.302133    35App    1.303879  
      50Ap     1.303879    36App    1.372559    51Ap     1.372559  
      52Ap     1.383885    37App    1.397156    53Ap     1.397156  
      38App    1.421863    54Ap     1.425619    39App    1.425619  
      40App    1.471341    55Ap     1.485170    41App    1.524622  
      56Ap     1.524622    57Ap     1.582542    42App    1.586346  
      43App    1.625177    58Ap     1.625177    59Ap     1.715760  
      60Ap     1.787660    44App    1.953018    45App    1.960711  
      61Ap     1.960711    62Ap     2.349382    46App    2.349382  
      47App    2.380745    63Ap     2.380745    48App    2.460897  
      64Ap     2.487904    49App    2.544120    65Ap     2.544120  
      66Ap     2.636691    50App    2.728854    67Ap     2.813217  
      51App    2.813217    68Ap     2.825023    52App    2.831481  
      69Ap     2.831481    70Ap     2.837547    53App    2.897627  
      71Ap     2.897627    72Ap     2.936926    54App    2.936926  
      55App    2.989656    73Ap     2.989656    56App    2.992040  
      74Ap     3.097847    75Ap     3.131100    57App    3.131100  
      76Ap     3.137832    58App    3.137832    77Ap     3.156611  
      59App    3.156611    78Ap     3.181881    79Ap     3.203593  
      60App    3.278415    80Ap     3.278415    81Ap     3.324272  
      61App    3.324272    62App    3.328867    82Ap     3.328867  
      83Ap     3.335763    84Ap     3.442795    63App    3.515547  
      64App    3.528712    65App    3.541187    85Ap     3.541187  
      86Ap     3.598492    66App    3.611499    87Ap     3.611499  
      67App    3.645602    88Ap     3.662229    68App    3.662229  
      89Ap     3.665845    69App    3.674347    90Ap     3.674347  
      91Ap     3.688930    92Ap     3.717691    70App    3.717691  
      71App    3.831338    72App    3.918891    93Ap     3.918891  
      94Ap     3.975612    73App    3.975612    95Ap     4.010057  
      96Ap     4.037754    97Ap     4.049178    74App    4.049178  
      98Ap     4.064593    75App    4.064593    99Ap     4.114238  
      76App    4.114238    77App    4.236649   100Ap     4.236649  
     101Ap     4.317720    78App    4.327041   102Ap     4.327041  
      79App    4.341664    80App    4.369997   103Ap     4.438497  
      81App    4.438497   104Ap     4.470661    82App    4.577296  
      83App    4.624449   105Ap     4.624449    84App    4.737696  
      85App    4.855367   106Ap     4.855367   107Ap     4.881450  
     108Ap     4.892474   109Ap     4.935035    86App    5.080367  
     110Ap     5.080367   111Ap     5.152885    87App    5.152885  
      88App    5.443011   112Ap     5.443011    89App    5.598189  
     113Ap     5.598189   114Ap     5.975379    90App    6.031904  

    Final Occupation by Irrep:
             Ap   App 
    DOCC [    13,    8 ]

  @DF-RKS Final Energy:  -232.26344022134151

   => Energetics <=

    Nuclear Repulsion Energy =            203.1826994520557434
    One-Electron Energy =                -713.8714120296820056
    Two-Electron Energy =                 306.6051490045845185
    DFT Exchange-Correlation Energy =     -28.1798766482998069
    Empirical Dispersion Energy =           0.0000000000000000
    VV10 Nonlocal Energy =                  0.0000000000000000
    Total Energy =                       -232.2634402213415115

Computation Completed


Properties will be evaluated at   0.000000,   0.000000,   0.000000 [a0]

Properties computed using the SCF density matrix

  Nuclear Dipole Moment: [e a0]
     X:     0.0000      Y:    -0.0000      Z:     0.0000

  Electronic Dipole Moment: [e a0]
     X:    -0.0000      Y:     0.0000      Z:     0.0000

  Dipole Moment: [e a0]
     X:    -0.0000      Y:     0.0000      Z:     0.0000     Total:     0.0000

  Dipole Moment: [D]
     X:    -0.0000      Y:     0.0000      Z:     0.0000     Total:     0.0000


*** tstop() called on n035 at Sat Oct 23 17:34:37 2021
Module time:
	user time   =     123.21 seconds =       2.05 minutes
	system time =       1.18 seconds =       0.02 minutes
	total time  =        124 seconds =       2.07 minutes
Total time:
	user time   =     123.21 seconds =       2.05 minutes
	system time =       1.18 seconds =       0.02 minutes
	total time  =        124 seconds =       2.07 minutes
Grab this energy -232.2634402213415
    Psi4 stopped on: Saturday, 23 October 2021 05:34PM
    Psi4 wall time for execution: 0:02:04.43

*** Psi4 exiting successfully. Buy a developer a beer!
