
 Primary working directories    : /tmp/880701.373.gen4.q
 Secondary working directories  : /tmp/880701.373.gen4.q
 Wavefunction directory         : /home/vulcan/lo21740/wfu/
 Main file repository           : /tmp/880701.373.gen4.q/

 ARCHNAME  : Linux/x86_64
 FC        : /opt/intel/compilers_and_libraries_2016.1.150/linux/bin/intel64/ifort
 FCVERSION : 16.0.1
 BLASLIB   : -mkl
 id        : ccgc

 Nodes     nprocs
 n021         1
 ga_uses_ma=false, calling ma_init with nominal heap.
 GA-space will be limited to   8.0 MW (determined by -G option)

 Using customized tuning parameters: mindgm=10; mindgv=16; mindgc=4; mindgr=1; noblas=0; mincuda=1000; minvec=7
 default implementation of scratch files=df  

 ***,Optimization of formamide
 memory,1000,m
 gthresh,energy=1.0d-12,orbital=1.0d-10,oneint=1.0d-16,twoint=1.0d-16,optgrad=1.0d-6,compress=1.0d-13
 geomtyp=xyz
 
 bohr
 geometry = {
  C   -3.8241492455    0.0855202490   -0.0025676771
  O   -2.7311283465    2.1393046509   -0.0061356597
  N   -2.6831612307   -2.1781986384    0.0027942364
  H   -3.7386304052   -3.7563334847    0.0092168634
  H   -0.7495845202   -2.3056543982   -0.0002182085
  H   -5.9027841813   -0.0183167333   -0.0030928574
  C    3.8274512668   -0.0871614427   -0.0025732057
  O    2.7292997383   -2.1385953505   -0.0061282123
  N    2.6795514964    2.1806609108    0.0027962993
  H    3.7395185271    3.7557259394    0.0092175623
  H    0.7517748293    2.3044834090   -0.0002145806
  H    5.9018420715    0.0185648888   -0.0030945601
 }
 
 basis=AVDZ
 {rhf;maxit,200}
 {ccsd(t);maxit,200}

 Variables initialized (661), CPU time= 0.00 sec
 Commands  initialized (458), CPU time= 0.00 sec, 486 directives.
 Default parameters read. Elapsed time= 0.06 sec

 Checking input...
 Passed
1


                                         ***  PROGRAM SYSTEM MOLPRO  ***
                         Copyright, University College Cardiff Consultants Limited, 2008

                                    Version 2010.1 linked May 16 2016 07:17:05


 **********************************************************************************************************************************
 LABEL *   Optimization of formamide                                                     
 Linux-4.4.3/n021(x86_64) 64 bit mpp version                                             DATE: 24-May-23          TIME: 21:57:23  
 **********************************************************************************************************************************

 SHA1:             9e8077add272b0f3cad6f7df79ec5211205f459d
 **********************************************************************************************************************************

 THRESHOLDS:

 ZERO    =  1.00D-12  ONEINT  =  1.00D-16  TWOINT  =  1.00D-16  PREFAC  =  1.00D-14  LOCALI  =  1.00D-09  EORDER  =  1.00D-04
 ENERGY  =  1.00D-12  ETEST   =  0.00D+00  EDENS   =  0.00D+00  THRDEDEF=  1.00D-06  GRADIENT=  1.00D-02  STEP    =  1.00D-03
 ORBITAL =  1.00D-10  CIVEC   =  1.00D-05  COEFF   =  1.00D-04  PRINTCI =  5.00D-02  PUNCHCI =  9.90D+01  OPTGRAD =  1.00D-06
 OPTENERG=  1.00D-06  OPTSTEP =  3.00D-04  THRGRAD =  1.00D-10  COMPRESS=  1.00D-13  VARMIN  =  1.00D-07  VARMAX  =  1.00D-03
 THRDOUB =  0.00D+00  THRDIV  =  1.00D-05  THRRED  =  1.00D-07  THRPSP  =  1.00D+00  THRDC   =  1.00D-10  THRCS   =  1.00D-10
 THRNRM  =  1.00D-08  THREQ   =  0.00D+00  THRDE   =  1.00D+00  THRREF  =  1.00D-05  SPARFAC =  1.00D+00  THRDLP  =  1.00D-07
 THRDIA  =  1.00D-10  THRDLS  =  1.00D-07  THRGPS  =  0.00D+00  THRKEX  =  0.00D+00  THRDIS  =  2.00D-01  THRVAR  =  1.00D-10
 THRLOC  =  1.00D-06  THRGAP  =  1.00D-06  THRLOCT = -1.00D+00  THRGAPT = -1.00D+00  THRORB  =  1.00D-06  THRMLTP =  0.00D+00
 THRCPQCI=  1.00D-10  KEXTA   =  0.00D+00  THRCOARS=  0.00D+00  SYMTOL  =  1.00D-06  GRADTOL =  1.00D-06  THROVL  =  1.00D-08
 THRORTH =  1.00D-08  GRID    =  1.00D-06  GRIDMAX =  1.00D-03  DTMAX   =  0.00D+00

 SETTING GEOMTYP        =    XYZ
 ZUNIT=BOHR
 

 Variable memory set to 1000000000 words,  buffer space   230000 words

 SETTING BASIS          =    AVDZ


 Recomputing integrals since basis changed


 Using spherical harmonics

 Library entry C      S aug-cc-pVDZ          selected for orbital group  1
 Library entry C      P aug-cc-pVDZ          selected for orbital group  1
 Library entry C      D aug-cc-pVDZ          selected for orbital group  1
 Library entry O      S aug-cc-pVDZ          selected for orbital group  2
 Library entry O      P aug-cc-pVDZ          selected for orbital group  2
 Library entry O      D aug-cc-pVDZ          selected for orbital group  2
 Library entry N      S aug-cc-pVDZ          selected for orbital group  3
 Library entry N      P aug-cc-pVDZ          selected for orbital group  3
 Library entry N      D aug-cc-pVDZ          selected for orbital group  3
 Library entry H      S aug-cc-pVDZ          selected for orbital group  4
 Library entry H      P aug-cc-pVDZ          selected for orbital group  4

1PROGRAM * SEWARD (Integral evaluation for generally contracted gaussian basis sets)     Author: Roland Lindh, 1990

 Geometry written to block  1 of record 700


 Point group  C1  



 ATOMIC COORDINATES

 NR  ATOM    CHARGE       X              Y              Z

   1  C       6.00   -3.824149246    0.085520249   -0.002567677
   2  O       8.00   -2.731128346    2.139304651   -0.006135660
   3  N       7.00   -2.683161231   -2.178198638    0.002794236
   4  H       1.00   -3.738630405   -3.756333485    0.009216863
   5  H       1.00   -0.749584520   -2.305654398   -0.000218208
   6  H       1.00   -5.902784181   -0.018316733   -0.003092857
   7  C       6.00    3.827451267   -0.087161443   -0.002573206
   8  O       8.00    2.729299738   -2.138595351   -0.006128212
   9  N       7.00    2.679551496    2.180660911    0.002796299
  10  H       1.00    3.739518527    3.755725939    0.009217562
  11  H       1.00    0.751774829    2.304483409   -0.000214581
  12  H       1.00    5.901842071    0.018564889   -0.003094560

 Bond lengths in Bohr (Angstrom)

 1-2  2.326529128  1-3  2.535015898  1-6  2.081226944  3-4  1.898569467  3-5  1.937775256
     ( 1.231146191)     ( 1.341472637)     ( 1.101337865)     ( 1.004679692)     ( 1.025426501)

  7- 8  2.326871396   7- 9  2.541794827   7-12  2.077083421   9-10  1.898526055   9-11  1.931751525
       ( 1.231327311)       ( 1.345059892)       ( 1.099145208)       ( 1.004656719)       ( 1.022238881)

 Bond angles

  1-3-4  119.47570011   1-3-5  120.52057196   2-1-3  125.22865850   2-1-6  120.88157177

  3- 1- 6  113.88976782   4- 3- 5  120.00372469   7- 9-10  119.21386909   7- 9-11  120.52185254

  8- 7- 9  124.99244786   8- 7-12  121.07818072   9- 7-12  113.92936951  10- 9-11  120.26427511

 NUCLEAR CHARGE:                   48
 NUMBER OF PRIMITIVE AOS:         288
 NUMBER OF SYMMETRY AOS:          276
 NUMBER OF CONTRACTIONS:          192   ( 192A   )
 NUMBER OF CORE ORBITALS:           6   (   6A   )
 NUMBER OF VALENCE ORBITALS:       30   (  30A   )


 NUCLEAR REPULSION ENERGY  230.50418461


 Eigenvalues of metric

         1 0.232E-03 0.270E-03 0.524E-03 0.529E-03 0.565E-03 0.702E-03 0.713E-03 0.715E-03


 Contracted 2-electron integrals neglected if value below      1.0D-16
 AO integral compression algorithm  1   Integral accuracy      1.0D-16

     1301.283 MB (compressed) written to integral file ( 84.6%)

     Node minimum: 1301.283 MB, node maximum: 1301.283 MB


 NUMBER OF SORTED TWO-ELECTRON INTEGRALS:  171652656.     BUFFER LENGTH:  32768
 NUMBER OF SEGMENTS:  11  SEGMENT LENGTH:   15999503      RECORD LENGTH: 524288

 Memory used in sort:      16.56 MW

 SORT1 READ   192171061. AND WROTE   169386685. INTEGRALS IN    491 RECORDS. CPU TIME:     2.14 SEC, REAL TIME:     4.44 SEC
 SORT2 READ   169386685. AND WROTE   171652656. INTEGRALS IN   4964 RECORDS. CPU TIME:     1.47 SEC, REAL TIME:     2.07 SEC

 FILE SIZES:   FILE 1:  1183.7 MBYTE,  FILE 4:  2059.4 MBYTE,   TOTAL:   3243.1 MBYTE

 OPERATOR DM      FOR CENTER  0  COORDINATES:    0.000000    0.000000    0.000000


 **********************************************************************************************************************************
 DATASETS  * FILE   NREC   LENGTH (MB)   RECORD NAMES
              1      19     1184.14       500      610      700      900      950      970     1000      129      960     1100   
                                          VAR    BASINP    GEOM    SYMINP    ZMAT    AOBASIS   BASIS     P2S    ABASIS      S 
                                         1400     1410     1200     1210     1080     1600     1650     1300     1700   
                                           T        V       H0       H01     AOSYM     SMH    MOLCAS    ERIS     OPER   

 PROGRAMS   *        TOTAL       INT
 CPU TIMES  *        10.93     10.87
 REAL TIME  *        14.95 SEC
 DISK USED  *         4.55 GB      
 GA USED    *         0.00 MB       (max)       0.00 MB       (current)
 **********************************************************************************************************************************

1PROGRAM * RHF-SCF (CLOSED SHELL)       Authors: W. Meyer, H.-J. Werner


 NUMBER OF ELECTRONS:      24+   24-    SPACE SYMMETRY=1    SPIN SYMMETRY: Singlet 
 CONVERGENCE THRESHOLDS:    1.00E-10 (Density)    1.00E-13 (Energy)
 MAX. NUMBER OF ITERATIONS:      200
 INTERPOLATION TYPE:            DIIS
 INTERPOLATION STEPS:              2 (START)      1 (STEP)
 LEVEL SHIFTS:                  0.00 (CLOSED)  0.00 (OPEN) 



 Orbital guess generated from atomic densities. Full valence occupancy:   36

 Molecular orbital dump at record        2100.2

 ITERATION    DDIFF          GRAD             ENERGY        2-EL.EN.            DIPOLE MOMENTS         DIIS
    1      0.000D+00      0.000D+00      -337.80605628    704.692273    0.01503   -0.01437    0.00954    0
    2      0.000D+00      0.563D-02      -337.88348512    699.080361    0.00964   -0.00626    0.00510    1
    3      0.107D-01      0.410D-02      -337.94122762    701.818567    0.01065   -0.00851    0.00645    2
    4      0.434D-02      0.542D-03      -337.94343852    701.723092    0.01058   -0.00856    0.00620    3
    5      0.103D-02      0.187D-03      -337.94370656    701.656264    0.01033   -0.00845    0.00619    4
    6      0.353D-03      0.613D-04      -337.94376779    701.681797    0.01030   -0.00851    0.00615    5
    7      0.156D-03      0.271D-04      -337.94377879    701.672954    0.01026   -0.00851    0.00614    6
    8      0.741D-04      0.806D-05      -337.94377974    701.678471    0.01026   -0.00854    0.00613    7
    9      0.234D-04      0.243D-05      -337.94377981    701.676004    0.01026   -0.00852    0.00613    8
   10      0.610D-05      0.846D-06      -337.94377982    701.676548    0.01026   -0.00854    0.00613    7
   11      0.255D-05      0.207D-06      -337.94377982    701.676482    0.01026   -0.00853    0.00613    8
   12      0.581D-06      0.577D-07      -337.94377982    701.676486    0.01026   -0.00854    0.00613    8
   13      0.109D-06      0.283D-07      -337.94377982    701.676482    0.01026   -0.00854    0.00613    8
   14      0.470D-07      0.766D-08      -337.94377982    701.676485    0.01026   -0.00854    0.00613    8
   15      0.193D-07      0.246D-08      -337.94377982    701.676485    0.01026   -0.00854    0.00613    8
   16      0.531D-08      0.495D-09      -337.94377982    701.676485    0.01026   -0.00854    0.00613    8
   17      0.108D-08      0.173D-09      -337.94377982    701.676485    0.01026   -0.00854    0.00613    8
   18      0.326D-09      0.524D-10      -337.94377982    701.676485    0.01026   -0.00854    0.00613    8
   19      0.106D-09      0.212D-10      -337.94377982    701.676485    0.01026   -0.00854    0.00613    8
   20      0.397D-10      0.489D-11      -337.94377982    701.676485    0.01026   -0.00854    0.00613    7
   21      0.131D-10      0.159D-11      -337.94377982    701.676485    0.01026   -0.00854    0.00613    7
   22      0.536D-11      0.844D-12      -337.94377982    701.676485    0.01026   -0.00854    0.00613    8
   23      0.292D-11      0.233D-12      -337.94377982    701.676485    0.01026   -0.00854    0.00613    8
   24      0.275D-11      0.181D-12      -337.94377982    701.676485    0.01026   -0.00854    0.00613    9
   25      0.243D-11      0.120D-12      -337.94377982    701.676485    0.01026   -0.00854    0.00613    9
   26      0.195D-11      0.108D-12      -337.94377982    701.676485    0.01026   -0.00854    0.00613    9
   27      0.122D-11      0.105D-12      -337.94377982    701.676485    0.01026   -0.00854    0.00613    9
   28      0.987D-12      0.880D-13      -337.94377982    701.676485    0.01026   -0.00854    0.00613    9
   29      0.927D-12      0.105D-12      -337.94377982    701.676485    0.01026   -0.00854    0.00613    9
   30      0.836D-12      0.839D-13      -337.94377982    701.676485    0.01026   -0.00854    0.00613    9
   31      0.514D-12      0.856D-13      -337.94377982    701.676485    0.01026   -0.00854    0.00613    9
   32      0.411D-12      0.713D-13      -337.94377982    701.676485    0.01026   -0.00854    0.00613    9
   33      0.583D-12      0.862D-13      -337.94377982    701.676485    0.01026   -0.00854    0.00613    9
   34      0.336D-12      0.713D-13      -337.94377982    701.676485    0.01026   -0.00854    0.00613    9
   35      0.304D-12      0.958D-13      -337.94377982    701.676485    0.01026   -0.00854    0.00613    9
   36      0.305D-12      0.779D-13      -337.94377982    701.676485    0.01026   -0.00854    0.00613    9
   37      0.409D-12      0.743D-13      -337.94377982    701.676485    0.01026   -0.00854    0.00613    9
   38      0.644D-12      0.799D-13      -337.94377982    701.676485    0.01026   -0.00854    0.00613    9
   39      0.416D-12      0.724D-13      -337.94377982    701.676485    0.01026   -0.00854    0.00613    9
   40      0.268D-12      0.810D-13      -337.94377982    701.676485    0.01026   -0.00854    0.00613    9
   41      0.292D-12      0.816D-13      -337.94377982    701.676485    0.01026   -0.00854    0.00613    9
   42      0.309D-12      0.836D-13      -337.94377982    701.676485    0.01026   -0.00854    0.00613    0

 Final occupancy:  24

 !RHF STATE 1.1 Energy               -337.943779821916
 Nuclear energy                       230.50418461
 One-electron energy                 -919.28620679
 Two-electron energy                  350.83824236
 Virial quotient                       -1.00173026
 !RHF STATE 1.1 Dipole moment           0.01025861    -0.00853565     0.00613092
 Dipole moment /Debye                   0.02607307    -0.02169404     0.01558222

 Orbital energies:

         1.1          2.1          3.1          4.1          5.1          6.1          7.1          8.1          9.1         10.1
    -20.541527   -20.540761   -15.589096   -15.588798   -11.368029   -11.367400    -1.389337    -1.384596    -1.218556    -1.212301

        11.1         12.1         13.1         14.1         15.1         16.1         17.1         18.1         19.1         20.1
     -0.860907    -0.835713    -0.749939    -0.740928    -0.705916    -0.645100    -0.619312    -0.593705    -0.573722    -0.565659

        21.1         22.1         23.1         24.1         25.1         26.1
     -0.454441    -0.429023    -0.420339    -0.409754     0.033383     0.036358


 **********************************************************************************************************************************
 DATASETS  * FILE   NREC   LENGTH (MB)   RECORD NAMES
              1      19     1184.14       500      610      700      900      950      970     1000      129      960     1100   
                                          VAR    BASINP    GEOM    SYMINP    ZMAT    AOBASIS   BASIS     P2S    ABASIS      S 
                                         1400     1410     1200     1210     1080     1600     1650     1300     1700   
                                           T        V       H0       H01     AOSYM     SMH    MOLCAS    ERIS     OPER   

              2       3        1.21       700     1000     2100   
                                         GEOM     BASIS     RHF  

 PROGRAMS   *        TOTAL       RHF       INT
 CPU TIMES  *        73.01     62.08     10.87
 REAL TIME  *        82.36 SEC
 DISK USED  *         4.55 GB      
 GA USED    *         0.00 MB       (max)       0.00 MB       (current)
 **********************************************************************************************************************************


1PROGRAM * CCSD (Closed-shell coupled cluster)     Authors: C. Hampel, H.-J. Werner, 1991, M. Deegan, P.J. Knowles, 1992


 Convergence thresholds:  THRVAR = 1.00D-08  THRDEN = 1.00D-12

 CCSD(T)     terms to be evaluated (factor= 1.000)


 Number of core orbitals:           6 (   6 )
 Number of closed-shell orbitals:  18 (  18 )
 Number of external orbitals:     168 ( 168 )

 Molecular orbitals read from record     2100.2  Type=RHF/CANONICAL (state 1.1)

 Number of N-1 electron functions:              18
 Number of N-2 electron functions:             171
 Number of singly external CSFs:              3024
 Number of doubly external CSFs:           4573800
 Total number of CSFs:                     4576825

 Length of J-op  integral file:               0.00 MB
 Length of K-op  integral file:               2.58 MB
 Length of 3-ext integral record:             0.00 MB

 Memory could be reduced to 108.88 Mwords without degradation in triples

 Integral transformation finished. Total CPU:  12.08 sec, npass=  1  Memory used:  78.69 MW

 Reference energy:                   -337.94377982

 MP2 singlet pair energy:              -0.62275612
 MP2 triplet pair energy:              -0.40616858
 MP2 correlation energy:               -1.02892470
 MP2 total energy:                   -338.97270453

 SCS-MP2 correlation energy:           -1.00003446   (PS=  1.200000  PT=  0.333333)
 SCS-MP2 total energy:               -338.94381428

 ITER.      SQ.NORM     CORR.ENERGY   TOTAL ENERGY   ENERGY CHANGE        DEN1      VAR(S)    VAR(P)  DIIS     TIME
   1      1.31936129    -1.05744636  -339.00122618    -0.02852166     0.00279224  0.10D-01  0.60D-02  1  1    48.44
   2      1.34487596    -1.05932978  -339.00310960    -0.00188342    -0.02595824  0.22D-03  0.11D-02  2  2    84.96
   3      1.35751927    -1.06022284  -339.00400266    -0.00089306    -0.00556681  0.22D-03  0.52D-04  3  3   121.52
   4      1.36273346    -1.05995846  -339.00373828     0.00026438    -0.00169512  0.22D-04  0.96D-05  4  4   158.10
   5      1.36488318    -1.05990105  -339.00368088     0.00005741    -0.00044965  0.27D-05  0.12D-05  5  5   194.67
   6      1.36540488    -1.05987239  -339.00365222     0.00002866    -0.00004977  0.27D-06  0.19D-06  6  6   231.25
   7      1.36553229    -1.05986008  -339.00363990     0.00001232    -0.00000197  0.35D-07  0.23D-07  6  1   267.82
   8      1.36556955    -1.05985889  -339.00363871     0.00000119    -0.00000699  0.75D-08  0.33D-08  6  2   304.41
   9      1.36557106    -1.05985906  -339.00363888    -0.00000017     0.00000266  0.13D-08  0.49D-09  6  3   341.00
  10      1.36557582    -1.05985851  -339.00363834     0.00000054    -0.00000110  0.32D-09  0.68D-10  6  4   377.60
  11      1.36557558    -1.05985877  -339.00363859    -0.00000025     0.00000046  0.58D-10  0.13D-10  6  5   414.17
  12      1.36557558    -1.05985874  -339.00363856     0.00000003     0.00000002  0.44D-11  0.35D-11  6  6   450.76
  13      1.36557530    -1.05985878  -339.00363860    -0.00000004     0.00000012  0.11D-11  0.38D-12  6  1   487.31
  14      1.36557520    -1.05985879  -339.00363861    -0.00000001     0.00000004  0.87D-13  0.73D-13  6  2   523.89
  15      1.36557518    -1.05985879  -339.00363861     0.00000000     0.00000001  0.21D-13  0.11D-13  6  3   560.48
  16      1.36557518    -1.05985879  -339.00363861    -0.00000000     0.00000000  0.45D-14  0.20D-14  6  4   597.04
  17      1.36557518    -1.05985879  -339.00363861     0.00000000    -0.00000000  0.75D-15  0.40D-15  6  5   633.66
  18      1.36557518    -1.05985879  -339.00363861     0.00000000    -0.00000000  0.23D-15  0.71D-16  6  6   670.25
  19      1.36557518    -1.05985879  -339.00363861    -0.00000000    -0.00000000  0.41D-16  0.18D-16  6  1   706.86
  20      1.36557518    -1.05985879  -339.00363861     0.00000000    -0.00000000  0.11D-16  0.44D-17  6  2   743.43
  21      1.36557518    -1.05985879  -339.00363861    -0.00000000     0.00000000  0.27D-17  0.94D-18  6  3   780.05
  22      1.36557518    -1.05985879  -339.00363861    -0.00000000     0.00000000  0.47D-18  0.23D-18  6  4   816.67
  23      1.36557518    -1.05985879  -339.00363861     0.00000000     0.00000000  0.17D-18  0.51D-19  6  1   853.25
  24      1.36557518    -1.05985879  -339.00363861    -0.00000000     0.00000000  0.37D-19  0.85D-20  6  5   889.85
  25      1.36557518    -1.05985879  -339.00363861    -0.00000000    -0.00000000  0.11D-19  0.28D-20  6  6   926.43
  26      1.36557518    -1.05985879  -339.00363861     0.00000000    -0.00000000  0.25D-20  0.91D-21  6  3   963.02

 Norm of t1 vector:      0.14831552      S-energy:     0.00000000      T1 diagnostic:  0.01747915
                                                                       D1 diagnostic:  0.05908433


 Total CPU time for triples:    694.04 sec


 RESULTS
 =======

  Reference energy                   -337.943779821916
  CCSD singlet pair energy             -0.699684979460
  CCSD triplet pair energy             -0.360173812693
  CCSD correlation energy              -1.059858792152

  Triples (T) contribution             -0.039945260788
  Total correlation energy             -1.099804052940

  CCSD total energy                  -339.003638614068
  CCSD[T] energy                     -339.046807612949
  CCSD-T energy                      -339.042460455382
 !CCSD(T) total energy               -339.043583874856

 Timing summary (sec):

 STEP                 CPU(USER)    SYS     CPU(TOT)    WALL
 Transformation         12.54      0.69     13.23     13.24
 CCSD iterations       950.50     10.63    961.13    961.32
 Triples               694.04      7.75    701.79    701.88

 Program statistics:

 Available memory in ccsd:               999998604
 Min. memory needed in ccsd:              11370604
 Max. memory used in ccsd:                15561652
 Max. memory used in cckext:              13129806 (26 integral passes)



 **********************************************************************************************************************************
 DATASETS  * FILE   NREC   LENGTH (MB)   RECORD NAMES
              1      20     1604.20       500      610      700      900      950      970     1000      129      960     1100   
                                          VAR    BASINP    GEOM    SYMINP    ZMAT    AOBASIS   BASIS     P2S    ABASIS      S 
                                         1400     1410     1200     1210     1080     1600     1650     1300     1700     1380   
                                           T        V       H0       H01     AOSYM     SMH    MOLCAS    ERIS     OPER     JKOP   

              2       3        1.21       700     1000     2100   
                                         GEOM     BASIS     RHF  

 PROGRAMS   *        TOTAL   CCSD(T)       RHF       INT
 CPU TIMES  *      1730.10   1657.09     62.08     10.87
 REAL TIME  *      1758.90 SEC
 DISK USED  *         4.55 GB      
 GA USED    *         0.00 MB       (max)       0.00 MB       (current)
 **********************************************************************************************************************************

        CCSD(T)         RHF-SCF 
   -339.04358387   -337.94377982
 **********************************************************************************************************************************
 Variable memory released
