
 Primary working directories    : /tmp/999602.641.gen6.q
 Secondary working directories  : /tmp/999602.641.gen6.q
 Wavefunction directory         : /home/vulcan/jj04645/wfu/
 Main file repository           : /tmp/999602.641.gen6.q/

 ARCHNAME  : Linux/x86_64
 FC        : /opt/intel/compilers_and_libraries_2016.1.150/linux/bin/intel64/ifort
 FCVERSION : 16.0.1
 BLASLIB   : -mkl
 id        : ccgc

 Nodes     nprocs
 n076         1
 ga_uses_ma=false, calling ma_init with nominal heap.
 GA-space will be limited to   8.0 MW (determined by -G option)

 Using customized tuning parameters: mindgm=10; mindgv=16; mindgc=4; mindgr=1; noblas=0; mincuda=1000; minvec=7
 default implementation of scratch files=df  

 ***,Optimization of 1,3-difluorobenzene
 memory,1000,m
 gthresh,energy=1.0d-12,orbital=1.0d-10,oneint=1.0d-16,twoint=1.0d-16,optgrad=1.0d-6,compress=1.0d-13
 geomtyp=xyz
 
 bohr
 geometry = {
  F    0.0000000000    4.4318929454   -1.7555132175
  C    0.0000000000    2.2377068329   -0.4805341335
  C    0.0000000000   -2.2958595241    2.1432874187
  C    0.0000000000    0.0005777437   -1.8580962635
  C    0.0000000000    2.2927811971    2.1457142747
  C    0.0000000000   -0.0022292577    3.4493143025
  C    0.0000000000   -2.2380072331   -0.4829012645
  H    0.0000000000    0.0016574040   -3.8994919709
  H    0.0000000000    4.0921559846    3.1119956154
  H    0.0000000000   -0.0033108336    5.4943319056
  F   -0.0000000000   -4.4308434878   -1.7602005719
  H   -0.0000000000   -4.0865217716    3.1256203405
 }
 
 basis=VDZ
 {rhf;maxit,200}
 {ccsd(t);maxit,200}

 Variables initialized (661), CPU time= 0.00 sec
 Commands  initialized (458), CPU time= 0.01 sec, 486 directives.
 Default parameters read. Elapsed time= 0.05 sec

 Checking input...
 Passed
1


                                         ***  PROGRAM SYSTEM MOLPRO  ***
                         Copyright, University College Cardiff Consultants Limited, 2008

                                    Version 2010.1 linked May 16 2016 07:17:05


 **********************************************************************************************************************************
 LABEL *   Optimization of 1,3-difluorobenzene                                           
 Linux-4.4.3/n076(x86_64) 64 bit mpp version                                             DATE: 07-Feb-24          TIME: 17:22:07  
 **********************************************************************************************************************************

 SHA1:             9e8077add272b0f3cad6f7df79ec5211205f459d
 **********************************************************************************************************************************

 THRESHOLDS:

 ZERO    =  1.00D-12  ONEINT  =  1.00D-16  TWOINT  =  1.00D-16  PREFAC  =  1.00D-14  LOCALI  =  1.00D-09  EORDER  =  1.00D-04
 ENERGY  =  1.00D-12  ETEST   =  0.00D+00  EDENS   =  0.00D+00  THRDEDEF=  1.00D-06  GRADIENT=  1.00D-02  STEP    =  1.00D-03
 ORBITAL =  1.00D-10  CIVEC   =  1.00D-05  COEFF   =  1.00D-04  PRINTCI =  5.00D-02  PUNCHCI =  9.90D+01  OPTGRAD =  1.00D-06
 OPTENERG=  1.00D-06  OPTSTEP =  3.00D-04  THRGRAD =  1.00D-10  COMPRESS=  1.00D-13  VARMIN  =  1.00D-07  VARMAX  =  1.00D-03
 THRDOUB =  0.00D+00  THRDIV  =  1.00D-05  THRRED  =  1.00D-07  THRPSP  =  1.00D+00  THRDC   =  1.00D-10  THRCS   =  1.00D-10
 THRNRM  =  1.00D-08  THREQ   =  0.00D+00  THRDE   =  1.00D+00  THRREF  =  1.00D-05  SPARFAC =  1.00D+00  THRDLP  =  1.00D-07
 THRDIA  =  1.00D-10  THRDLS  =  1.00D-07  THRGPS  =  0.00D+00  THRKEX  =  0.00D+00  THRDIS  =  2.00D-01  THRVAR  =  1.00D-10
 THRLOC  =  1.00D-06  THRGAP  =  1.00D-06  THRLOCT = -1.00D+00  THRGAPT = -1.00D+00  THRORB  =  1.00D-06  THRMLTP =  0.00D+00
 THRCPQCI=  1.00D-10  KEXTA   =  0.00D+00  THRCOARS=  0.00D+00  SYMTOL  =  1.00D-06  GRADTOL =  1.00D-06  THROVL  =  1.00D-08
 THRORTH =  1.00D-08  GRID    =  1.00D-06  GRIDMAX =  1.00D-03  DTMAX   =  0.00D+00

 SETTING GEOMTYP        =    XYZ
 ZUNIT=BOHR
 

 Variable memory set to 1000000000 words,  buffer space   230000 words

 SETTING BASIS          =    VDZ


 Recomputing integrals since basis changed


 Using spherical harmonics

 Library entry F      S cc-pVDZ              selected for orbital group  1
 Library entry F      P cc-pVDZ              selected for orbital group  1
 Library entry F      D cc-pVDZ              selected for orbital group  1
 Library entry C      S cc-pVDZ              selected for orbital group  2
 Library entry C      P cc-pVDZ              selected for orbital group  2
 Library entry C      D cc-pVDZ              selected for orbital group  2
 Library entry H      S cc-pVDZ              selected for orbital group  3
 Library entry H      P cc-pVDZ              selected for orbital group  3

1PROGRAM * SEWARD (Integral evaluation for generally contracted gaussian basis sets)     Author: Roland Lindh, 1990

 Geometry written to block  1 of record 700


 Point group  Cs  



 ATOMIC COORDINATES

 NR  ATOM    CHARGE       X              Y              Z

   1  F       9.00    0.000000000    4.431892945   -1.755513217
   2  C       6.00    0.000000000    2.237706833   -0.480534134
   3  C       6.00    0.000000000   -2.295859524    2.143287419
   4  C       6.00    0.000000000    0.000577744   -1.858096264
   5  C       6.00    0.000000000    2.292781197    2.145714275
   6  C       6.00    0.000000000   -0.002229258    3.449314302
   7  C       6.00    0.000000000   -2.238007233   -0.482901264
   8  H       1.00    0.000000000    0.001657404   -3.899491971
   9  H       1.00    0.000000000    4.092155985    3.111995615
  10  H       1.00    0.000000000   -0.003310834    5.494331906
  11  F       9.00    0.000000000   -4.430843488   -1.760200572
  12  H       1.00    0.000000000   -4.086521772    3.125620340

 Bond lengths in Bohr (Angstrom)

 1-2  2.537720308  2-4  2.627246464  2-5  2.626825820  3-6  2.639402588  3-7  2.626825820
     ( 1.342903750)     ( 1.390278951)     ( 1.390056356)     ( 1.396711695)     ( 1.390056356)

  3-12  2.042412606   4- 7  2.627246464   4- 8  2.041395993   5- 6  2.639402588   5- 9  2.042412607
       ( 1.080798203)       ( 1.390278951)       ( 1.080260234)       ( 1.396711695)       ( 1.080798203)

  6-10  2.045017889   7-11  2.537720308
       ( 1.082176859)       ( 1.342903750)

 Bond angles

  1-2-4  118.21673731   1-2-5  118.95829316   2-4-7  116.81338375   2-4-8  121.59330813

  2- 5- 6  118.39585987   2- 5- 9  119.43757922   3- 6- 5  120.74495744   3- 6-10  119.62752128

  3- 7- 4  122.82496953   3- 7-11  118.95829316   4- 2- 5  122.82496954   4- 7-11  118.21673731

  5- 6-10  119.62752128   6- 3- 7  118.39585987   6- 3-12  121.59360312   6- 5- 9  122.16656091

  7- 3-12  120.01053701   7- 4- 8  121.59330812

 NUCLEAR CHARGE:                   58
 NUMBER OF PRIMITIVE AOS:         244
 NUMBER OF SYMMETRY AOS:          236
 NUMBER OF CONTRACTIONS:          132   (  96A'  +  36A"  )
 NUMBER OF CORE ORBITALS:           8   (   8A'  +   0A"  )
 NUMBER OF VALENCE ORBITALS:       36   (  28A'  +   8A"  )


 NUCLEAR REPULSION ENERGY  342.41832940


 Eigenvalues of metric

         1 0.394E-03 0.120E-02 0.168E-02 0.265E-02 0.304E-02 0.317E-02 0.125E-01 0.130E-01
         2 0.413E-01 0.906E-01 0.101E+00 0.162E+00 0.166E+00 0.185E+00 0.190E+00 0.214E+00


 Contracted 2-electron integrals neglected if value below      1.0D-16
 AO integral compression algorithm  1   Integral accuracy      1.0D-16

     155.976 MB (compressed) written to integral file ( 89.6%)

     Node minimum: 155.976 MB, node maximum: 155.976 MB


 NUMBER OF SORTED TWO-ELECTRON INTEGRALS:   20366295.     BUFFER LENGTH:  32768
 NUMBER OF SEGMENTS:   2  SEGMENT LENGTH:   15994311      RECORD LENGTH: 524288

 Memory used in sort:      16.55 MW

 SORT1 READ    21748586. AND WROTE    19841072. INTEGRALS IN     57 RECORDS. CPU TIME:     0.27 SEC, REAL TIME:     0.37 SEC
 SORT2 READ    19841072. AND WROTE    20366295. INTEGRALS IN    595 RECORDS. CPU TIME:     0.20 SEC, REAL TIME:     0.26 SEC

 FILE SIZES:   FILE 1:   148.2 MBYTE,  FILE 4:   239.1 MBYTE,   TOTAL:    387.3 MBYTE

 OPERATOR DM      FOR CENTER  0  COORDINATES:    0.000000    0.000000    0.000000


 **********************************************************************************************************************************
 DATASETS  * FILE   NREC   LENGTH (MB)   RECORD NAMES
              1      19      148.31       500      610      700      900      950      970     1000      129      960     1100   
                                          VAR    BASINP    GEOM    SYMINP    ZMAT    AOBASIS   BASIS     P2S    ABASIS      S 
                                         1400     1410     1200     1210     1080     1600     1650     1300     1700   
                                           T        V       H0       H01     AOSYM     SMH    MOLCAS    ERIS     OPER   

 PROGRAMS   *        TOTAL       INT
 CPU TIMES  *         3.56      3.52
 REAL TIME  *         4.00 SEC
 DISK USED  *       544.15 MB      
 GA USED    *         0.00 MB       (max)       0.00 MB       (current)
 **********************************************************************************************************************************

1PROGRAM * RHF-SCF (CLOSED SHELL)       Authors: W. Meyer, H.-J. Werner


 NUMBER OF ELECTRONS:      29+   29-
 CONVERGENCE THRESHOLDS:    1.00E-10 (Density)    1.00E-13 (Energy)
 MAX. NUMBER OF ITERATIONS:      200
 INTERPOLATION TYPE:            DIIS
 INTERPOLATION STEPS:              2 (START)      1 (STEP)
 LEVEL SHIFTS:                  0.00 (CLOSED)  0.00 (OPEN) 



 Orbital guess generated from atomic densities. Full valence occupancy:   36   8

 Molecular orbital dump at record        2100.2

 Initial alpha occupancy:  24   5
 Initial beta  occupancy:  24   5
 Wave function symmetry:    1

 ITERATION    DDIFF          GRAD             ENERGY        2-EL.EN.            DIPOLE MOMENTS         DIIS
    1      0.000D+00      0.000D+00      -428.34391410    993.177380    0.00000    0.00038    0.47460    0
    2      0.000D+00      0.778D-02      -428.41800539    992.715928    0.00000    0.00023    0.92336    1
    3      0.159D-01      0.354D-02      -428.43188758    993.047013    0.00000    0.00020    0.61924    2
    4      0.507D-02      0.937D-03      -428.43344617    993.105211    0.00000    0.00029    0.73316    3
    5      0.189D-02      0.284D-03      -428.43358153    993.069599    0.00000    0.00027    0.69976    4
    6      0.479D-03      0.591D-04      -428.43358923    993.078824    0.00000    0.00029    0.70416    5
    7      0.126D-03      0.179D-04      -428.43359028    993.082179    0.00000    0.00029    0.70250    6
    8      0.428D-04      0.640D-05      -428.43359041    993.081522    0.00000    0.00029    0.70293    7
    9      0.142D-04      0.292D-05      -428.43359045    993.081906    0.00000    0.00029    0.70265    8
   10      0.777D-05      0.112D-05      -428.43359045    993.082477    0.00000    0.00030    0.70272    8
   11      0.350D-05      0.628D-06      -428.43359046    993.082386    0.00000    0.00029    0.70269    8
   12      0.215D-05      0.248D-06      -428.43359046    993.082483    0.00000    0.00030    0.70270    8
   13      0.122D-05      0.418D-07      -428.43359046    993.082510    0.00000    0.00030    0.70270    8
   14      0.136D-06      0.159D-07      -428.43359046    993.082504    0.00000    0.00030    0.70270    9
   15      0.536D-07      0.372D-08      -428.43359046    993.082504    0.00000    0.00030    0.70270    9
   16      0.112D-07      0.144D-08      -428.43359046    993.082505    0.00000    0.00030    0.70270    9
   17      0.445D-08      0.541D-09      -428.43359046    993.082505    0.00000    0.00030    0.70270    8
   18      0.159D-08      0.115D-09      -428.43359046    993.082505    0.00000    0.00030    0.70270    7
   19      0.291D-09      0.427D-10      -428.43359046    993.082505    0.00000    0.00030    0.70270    7
   20      0.103D-09      0.152D-10      -428.43359046    993.082505    0.00000    0.00030    0.70270    8
   21      0.293D-10      0.451D-11      -428.43359046    993.082505    0.00000    0.00030    0.70270    8
   22      0.976D-11      0.217D-11      -428.43359046    993.082505    0.00000    0.00030    0.70270    8
   23      0.603D-11      0.904D-12      -428.43359046    993.082505    0.00000    0.00030    0.70270    0

 Final occupancy:  24   5

 !RHF STATE 1.1 Energy               -428.433590456041
 Nuclear energy                       342.41832940
 One-electron energy                -1267.39317219
 Two-electron energy                  496.54125233
 Virial quotient                       -1.00059709
 !RHF STATE 1.1 Dipole moment           0.00000000     0.00029522     0.70269808
 Dipole moment /Debye                   0.00000000     0.00075032     1.78596338

 Orbital energies:

         1.1          2.1          3.1          4.1          5.1          6.1          7.1          8.1          9.1         10.1
    -26.320686   -26.320630   -11.349530   -11.349356   -11.273010   -11.258981   -11.255782   -11.255695    -1.639372    -1.638768

        11.1         12.1         13.1         14.1         15.1         16.1         17.1         18.1         19.1         20.1
     -1.178965    -1.047191    -1.036539    -0.875210    -0.864890    -0.774543    -0.740747    -0.702908    -0.684633    -0.668200

        21.1         22.1         23.1         24.1         25.1         26.1
     -0.623922    -0.585899    -0.554451    -0.533505     0.179898     0.220934

         1.2          2.2          3.2          4.2          5.2          6.2          7.2
     -0.703775    -0.695725    -0.513738    -0.360515    -0.348168     0.113537     0.132119


 **********************************************************************************************************************************
 DATASETS  * FILE   NREC   LENGTH (MB)   RECORD NAMES
              1      19      148.31       500      610      700      900      950      970     1000      129      960     1100   
                                          VAR    BASINP    GEOM    SYMINP    ZMAT    AOBASIS   BASIS     P2S    ABASIS      S 
                                         1400     1410     1200     1210     1080     1600     1650     1300     1700   
                                           T        V       H0       H01     AOSYM     SMH    MOLCAS    ERIS     OPER   

              2       3        0.68       700     1000     2100   
                                         GEOM     BASIS     RHF  

 PROGRAMS   *        TOTAL       RHF       INT
 CPU TIMES  *         5.93      2.37      3.52
 REAL TIME  *         6.68 SEC
 DISK USED  *       544.15 MB      
 GA USED    *         0.00 MB       (max)       0.00 MB       (current)
 **********************************************************************************************************************************


1PROGRAM * CCSD (Closed-shell coupled cluster)     Authors: C. Hampel, H.-J. Werner, 1991, M. Deegan, P.J. Knowles, 1992


 Convergence thresholds:  THRVAR = 1.00D-08  THRDEN = 1.00D-12

 CCSD(T)     terms to be evaluated (factor= 1.000)


 Number of core orbitals:           8 (   8   0 )
 Number of closed-shell orbitals:  21 (  16   5 )
 Number of external orbitals:     103 (  72  31 )

 Molecular orbitals read from record     2100.2  Type=RHF/CANONICAL (state 1.1)

 Number of N-1 electron functions:              21
 Number of N-2 electron functions:             231
 Number of singly external CSFs:              1307
 Number of doubly external CSFs:           1221574
 Total number of CSFs:                     1222882

 Length of J-op  integral file:               0.00 MB
 Length of K-op  integral file:               0.76 MB
 Length of 3-ext integral record:             0.00 MB

 Memory could be reduced to 16.61 Mwords without degradation in triples

 Integral transformation finished. Total CPU:   0.77 sec, npass=  1  Memory used:   9.88 MW

 Reference energy:                   -428.43359046

 MP2 singlet pair energy:              -0.67262460
 MP2 triplet pair energy:              -0.46571586
 MP2 correlation energy:               -1.13834046
 MP2 total energy:                   -429.57193092

 SCS-MP2 correlation energy:           -1.09692828   (PS=  1.200000  PT=  0.333333)
 SCS-MP2 total energy:               -429.53051873

 ITER.      SQ.NORM     CORR.ENERGY   TOTAL ENERGY   ENERGY CHANGE        DEN1      VAR(S)    VAR(P)  DIIS     TIME
   1      1.36209534    -1.16809051  -429.60168096    -0.02975005     0.00048188  0.67D-02  0.73D-02  1  1     3.33
   2      1.38856073    -1.17162369  -429.60521415    -0.00353318    -0.02699555  0.13D-03  0.11D-02  2  2     5.95
   3      1.39935628    -1.17222528  -429.60581574    -0.00060159    -0.00538110  0.86D-04  0.10D-03  3  3     8.56
   4      1.40338778    -1.17215086  -429.60574131     0.00007442    -0.00142384  0.48D-05  0.20D-04  4  4    11.18
   5      1.40522887    -1.17218140  -429.60577185    -0.00003054    -0.00045097  0.91D-06  0.22D-05  5  5    13.79
   6      1.40570485    -1.17218714  -429.60577760    -0.00000574    -0.00006801  0.12D-06  0.24D-06  6  6    16.43
   7      1.40579192    -1.17218211  -429.60577257     0.00000503     0.00000027  0.28D-07  0.22D-07  6  1    19.04
   8      1.40581685    -1.17218324  -429.60577369    -0.00000112    -0.00000754  0.61D-08  0.30D-08  6  2    21.68
   9      1.40581815    -1.17218390  -429.60577435    -0.00000066     0.00000229  0.17D-08  0.34D-09  6  3    24.31
  10      1.40582051    -1.17218367  -429.60577412     0.00000023    -0.00000121  0.38D-09  0.75D-10  6  4    26.95
  11      1.40582057    -1.17218390  -429.60577436    -0.00000024     0.00000032  0.46D-10  0.20D-10  6  5    29.59
  12      1.40582076    -1.17218389  -429.60577434     0.00000002    -0.00000007  0.11D-10  0.24D-11  6  6    32.22
  13      1.40582076    -1.17218391  -429.60577436    -0.00000002     0.00000005  0.57D-12  0.56D-12  6  1    34.84
  14      1.40582075    -1.17218391  -429.60577437    -0.00000001     0.00000002  0.15D-12  0.86D-13  6  2    37.48
  15      1.40582075    -1.17218391  -429.60577437     0.00000000     0.00000000  0.40D-13  0.14D-13  6  3    40.13
  16      1.40582075    -1.17218391  -429.60577437    -0.00000000     0.00000000  0.63D-14  0.42D-14  6  4    42.76
  17      1.40582075    -1.17218391  -429.60577437    -0.00000000    -0.00000000  0.16D-14  0.72D-15  6  5    45.40
  18      1.40582075    -1.17218391  -429.60577437    -0.00000000    -0.00000000  0.22D-15  0.11D-15  6  6    48.03
  19      1.40582075    -1.17218391  -429.60577437    -0.00000000    -0.00000000  0.33D-16  0.23D-16  6  1    50.67
  20      1.40582075    -1.17218391  -429.60577437     0.00000000    -0.00000000  0.13D-16  0.31D-17  6  2    53.30
  21      1.40582075    -1.17218391  -429.60577437    -0.00000000    -0.00000000  0.17D-17  0.74D-18  6  3    55.93
  22      1.40582075    -1.17218391  -429.60577437    -0.00000000    -0.00000000  0.56D-18  0.17D-18  6  4    58.56
  23      1.40582075    -1.17218391  -429.60577437     0.00000000    -0.00000000  0.13D-18  0.35D-19  6  5    61.19
  24      1.40582075    -1.17218391  -429.60577437    -0.00000000    -0.00000000  0.24D-19  0.91D-20  6  6    63.82
  25      1.40582075    -1.17218391  -429.60577437    -0.00000000     0.00000000  0.81D-20  0.28D-20  6  1    66.45

 Norm of t1 vector:      0.10828702      S-energy:     0.00000000      T1 diagnostic:  0.01181508
                                                                       D1 diagnostic:  0.03166832

 Doubles amplitudes (print threshold =  0.500E-01):

         I         J         SYM. A    SYM. B    A         B      T(IJ, AB)

        20        20         2         2         1         1     -0.08690374
        21        20         2         2         1         2      0.05126398
        21        21         2         2         2         2     -0.08404796


 Total CPU time for triples:     41.47 sec


 RESULTS
 =======

  Reference energy                   -428.433590456044
  CCSD singlet pair energy             -0.756704606638
  CCSD triplet pair energy             -0.415479307528
  CCSD correlation energy              -1.172183914165

  Triples (T) contribution             -0.043063492630
  Total correlation energy             -1.215247406796

  CCSD total energy                  -429.605774370209
  CCSD[T] energy                     -429.650837628534
  CCSD-T energy                      -429.648113526104
 !CCSD(T) total energy               -429.648837862839

 Timing summary (sec):

 STEP                 CPU(USER)    SYS     CPU(TOT)    WALL
 Transformation          0.81      0.12      0.93      0.92
 CCSD iterations        65.65      1.74     67.39     67.54
 Triples                41.47      1.35     42.82     42.84

 Program statistics:

 Available memory in ccsd:               999998136
 Min. memory needed in ccsd:               3240252
 Max. memory used in ccsd:                 4334402
 Max. memory used in cckext:               4782293 (25 integral passes)



 **********************************************************************************************************************************
 DATASETS  * FILE   NREC   LENGTH (MB)   RECORD NAMES
              1      20      222.56       500      610      700      900      950      970     1000      129      960     1100   
                                          VAR    BASINP    GEOM    SYMINP    ZMAT    AOBASIS   BASIS     P2S    ABASIS      S 
                                         1400     1410     1200     1210     1080     1600     1650     1300     1700     1380   
                                           T        V       H0       H01     AOSYM     SMH    MOLCAS    ERIS     OPER     JKOP   

              2       3        0.68       700     1000     2100   
                                         GEOM     BASIS     RHF  

 PROGRAMS   *        TOTAL   CCSD(T)       RHF       INT
 CPU TIMES  *       113.86    107.93      2.37      3.52
 REAL TIME  *       118.01 SEC
 DISK USED  *       591.54 MB      
 GA USED    *         0.00 MB       (max)       0.00 MB       (current)
 **********************************************************************************************************************************

        CCSD(T)         RHF-SCF 
   -429.64883786   -428.43359046
 **********************************************************************************************************************************
 Variable memory released
