
 Primary working directories    : /tmp/943448.281.gen6.q
 Secondary working directories  : /tmp/943448.281.gen6.q
 Wavefunction directory         : /home/vulcan/mel64643/wfu/
 Main file repository           : /tmp/943448.281.gen6.q/

 ARCHNAME  : Linux/x86_64
 FC        : /opt/intel/compilers_and_libraries_2016.1.150/linux/bin/intel64/ifort
 FCVERSION : 16.0.1
 BLASLIB   : -mkl
 id        : ccgc

 Nodes     nprocs
 n084         1
 ga_uses_ma=false, calling ma_init with nominal heap.
 GA-space will be limited to   8.0 MW (determined by -G option)

 Using customized tuning parameters: mindgm=10; mindgv=16; mindgc=4; mindgr=1; noblas=0; mincuda=1000; minvec=7
 default implementation of scratch files=df  

 ***,Optimization of nh3_nitrosmethane
 memory,1000,m
 gthresh,energy=1.0d-12,orbital=1.0d-10,oneint=1.0d-16,twoint=1.0d-16,optgrad=1.0d-6,compress=1.0d-13
 geomtyp=xyz
 
 bohr
 geometry = {
  N   -5.2225505713   -0.1842393273    0.0003800664
  H   -6.2970917958    0.2306113075   -1.5338286157
  H   -3.7582640457    1.0589108016    0.0000098881
  H   -6.2967009584    0.2310646877    1.5347397679
  H   -0.9190763118   -2.4004799362   -0.0044543413
  H    1.8810624927   -3.4442491403   -1.6700026282
  H    1.8824840485   -3.4261672691    1.6699136942
  C    1.1333134970   -2.4694325576   -0.0049544863
  N    2.2626889374    0.0988530141    0.0042475158
  O    0.6982531975    1.7821854284    0.0039491389
 }
 
 basis=aug-cc-pvdz
 {rhf;maxit,200}
 {ccsd(t);maxit,200}

 Variables initialized (661), CPU time= 0.01 sec
 Commands  initialized (458), CPU time= 0.00 sec, 486 directives.
 Default parameters read. Elapsed time= 0.04 sec

 Checking input...
 Passed
1


                                         ***  PROGRAM SYSTEM MOLPRO  ***
                         Copyright, University College Cardiff Consultants Limited, 2008

                                    Version 2010.1 linked May 16 2016 07:17:05


 **********************************************************************************************************************************
 LABEL *   Optimization of nh3_nitrosmethane                                             
 Linux-4.4.3/n084(x86_64) 64 bit mpp version                                             DATE: 26-Oct-23          TIME: 13:04:48  
 **********************************************************************************************************************************

 SHA1:             9e8077add272b0f3cad6f7df79ec5211205f459d
 **********************************************************************************************************************************

 THRESHOLDS:

 ZERO    =  1.00D-12  ONEINT  =  1.00D-16  TWOINT  =  1.00D-16  PREFAC  =  1.00D-14  LOCALI  =  1.00D-09  EORDER  =  1.00D-04
 ENERGY  =  1.00D-12  ETEST   =  0.00D+00  EDENS   =  0.00D+00  THRDEDEF=  1.00D-06  GRADIENT=  1.00D-02  STEP    =  1.00D-03
 ORBITAL =  1.00D-10  CIVEC   =  1.00D-05  COEFF   =  1.00D-04  PRINTCI =  5.00D-02  PUNCHCI =  9.90D+01  OPTGRAD =  1.00D-06
 OPTENERG=  1.00D-06  OPTSTEP =  3.00D-04  THRGRAD =  1.00D-10  COMPRESS=  1.00D-13  VARMIN  =  1.00D-07  VARMAX  =  1.00D-03
 THRDOUB =  0.00D+00  THRDIV  =  1.00D-05  THRRED  =  1.00D-07  THRPSP  =  1.00D+00  THRDC   =  1.00D-10  THRCS   =  1.00D-10
 THRNRM  =  1.00D-08  THREQ   =  0.00D+00  THRDE   =  1.00D+00  THRREF  =  1.00D-05  SPARFAC =  1.00D+00  THRDLP  =  1.00D-07
 THRDIA  =  1.00D-10  THRDLS  =  1.00D-07  THRGPS  =  0.00D+00  THRKEX  =  0.00D+00  THRDIS  =  2.00D-01  THRVAR  =  1.00D-10
 THRLOC  =  1.00D-06  THRGAP  =  1.00D-06  THRLOCT = -1.00D+00  THRGAPT = -1.00D+00  THRORB  =  1.00D-06  THRMLTP =  0.00D+00
 THRCPQCI=  1.00D-10  KEXTA   =  0.00D+00  THRCOARS=  0.00D+00  SYMTOL  =  1.00D-06  GRADTOL =  1.00D-06  THROVL  =  1.00D-08
 THRORTH =  1.00D-08  GRID    =  1.00D-06  GRIDMAX =  1.00D-03  DTMAX   =  0.00D+00

 SETTING GEOMTYP        =    XYZ
 ZUNIT=BOHR
 

 Variable memory set to 1000000000 words,  buffer space   230000 words

 SETTING BASIS          =    AUG-CC-PVDZ


 Recomputing integrals since basis changed


 Using spherical harmonics

 Library entry N      S aug-cc-pVDZ          selected for orbital group  1
 Library entry N      P aug-cc-pVDZ          selected for orbital group  1
 Library entry N      D aug-cc-pVDZ          selected for orbital group  1
 Library entry H      S aug-cc-pVDZ          selected for orbital group  2
 Library entry H      P aug-cc-pVDZ          selected for orbital group  2
 Library entry C      S aug-cc-pVDZ          selected for orbital group  3
 Library entry C      P aug-cc-pVDZ          selected for orbital group  3
 Library entry C      D aug-cc-pVDZ          selected for orbital group  3
 Library entry O      S aug-cc-pVDZ          selected for orbital group  5
 Library entry O      P aug-cc-pVDZ          selected for orbital group  5
 Library entry O      D aug-cc-pVDZ          selected for orbital group  5

1PROGRAM * SEWARD (Integral evaluation for generally contracted gaussian basis sets)     Author: Roland Lindh, 1990

 Geometry written to block  1 of record 700


 Point group  C1  



 ATOMIC COORDINATES

 NR  ATOM    CHARGE       X              Y              Z

   1  N       7.00   -5.222550571   -0.184239327    0.000380066
   2  H       1.00   -6.297091796    0.230611308   -1.533828616
   3  H       1.00   -3.758264046    1.058910802    0.000009888
   4  H       1.00   -6.296700958    0.231064688    1.534739768
   5  H       1.00   -0.919076312   -2.400479936   -0.004454341
   6  H       1.00    1.881062493   -3.444249140   -1.670002628
   7  H       1.00    1.882484049   -3.426167269    1.669913694
   8  C       6.00    1.133313497   -2.469432558   -0.004954486
   9  N       7.00    2.262688937    0.098853014    0.004247516
  10  O       8.00    0.698253198    1.782185428    0.003949139

 Bond lengths in Bohr (Angstrom)

 1-2  1.918472354  1-3  1.920822066  1-4  1.918472354  5-8  2.053547818  6-8  2.069246540
     ( 1.015211846)     ( 1.016455260)     ( 1.015211846)     ( 1.086690703)     ( 1.094998109)

  7- 8  2.069246541   8- 9  2.805648649   9-10  2.298057286
       ( 1.094998109)       ( 1.484685321)       ( 1.216079541)

 Bond angles

  2-1-3  106.67095379   2-1-4  106.21107417   3-1-4  106.67095379   5-8-6  112.15870101

  5-8-7  112.15870613   5-8-9  111.81259324   6-8-7  107.61715626   6-8-9  106.76333338

  7- 8- 9  105.95305144   8- 9-10  113.35946296

 NUCLEAR CHARGE:                   34
 NUMBER OF PRIMITIVE AOS:         214
 NUMBER OF SYMMETRY AOS:          206
 NUMBER OF CONTRACTIONS:          146   ( 146A   )
 NUMBER OF CORE ORBITALS:           4   (   4A   )
 NUMBER OF VALENCE ORBITALS:       22   (  22A   )


 NUCLEAR REPULSION ENERGY  117.40821481


 Eigenvalues of metric

         1 0.323E-03 0.516E-03 0.621E-03 0.678E-03 0.106E-02 0.117E-02 0.126E-02 0.186E-02


 Contracted 2-electron integrals neglected if value below      1.0D-16
 AO integral compression algorithm  1   Integral accuracy      1.0D-16

     492.831 MB (compressed) written to integral file ( 91.9%)

     Node minimum: 492.831 MB, node maximum: 492.831 MB


 NUMBER OF SORTED TWO-ELECTRON INTEGRALS:   57582546.     BUFFER LENGTH:  32768
 NUMBER OF SEGMENTS:   4  SEGMENT LENGTH:   15999503      RECORD LENGTH: 524288

 Memory used in sort:      16.56 MW

 SORT1 READ    67015859. AND WROTE    57259082. INTEGRALS IN    166 RECORDS. CPU TIME:     0.59 SEC, REAL TIME:     0.92 SEC
 SORT2 READ    57259082. AND WROTE    57582546. INTEGRALS IN   1880 RECORDS. CPU TIME:     0.41 SEC, REAL TIME:     0.63 SEC

 FILE SIZES:   FILE 1:   432.9 MBYTE,  FILE 4:   696.3 MBYTE,   TOTAL:   1129.2 MBYTE

 OPERATOR DM      FOR CENTER  0  COORDINATES:    0.000000    0.000000    0.000000


 **********************************************************************************************************************************
 DATASETS  * FILE   NREC   LENGTH (MB)   RECORD NAMES
              1      19      433.16       500      610      700      900      950      970     1000      129      960     1100   
                                          VAR    BASINP    GEOM    SYMINP    ZMAT    AOBASIS   BASIS     P2S    ABASIS      S 
                                         1400     1410     1200     1210     1080     1600     1650     1300     1700   
                                           T        V       H0       H01     AOSYM     SMH    MOLCAS    ERIS     OPER   

 PROGRAMS   *        TOTAL       INT
 CPU TIMES  *         2.99      2.95
 REAL TIME  *         3.91 SEC
 DISK USED  *         1.62 GB      
 GA USED    *         0.00 MB       (max)       0.00 MB       (current)
 **********************************************************************************************************************************

1PROGRAM * RHF-SCF (CLOSED SHELL)       Authors: W. Meyer, H.-J. Werner


 NUMBER OF ELECTRONS:      17+   17-    SPACE SYMMETRY=1    SPIN SYMMETRY: Singlet 
 CONVERGENCE THRESHOLDS:    1.00E-10 (Density)    1.00E-13 (Energy)
 MAX. NUMBER OF ITERATIONS:      200
 INTERPOLATION TYPE:            DIIS
 INTERPOLATION STEPS:              2 (START)      1 (STEP)
 LEVEL SHIFTS:                  0.00 (CLOSED)  0.00 (OPEN) 



 Orbital guess generated from atomic densities. Full valence occupancy:   26

 Molecular orbital dump at record        2100.2

 ITERATION    DDIFF          GRAD             ENERGY        2-EL.EN.            DIPOLE MOMENTS         DIIS
    1      0.000D+00      0.000D+00      -224.96614160    393.131075    0.07598   -0.58143   -0.00135    0
    2      0.000D+00      0.594D-02      -225.02699203    392.744132   -0.57498   -0.38645   -0.00419    1
    3      0.111D-01      0.415D-02      -225.06087994    393.296782   -0.23129   -0.56361   -0.00334    2
    4      0.480D-02      0.830D-03      -225.06314189    393.131696   -0.30957   -0.46597   -0.00341    3
    5      0.121D-02      0.329D-03      -225.06356655    393.143137   -0.30734   -0.49565   -0.00350    4
    6      0.540D-03      0.799D-04      -225.06360948    393.170593   -0.31283   -0.49267   -0.00351    5
    7      0.180D-03      0.305D-04      -225.06361558    393.154387   -0.31446   -0.49272   -0.00351    6
    8      0.748D-04      0.124D-04      -225.06361658    393.160846   -0.31548   -0.49262   -0.00351    7
    9      0.285D-04      0.531D-05      -225.06361680    393.159715   -0.31576   -0.49232   -0.00351    8
   10      0.160D-04      0.163D-05      -225.06361682    393.159422   -0.31584   -0.49215   -0.00351    8
   11      0.483D-05      0.547D-06      -225.06361682    393.159529   -0.31586   -0.49206   -0.00351    8
   12      0.162D-05      0.168D-06      -225.06361682    393.159492   -0.31586   -0.49203   -0.00351    8
   13      0.582D-06      0.532D-07      -225.06361682    393.159486   -0.31586   -0.49203   -0.00351    8
   14      0.146D-06      0.278D-07      -225.06361682    393.159488   -0.31586   -0.49203   -0.00351    9
   15      0.692D-07      0.709D-08      -225.06361682    393.159488   -0.31586   -0.49203   -0.00351    8
   16      0.191D-07      0.529D-08      -225.06361682    393.159488   -0.31586   -0.49203   -0.00351    7
   17      0.332D-07      0.277D-08      -225.06361682    393.159488   -0.31586   -0.49203   -0.00351    8
   18      0.264D-07      0.875D-09      -225.06361682    393.159488   -0.31586   -0.49203   -0.00351    9
   19      0.639D-08      0.226D-09      -225.06361682    393.159488   -0.31586   -0.49203   -0.00351    9
   20      0.812D-09      0.718D-10      -225.06361682    393.159488   -0.31586   -0.49203   -0.00351    9
   21      0.207D-09      0.239D-10      -225.06361682    393.159488   -0.31586   -0.49203   -0.00351    9
   22      0.608D-10      0.847D-11      -225.06361682    393.159488   -0.31586   -0.49203   -0.00351    8
   23      0.233D-10      0.369D-11      -225.06361682    393.159488   -0.31586   -0.49203   -0.00351    9
   24      0.952D-11      0.161D-11      -225.06361682    393.159488   -0.31586   -0.49203   -0.00351    8
   25      0.372D-11      0.958D-12      -225.06361682    393.159488   -0.31586   -0.49203   -0.00351    9
   26      0.272D-11      0.283D-12      -225.06361682    393.159488   -0.31586   -0.49203   -0.00351    9
   27      0.176D-11      0.109D-12      -225.06361682    393.159488   -0.31586   -0.49203   -0.00351    9
   28      0.177D-11      0.913D-13      -225.06361682    393.159488   -0.31586   -0.49203   -0.00351    9
   29      0.128D-11      0.644D-13      -225.06361682    393.159488   -0.31586   -0.49203   -0.00351    9
   30      0.650D-12      0.646D-13      -225.06361682    393.159488   -0.31586   -0.49203   -0.00351    9
   31      0.498D-12      0.595D-13      -225.06361682    393.159488   -0.31586   -0.49203   -0.00351    9
   32      0.374D-12      0.552D-13      -225.06361682    393.159488   -0.31586   -0.49203   -0.00351    9
   33      0.332D-12      0.660D-13      -225.06361682    393.159488   -0.31586   -0.49203   -0.00351    9
   34      0.448D-12      0.557D-13      -225.06361682    393.159488   -0.31586   -0.49203   -0.00351    0

 Final occupancy:  17

 !RHF STATE 1.1 Energy               -225.063616820013
 Nuclear energy                       117.40821481
 One-electron energy                 -539.05157577
 Two-electron energy                  196.57974414
 Virial quotient                       -1.00217573
 !RHF STATE 1.1 Dipole moment          -0.31586232    -0.49202892    -0.00351441
 Dipole moment /Debye                  -0.80278935    -1.25053087    -0.00893214

 Orbital energies:

         1.1          2.1          3.1          4.1          5.1          6.1          7.1          8.1          9.1         10.1
    -20.640544   -15.714939   -15.548526   -11.270974    -1.515143    -1.140343    -1.076151    -0.862565    -0.691327    -0.676496

        11.1         12.1         13.1         14.1         15.1         16.1         17.1         18.1         19.1
     -0.635997    -0.624211    -0.623611    -0.556282    -0.534241    -0.428434    -0.406258     0.034987     0.046248


 **********************************************************************************************************************************
 DATASETS  * FILE   NREC   LENGTH (MB)   RECORD NAMES
              1      19      433.16       500      610      700      900      950      970     1000      129      960     1100   
                                          VAR    BASINP    GEOM    SYMINP    ZMAT    AOBASIS   BASIS     P2S    ABASIS      S 
                                         1400     1410     1200     1210     1080     1600     1650     1300     1700   
                                           T        V       H0       H01     AOSYM     SMH    MOLCAS    ERIS     OPER   

              2       3        0.86       700     1000     2100   
                                         GEOM     BASIS     RHF  

 PROGRAMS   *        TOTAL       RHF       INT
 CPU TIMES  *        14.90     11.91      2.95
 REAL TIME  *        17.28 SEC
 DISK USED  *         1.62 GB      
 GA USED    *         0.00 MB       (max)       0.00 MB       (current)
 **********************************************************************************************************************************


1PROGRAM * CCSD (Closed-shell coupled cluster)     Authors: C. Hampel, H.-J. Werner, 1991, M. Deegan, P.J. Knowles, 1992


 Convergence thresholds:  THRVAR = 1.00D-08  THRDEN = 1.00D-12

 CCSD(T)     terms to be evaluated (factor= 1.000)


 Number of core orbitals:           4 (   4 )
 Number of closed-shell orbitals:  13 (  13 )
 Number of external orbitals:     129 ( 129 )

 Molecular orbitals read from record     2100.2  Type=RHF/CANONICAL (state 1.1)

 Number of N-1 electron functions:              13
 Number of N-2 electron functions:              91
 Number of singly external CSFs:              1677
 Number of doubly external CSFs:           1407003
 Total number of CSFs:                     1408681

 Length of J-op  integral file:               0.00 MB
 Length of K-op  integral file:               1.50 MB
 Length of 3-ext integral record:             0.00 MB

 Memory could be reduced to 37.23 Mwords without degradation in triples

 Integral transformation finished. Total CPU:   1.94 sec, npass=  1  Memory used:  25.63 MW

 Reference energy:                   -225.06361682

 MP2 singlet pair energy:              -0.45130624
 MP2 triplet pair energy:              -0.26572648
 MP2 correlation energy:               -0.71703271
 MP2 total energy:                   -225.78064953

 SCS-MP2 correlation energy:           -0.70690840   (PS=  1.200000  PT=  0.333333)
 SCS-MP2 total energy:               -225.77052522

 ITER.      SQ.NORM     CORR.ENERGY   TOTAL ENERGY   ENERGY CHANGE        DEN1      VAR(S)    VAR(P)  DIIS     TIME
   1      1.24222429    -0.75078362  -225.81440044    -0.03375090    -0.00984492  0.53D-02  0.49D-02  1  1     5.98
   2      1.26408981    -0.75384225  -225.81745907    -0.00305864    -0.02116268  0.17D-03  0.87D-03  2  2    10.08
   3      1.27419716    -0.75455092  -225.81816774    -0.00070867    -0.00465306  0.12D-03  0.62D-04  3  3    14.18
   4      1.27838637    -0.75451532  -225.81813214     0.00003560    -0.00138557  0.11D-04  0.11D-04  4  4    18.29
   5      1.28006584    -0.75453334  -225.81815016    -0.00001802    -0.00036609  0.20D-05  0.17D-05  5  5    22.40
   6      1.28053313    -0.75450302  -225.81811984     0.00003032    -0.00005581  0.17D-06  0.34D-06  6  6    26.50
   7      1.28063860    -0.75449959  -225.81811641     0.00000343    -0.00000436  0.37D-07  0.92D-07  6  2    30.62
   8      1.28066573    -0.75450041  -225.81811723    -0.00000082    -0.00000065  0.53D-08  0.22D-07  6  1    34.74
   9      1.28067197    -0.75449976  -225.81811658     0.00000065     0.00000234  0.21D-08  0.34D-08  6  3    38.85
  10      1.28066661    -0.75450072  -225.81811754    -0.00000096     0.00000152  0.47D-09  0.64D-09  6  5    42.95
  11      1.28066601    -0.75450090  -225.81811772    -0.00000018     0.00000058  0.14D-09  0.68D-10  6  4    47.06
  12      1.28066504    -0.75450095  -225.81811777    -0.00000004     0.00000018  0.40D-10  0.13D-10  6  6    51.16
  13      1.28066438    -0.75450100  -225.81811782    -0.00000005     0.00000007  0.94D-11  0.35D-11  6  2    55.28
  14      1.28066387    -0.75450100  -225.81811782    -0.00000001     0.00000007  0.27D-11  0.81D-12  6  1    59.40
  15      1.28066357    -0.75450101  -225.81811783    -0.00000001     0.00000005  0.57D-12  0.22D-12  6  5    63.51
  16      1.28066341    -0.75450102  -225.81811784    -0.00000001     0.00000003  0.23D-12  0.47D-13  6  3    67.62
  17      1.28066336    -0.75450102  -225.81811784    -0.00000000     0.00000001  0.15D-12  0.20D-13  6  4    71.74
  18      1.28066334    -0.75450102  -225.81811784    -0.00000000     0.00000000  0.95D-13  0.12D-13  6  6    75.85
  19      1.28066334    -0.75450102  -225.81811784     0.00000000    -0.00000000  0.40D-13  0.65D-14  6  1    79.96
  20      1.28066334    -0.75450102  -225.81811784     0.00000000     0.00000000  0.84D-14  0.27D-14  6  2    84.07
  21      1.28066335    -0.75450102  -225.81811784     0.00000000    -0.00000000  0.19D-14  0.12D-14  6  3    88.19
  22      1.28066335    -0.75450102  -225.81811784    -0.00000000     0.00000000  0.30D-15  0.38D-15  6  5    92.31
  23      1.28066335    -0.75450102  -225.81811784     0.00000000    -0.00000000  0.45D-16  0.96D-16  6  6    96.42
  24      1.28066335    -0.75450102  -225.81811784     0.00000000    -0.00000000  0.40D-17  0.20D-16  6  4   100.53
  25      1.28066335    -0.75450102  -225.81811784     0.00000000    -0.00000000  0.15D-17  0.29D-17  6  1   104.65
  26      1.28066335    -0.75450102  -225.81811784     0.00000000    -0.00000000  0.76D-18  0.97D-18  6  2   108.76
  27      1.28066335    -0.75450102  -225.81811784     0.00000000    -0.00000000  0.37D-18  0.26D-18  6  3   112.86
  28      1.28066335    -0.75450102  -225.81811784     0.00000000    -0.00000000  0.22D-18  0.68D-19  6  5   116.97
  29      1.28066335    -0.75450102  -225.81811784     0.00000000    -0.00000000  0.15D-18  0.25D-19  6  6   121.09

 Norm of t1 vector:      0.11184361      S-energy:     0.00000000      T1 diagnostic:  0.01550992
                                                                       D1 diagnostic:  0.04953565

 Doubles amplitudes (print threshold =  0.500E-01):

         I         J         SYM. A    SYM. B    A         B      T(IJ, AB)

         7         7         1         1         7         7     -0.05270091
        11         7         1         1         7         7     -0.05300164
        11        11         1         1         7         7     -0.07487092


 Total CPU time for triples:     65.02 sec


 RESULTS
 =======

  Reference energy                   -225.063616820013
  CCSD singlet pair energy             -0.519379388125
  CCSD triplet pair energy             -0.235121635785
  CCSD correlation energy              -0.754501023909

  Triples (T) contribution             -0.026867401859
  Total correlation energy             -0.781368425768

  CCSD total energy                  -225.818117843922
  CCSD[T] energy                     -225.846614852139
  CCSD-T energy                      -225.844474565392
 !CCSD(T) total energy               -225.844985245780

 Timing summary (sec):

 STEP                 CPU(USER)    SYS     CPU(TOT)    WALL
 Transformation          2.00      0.20      2.20      2.20
 CCSD iterations       119.09      3.29    122.38    122.47
 Triples                65.02      1.22     66.24     66.25

 Program statistics:

 Available memory in ccsd:               999999224
 Min. memory needed in ccsd:               3720021
 Max. memory used in ccsd:                 4957023
 Max. memory used in cckext:               4136268 (29 integral passes)



 **********************************************************************************************************************************
 DATASETS  * FILE   NREC   LENGTH (MB)   RECORD NAMES
              1      20      569.44       500      610      700      900      950      970     1000      129      960     1100   
                                          VAR    BASINP    GEOM    SYMINP    ZMAT    AOBASIS   BASIS     P2S    ABASIS      S 
                                         1400     1410     1200     1210     1080     1600     1650     1300     1700     1380   
                                           T        V       H0       H01     AOSYM     SMH    MOLCAS    ERIS     OPER     JKOP   

              2       3        0.86       700     1000     2100   
                                         GEOM     BASIS     RHF  

 PROGRAMS   *        TOTAL   CCSD(T)       RHF       INT
 CPU TIMES  *       201.01    186.11     11.91      2.95
 REAL TIME  *       208.24 SEC
 DISK USED  *         1.62 GB      
 GA USED    *         0.00 MB       (max)       0.00 MB       (current)
 **********************************************************************************************************************************

        CCSD(T)         RHF-SCF 
   -225.84498525   -225.06361682
 **********************************************************************************************************************************
 Variable memory released
