
 Primary working directories    : /tmp/862144.357.gen4.q
 Secondary working directories  : /tmp/862144.357.gen4.q
 Wavefunction directory         : /home/vulcan/lo21740/wfu/
 Main file repository           : /tmp/862144.357.gen4.q/

 ARCHNAME  : Linux/x86_64
 FC        : /opt/intel/compilers_and_libraries_2016.1.150/linux/bin/intel64/ifort
 FCVERSION : 16.0.1
 BLASLIB   : -mkl
 id        : ccgc

 Nodes     nprocs
 n023         1
 ga_uses_ma=false, calling ma_init with nominal heap.
 GA-space will be limited to   8.0 MW (determined by -G option)

 Using customized tuning parameters: mindgm=10; mindgv=16; mindgc=4; mindgr=1; noblas=0; mincuda=1000; minvec=7
 default implementation of scratch files=df  

 ***,Optimization of formic acid
 memory,1000,m
 gthresh,energy=1.0d-12,orbital=1.0d-10,oneint=1.0d-16,twoint=1.0d-16,optgrad=1.0d-6,compress=1.0d-13
 geomtyp=xyz
 
 bohr
 geometry = {
  C   -3.5070671184   -0.8296398413    0.0000000000
  O   -3.0982657095    1.6231128679   -0.0000000000
  O   -1.8879689204   -2.4775248327    0.0000000000
  H   -5.5275380652   -1.2757776248    0.0000000000
  H   -1.2480350453    1.9517781996   -0.0000000000
  C    3.5070671184    0.8296398413   -0.0000000000
  O    3.0982657095   -1.6231128679   -0.0000000000
  O    1.8879689204    2.4775248327    0.0000000000
  H    5.5275380652    1.2757776248   -0.0000000000
  H    1.2480350453   -1.9517781996   -0.0000000000
 }
 
 basis=VDZ
 {rhf;maxit,200}
 {ccsd(t);maxit,200}

 Variables initialized (661), CPU time= 0.00 sec
 Commands  initialized (458), CPU time= 0.00 sec, 486 directives.
 Default parameters read. Elapsed time= 0.05 sec

 Checking input...
 Passed
1


                                         ***  PROGRAM SYSTEM MOLPRO  ***
                         Copyright, University College Cardiff Consultants Limited, 2008

                                    Version 2010.1 linked May 16 2016 07:17:05


 **********************************************************************************************************************************
 LABEL *   Optimization of formic acid                                                   
 Linux-4.4.3/n023(x86_64) 64 bit mpp version                                             DATE: 26-Apr-23          TIME: 18:21:36  
 **********************************************************************************************************************************

 SHA1:             9e8077add272b0f3cad6f7df79ec5211205f459d
 **********************************************************************************************************************************

 THRESHOLDS:

 ZERO    =  1.00D-12  ONEINT  =  1.00D-16  TWOINT  =  1.00D-16  PREFAC  =  1.00D-14  LOCALI  =  1.00D-09  EORDER  =  1.00D-04
 ENERGY  =  1.00D-12  ETEST   =  0.00D+00  EDENS   =  0.00D+00  THRDEDEF=  1.00D-06  GRADIENT=  1.00D-02  STEP    =  1.00D-03
 ORBITAL =  1.00D-10  CIVEC   =  1.00D-05  COEFF   =  1.00D-04  PRINTCI =  5.00D-02  PUNCHCI =  9.90D+01  OPTGRAD =  1.00D-06
 OPTENERG=  1.00D-06  OPTSTEP =  3.00D-04  THRGRAD =  1.00D-10  COMPRESS=  1.00D-13  VARMIN  =  1.00D-07  VARMAX  =  1.00D-03
 THRDOUB =  0.00D+00  THRDIV  =  1.00D-05  THRRED  =  1.00D-07  THRPSP  =  1.00D+00  THRDC   =  1.00D-10  THRCS   =  1.00D-10
 THRNRM  =  1.00D-08  THREQ   =  0.00D+00  THRDE   =  1.00D+00  THRREF  =  1.00D-05  SPARFAC =  1.00D+00  THRDLP  =  1.00D-07
 THRDIA  =  1.00D-10  THRDLS  =  1.00D-07  THRGPS  =  0.00D+00  THRKEX  =  0.00D+00  THRDIS  =  2.00D-01  THRVAR  =  1.00D-10
 THRLOC  =  1.00D-06  THRGAP  =  1.00D-06  THRLOCT = -1.00D+00  THRGAPT = -1.00D+00  THRORB  =  1.00D-06  THRMLTP =  0.00D+00
 THRCPQCI=  1.00D-10  KEXTA   =  0.00D+00  THRCOARS=  0.00D+00  SYMTOL  =  1.00D-06  GRADTOL =  1.00D-06  THROVL  =  1.00D-08
 THRORTH =  1.00D-08  GRID    =  1.00D-06  GRIDMAX =  1.00D-03  DTMAX   =  0.00D+00

 SETTING GEOMTYP        =    XYZ
 ZUNIT=BOHR
 

 Variable memory set to 1000000000 words,  buffer space   230000 words

 SETTING BASIS          =    VDZ


 Recomputing integrals since basis changed


 Using spherical harmonics

 Library entry C      S cc-pVDZ              selected for orbital group  1
 Library entry C      P cc-pVDZ              selected for orbital group  1
 Library entry C      D cc-pVDZ              selected for orbital group  1
 Library entry O      S cc-pVDZ              selected for orbital group  2
 Library entry O      P cc-pVDZ              selected for orbital group  2
 Library entry O      D cc-pVDZ              selected for orbital group  2
 Library entry H      S cc-pVDZ              selected for orbital group  3
 Library entry H      P cc-pVDZ              selected for orbital group  3

1PROGRAM * SEWARD (Integral evaluation for generally contracted gaussian basis sets)     Author: Roland Lindh, 1990

 Geometry written to block  1 of record 700


 Point group  C2h 



 ATOMIC COORDINATES

 NR  ATOM    CHARGE       X              Y              Z

   1  C       6.00   -3.507067118   -0.829639841    0.000000000
   2  C       6.00    3.507067118    0.829639841    0.000000000
   3  O       8.00   -3.098265710    1.623112868    0.000000000
   4  O       8.00    3.098265710   -1.623112868    0.000000000
   5  O       8.00   -1.887968920   -2.477524833    0.000000000
   6  O       8.00    1.887968920    2.477524833    0.000000000
   7  H       1.00   -5.527538065   -1.275777625    0.000000000
   8  H       1.00    5.527538065    1.275777625    0.000000000
   9  H       1.00   -1.248035045    1.951778200    0.000000000
  10  H       1.00    1.248035045   -1.951778200    0.000000000

 Bond lengths in Bohr (Angstrom)

 1-3  2.486586907  1-5  2.310195645  1-7  2.069140345  2-4  2.486586907  2-6  2.310195645
     ( 1.315845119)     ( 1.222502884)     ( 1.094941913)     ( 1.315845119)     ( 1.222502884)

  2- 8  2.069140345   3- 9  1.879195150   4-10  1.879195150
       ( 1.094941913)       ( 0.994427245)       ( 0.994427245)

 Bond angles

  1- 3- 9  109.53518945   2- 4-10  109.53518945   3- 1- 5  126.04231131   3- 1- 7  111.91414636

  4-2-6  126.04231131   4-2-8  111.91414636   5-1-7  122.04354233   6-2-8  122.04354233

 NUCLEAR CHARGE:                   48
 NUMBER OF PRIMITIVE AOS:         190
 NUMBER OF SYMMETRY AOS:          184
 NUMBER OF CONTRACTIONS:          104   (  38Ag  +  14Au  +  38Bu  +  14Bg  )
 NUMBER OF CORE ORBITALS:           6   (   3Ag  +   0Au  +   3Bu  +   0Bg  )
 NUMBER OF VALENCE ORBITALS:       28   (  11Ag  +   3Au  +  11Bu  +   3Bg  )


 NUCLEAR REPULSION ENERGY  235.43592838


 Eigenvalues of metric

         1 0.817E-02 0.138E-01 0.167E-01 0.299E-01 0.376E-01 0.443E-01 0.555E-01 0.935E-01
         2 0.115E+00 0.174E+00 0.194E+00 0.421E+00 0.480E+00 0.557E+00 0.674E+00 0.999E+00
         3 0.871E-02 0.141E-01 0.165E-01 0.307E-01 0.355E-01 0.441E-01 0.530E-01 0.963E-01
         4 0.116E+00 0.175E+00 0.191E+00 0.421E+00 0.479E+00 0.571E+00 0.652E+00 0.999E+00


 Contracted 2-electron integrals neglected if value below      1.0D-16
 AO integral compression algorithm  1   Integral accuracy      1.0D-16

     40.632 MB (compressed) written to integral file (100.0%)

     Node minimum: 40.632 MB, node maximum: 40.632 MB


 NUMBER OF SORTED TWO-ELECTRON INTEGRALS:    4024002.     BUFFER LENGTH:  32768
 NUMBER OF SEGMENTS:   1  SEGMENT LENGTH:    4024002      RECORD LENGTH: 524288

 Memory used in sort:       4.58 MW

 SORT1 READ     4964096. AND WROTE     4024002. INTEGRALS IN     12 RECORDS. CPU TIME:     0.07 SEC, REAL TIME:     0.11 SEC
 SORT2 READ     4024002. AND WROTE     4024002. INTEGRALS IN    155 RECORDS. CPU TIME:     0.09 SEC, REAL TIME:     0.11 SEC

 FILE SIZES:   FILE 1:    35.7 MBYTE,  FILE 4:    50.4 MBYTE,   TOTAL:     86.0 MBYTE

 OPERATOR DM      FOR CENTER  0  COORDINATES:    0.000000    0.000000    0.000000


 **********************************************************************************************************************************
 DATASETS  * FILE   NREC   LENGTH (MB)   RECORD NAMES
              1      19       35.70       500      610      700      900      950      970     1000      129      960     1100   
                                          VAR    BASINP    GEOM    SYMINP    ZMAT    AOBASIS   BASIS     P2S    ABASIS      S 
                                         1400     1410     1200     1210     1080     1600     1650     1300     1700   
                                           T        V       H0       H01     AOSYM     SMH    MOLCAS    ERIS     OPER   

 PROGRAMS   *        TOTAL       INT
 CPU TIMES  *         1.35      1.30
 REAL TIME  *         1.60 SEC
 DISK USED  *       127.44 MB      
 GA USED    *         0.00 MB       (max)       0.00 MB       (current)
 **********************************************************************************************************************************

1PROGRAM * RHF-SCF (CLOSED SHELL)       Authors: W. Meyer, H.-J. Werner


 NUMBER OF ELECTRONS:      24+   24-
 CONVERGENCE THRESHOLDS:    1.00E-10 (Density)    1.00E-13 (Energy)
 MAX. NUMBER OF ITERATIONS:      200
 INTERPOLATION TYPE:            DIIS
 INTERPOLATION STEPS:              2 (START)      1 (STEP)
 LEVEL SHIFTS:                  0.00 (CLOSED)  0.00 (OPEN) 



 Orbital guess generated from atomic densities. Full valence occupancy:   14   3  14   3

 Molecular orbital dump at record        2100.2

 Initial alpha occupancy:  10   2  10   2
 Initial beta  occupancy:  10   2  10   2
 Wave function symmetry:    1

 ITERATION    DDIFF          GRAD             ENERGY        2-EL.EN.            DIPOLE MOMENTS         DIIS
    1      0.000D+00      0.000D+00      -377.44957214    746.895783    0.00000    0.00000    0.00000    0
    2      0.000D+00      0.199D-01      -377.53741106    744.021644    0.00000    0.00000    0.00000    1
    3      0.392D-01      0.123D-01      -377.58435944    746.280508    0.00000    0.00000    0.00000    2
    4      0.143D-01      0.174D-02      -377.58585293    746.001645    0.00000    0.00000    0.00000    3
    5      0.278D-02      0.725D-03      -377.58611480    746.026638    0.00000    0.00000    0.00000    4
    6      0.115D-02      0.207D-03      -377.58616105    746.071050    0.00000    0.00000    0.00000    5
    7      0.397D-03      0.945D-04      -377.58617240    746.055857    0.00000    0.00000    0.00000    6
    8      0.237D-03      0.281D-04      -377.58617341    746.061067    0.00000    0.00000    0.00000    7
    9      0.740D-04      0.952D-05      -377.58617351    746.059614    0.00000    0.00000    0.00000    8
   10      0.258D-04      0.261D-05      -377.58617352    746.059783    0.00000    0.00000    0.00000    7
   11      0.727D-05      0.636D-06      -377.58617352    746.059728    0.00000    0.00000    0.00000    8
   12      0.169D-05      0.179D-06      -377.58617352    746.059749    0.00000    0.00000    0.00000    7
   13      0.466D-06      0.717D-07      -377.58617352    746.059737    0.00000    0.00000    0.00000    8
   14      0.135D-06      0.217D-07      -377.58617352    746.059740    0.00000    0.00000    0.00000    7
   15      0.555D-07      0.649D-08      -377.58617352    746.059740    0.00000    0.00000    0.00000    7
   16      0.115D-07      0.179D-08      -377.58617352    746.059740    0.00000    0.00000    0.00000    7
   17      0.365D-08      0.697D-09      -377.58617352    746.059740    0.00000    0.00000    0.00000    7
   18      0.138D-08      0.208D-09      -377.58617352    746.059740    0.00000    0.00000    0.00000    8
   19      0.507D-09      0.677D-10      -377.58617352    746.059740    0.00000    0.00000    0.00000    8
   20      0.167D-09      0.151D-10      -377.58617352    746.059740    0.00000    0.00000    0.00000    7
   21      0.402D-10      0.334D-11      -377.58617352    746.059740    0.00000    0.00000    0.00000    7
   22      0.896D-11      0.118D-11      -377.58617352    746.059740    0.00000    0.00000    0.00000    0

 Final occupancy:  10   2  10   2

 !RHF STATE 1.1 Energy               -377.586173515631
 Nuclear energy                       235.43592838
 One-electron energy                 -986.05197173
 Two-electron energy                  373.02986984
 Virial quotient                       -1.00124065
 !RHF STATE 1.1 Dipole moment           0.00000000     0.00000000     0.00000000
 Dipole moment /Debye                   0.00000000     0.00000000     0.00000000

 Orbital energies:

         1.1          2.1          3.1          4.1          5.1          6.1          7.1          8.1          9.1         10.1
    -20.613844   -20.575193   -11.412114    -1.482083    -1.369261    -0.914230    -0.727938    -0.688857    -0.615017    -0.489277

        11.1         12.1
      0.203925     0.290550

         1.2          2.2          3.2          4.2
     -0.638291    -0.487485     0.160848     0.632109

         1.3          2.3          3.3          4.3          5.3          6.3          7.3          8.3          9.3         10.3
    -20.613843   -20.575193   -11.412115    -1.469516    -1.383092    -0.878624    -0.762764    -0.719247    -0.573515    -0.467759

        11.3         12.3
      0.209553     0.315307

         1.4          2.4          3.4          4.4
     -0.628812    -0.498044     0.165869     0.658293


 **********************************************************************************************************************************
 DATASETS  * FILE   NREC   LENGTH (MB)   RECORD NAMES
              1      19       35.70       500      610      700      900      950      970     1000      129      960     1100   
                                          VAR    BASINP    GEOM    SYMINP    ZMAT    AOBASIS   BASIS     P2S    ABASIS      S 
                                         1400     1410     1200     1210     1080     1600     1650     1300     1700   
                                           T        V       H0       H01     AOSYM     SMH    MOLCAS    ERIS     OPER   

              2       3        0.49       700     1000     2100   
                                         GEOM     BASIS     RHF  

 PROGRAMS   *        TOTAL       RHF       INT
 CPU TIMES  *         1.68      0.33      1.30
 REAL TIME  *         2.02 SEC
 DISK USED  *       127.44 MB      
 GA USED    *         0.00 MB       (max)       0.00 MB       (current)
 **********************************************************************************************************************************


1PROGRAM * CCSD (Closed-shell coupled cluster)     Authors: C. Hampel, H.-J. Werner, 1991, M. Deegan, P.J. Knowles, 1992


 Convergence thresholds:  THRVAR = 1.00D-08  THRDEN = 1.00D-12

 CCSD(T)     terms to be evaluated (factor= 1.000)


 Number of core orbitals:           6 (   3   0   3   0 )
 Number of closed-shell orbitals:  18 (   7   2   7   2 )
 Number of external orbitals:      80 (  28  12  28  12 )

 Molecular orbitals read from record     2100.2  Type=RHF/CANONICAL (state 1.1)

 Number of N-1 electron functions:              18
 Number of N-2 electron functions:             171
 Number of singly external CSFs:               440
 Number of doubly external CSFs:            272720
 Total number of CSFs:                      273161

 Length of J-op  integral file:               0.00 MB
 Length of K-op  integral file:               0.26 MB
 Length of 3-ext integral record:             0.00 MB

 Memory could be reduced to 3.82 Mwords without degradation in triples

 Integral transformation finished. Total CPU:   0.14 sec, npass=  1  Memory used:   1.67 MW

 Reference energy:                   -377.58617352

 MP2 singlet pair energy:              -0.59904688
 MP2 triplet pair energy:              -0.40682341
 MP2 correlation energy:               -1.00587030
 MP2 total energy:                   -378.59204381

 SCS-MP2 correlation energy:           -0.97199083   (PS=  1.200000  PT=  0.333333)
 SCS-MP2 total energy:               -378.55816434

 ITER.      SQ.NORM     CORR.ENERGY   TOTAL ENERGY   ENERGY CHANGE        DEN1      VAR(S)    VAR(P)  DIIS     TIME
   1      1.28160419    -1.02614535  -378.61231886    -0.02027505     0.01047916  0.10D-01  0.55D-02  1  1     0.57
   2      1.30528311    -1.02802780  -378.61420131    -0.00188245    -0.02505381  0.25D-03  0.10D-02  2  2     1.02
   3      1.31831510    -1.02897853  -378.61515204    -0.00095073    -0.00595501  0.20D-03  0.42D-04  3  3     1.47
   4      1.32366197    -1.02874476  -378.61491827     0.00023377    -0.00175196  0.18D-04  0.71D-05  4  4     1.91
   5      1.32572843    -1.02865520  -378.61482871     0.00008956    -0.00045848  0.11D-05  0.68D-06  5  5     2.37
   6      1.32607229    -1.02863472  -378.61480823     0.00002048    -0.00001563  0.10D-06  0.60D-07  6  6     2.82
   7      1.32614094    -1.02862711  -378.61480062     0.00000761    -0.00000447  0.77D-08  0.88D-08  6  2     3.27
   8      1.32614414    -1.02862795  -378.61480147    -0.00000084     0.00000208  0.15D-08  0.88D-09  6  1     3.71
   9      1.32614490    -1.02862763  -378.61480114     0.00000032     0.00000091  0.31D-09  0.15D-09  6  4     4.16
  10      1.32614668    -1.02862747  -378.61480099     0.00000015    -0.00000061  0.87D-10  0.25D-10  6  3     4.61
  11      1.32614616    -1.02862760  -378.61480111    -0.00000012     0.00000025  0.20D-10  0.51D-11  6  5     5.06
  12      1.32614581    -1.02862761  -378.61480113    -0.00000002     0.00000005  0.27D-11  0.11D-11  6  6     5.51
  13      1.32614549    -1.02862765  -378.61480117    -0.00000004     0.00000013  0.30D-12  0.20D-12  6  1     5.96
  14      1.32614538    -1.02862766  -378.61480117    -0.00000000     0.00000002  0.28D-13  0.23D-13  6  2     6.41
  15      1.32614535    -1.02862766  -378.61480117    -0.00000000     0.00000001  0.58D-14  0.28D-14  6  4     6.86
  16      1.32614534    -1.02862766  -378.61480118    -0.00000000     0.00000000  0.86D-15  0.60D-15  6  5     7.31
  17      1.32614534    -1.02862766  -378.61480118    -0.00000000    -0.00000000  0.94D-16  0.53D-16  6  3     7.76
  18      1.32614534    -1.02862766  -378.61480118    -0.00000000     0.00000000  0.26D-16  0.13D-16  6  5     8.21
  19      1.32614534    -1.02862766  -378.61480118    -0.00000000     0.00000000  0.36D-17  0.18D-17  6  6     8.66
  20      1.32614534    -1.02862766  -378.61480118     0.00000000     0.00000000  0.61D-18  0.29D-18  6  1     9.11
  21      1.32614534    -1.02862766  -378.61480118    -0.00000000     0.00000000  0.15D-18  0.47D-19  6  2     9.56
  22      1.32614534    -1.02862766  -378.61480118     0.00000000    -0.00000000  0.34D-19  0.87D-20  6  4    10.01
  23      1.32614534    -1.02862766  -378.61480118     0.00000000    -0.00000000  0.54D-20  0.23D-20  6  3    10.47
  24      1.32614534    -1.02862766  -378.61480118     0.00000000    -0.00000000  0.66D-21  0.53D-21  6  6    10.91
  25      1.32614534    -1.02862766  -378.61480118     0.00000000    -0.00000000  0.11D-21  0.53D-22  6  5    11.35

 Norm of t1 vector:      0.15248831      S-energy:     0.00000000      T1 diagnostic:  0.01797092
                                                                       D1 diagnostic:  0.06497623

 Singles amplitudes (print threshold =  0.500E-01):

         I         SYM. A    A   T(IA)

         8         2         1      0.05942604
        17         4         1      0.06123381


 Total CPU time for triples:      5.99 sec


 RESULTS
 =======

  Reference energy                   -377.586173515631
  CCSD singlet pair energy             -0.670900069163
  CCSD triplet pair energy             -0.357727591396
  CCSD correlation energy              -1.028627660558

  Triples (T) contribution             -0.031897906375
  Total correlation energy             -1.060525566932

  CCSD total energy                  -378.614801176188
  CCSD[T] energy                     -378.649985436869
  CCSD-T energy                      -378.645619019461
 !CCSD(T) total energy               -378.646699082563

 Timing summary (sec):

 STEP                 CPU(USER)    SYS     CPU(TOT)    WALL
 Transformation          0.15      0.03      0.18      0.18
 CCSD iterations        11.20      0.42     11.62     11.68
 Triples                 5.99      0.18      6.17      6.17

 Program statistics:

 Available memory in ccsd:               999998604
 Min. memory needed in ccsd:                781956
 Max. memory used in ccsd:                 1028476
 Max. memory used in cckext:               1140120 (25 integral passes)



 **********************************************************************************************************************************
 DATASETS  * FILE   NREC   LENGTH (MB)   RECORD NAMES
              1      20       52.00       500      610      700      900      950      970     1000      129      960     1100   
                                          VAR    BASINP    GEOM    SYMINP    ZMAT    AOBASIS   BASIS     P2S    ABASIS      S 
                                         1400     1410     1200     1210     1080     1600     1650     1300     1700     1380   
                                           T        V       H0       H01     AOSYM     SMH    MOLCAS    ERIS     OPER     JKOP   

              2       3        0.49       700     1000     2100   
                                         GEOM     BASIS     RHF  

 PROGRAMS   *        TOTAL   CCSD(T)       RHF       INT
 CPU TIMES  *        19.04     17.35      0.33      1.30
 REAL TIME  *        20.09 SEC
 DISK USED  *       143.18 MB      
 GA USED    *         0.00 MB       (max)       0.00 MB       (current)
 **********************************************************************************************************************************

        CCSD(T)         RHF-SCF 
   -378.64669908   -377.58617352
 **********************************************************************************************************************************
 Variable memory released
