
 Primary working directories    : /tmp/944438.437.gen5.q
 Secondary working directories  : /tmp/944438.437.gen5.q
 Wavefunction directory         : /home/vulcan/mel64643/wfu/
 Main file repository           : /tmp/944438.437.gen5.q/

 ARCHNAME  : Linux/x86_64
 FC        : /opt/intel/compilers_and_libraries_2016.1.150/linux/bin/intel64/ifort
 FCVERSION : 16.0.1
 BLASLIB   : -mkl
 id        : ccgc

 Nodes     nprocs
 n073         1
 ga_uses_ma=false, calling ma_init with nominal heap.
 GA-space will be limited to   8.0 MW (determined by -G option)

 Using customized tuning parameters: mindgm=10; mindgv=16; mindgc=4; mindgr=1; noblas=0; mincuda=1000; minvec=7
 default implementation of scratch files=df  

 ***,Optimization of min3
 memory,1000,m
 gthresh,energy=1.0d-12,orbital=1.0d-10,oneint=1.0d-16,twoint=1.0d-16,optgrad=1.0d-6,compress=1.0d-13
 geomtyp=xyz
 
 
 
  bohr
  geometry = {
  C   -0.2899627781    2.4007109261   -2.1335055684
  C    0.7654712031   -0.0000608109   -0.8957741447
  C    0.1943329180   -0.0004511090    1.8324804843
  N   -0.2927683636   -0.0007738341    3.9760872290
  H    2.8261124589    0.0008108998   -1.0510568672
  C   -0.2879513101   -2.4015787654   -2.1337714882
  H   -2.3487906646   -2.4533588936   -1.9599503092
  H    0.4814245993   -4.0951637102   -1.2541125124
  H    0.1996328941   -2.4155844834   -4.1349179175
  H   -2.3393419890    2.4504661621   -1.9606489082
  H    0.1989761224    2.4153877856   -4.1402596716
  H    0.4801489394    4.0995958330   -1.2511902383
 }
 
 basis=cc-pvdz
 {rhf;maxit,200}
 {ccsd(t);maxit,200}

 Variables initialized (661), CPU time= 0.00 sec
 Commands  initialized (458), CPU time= 0.00 sec, 486 directives.
 Default parameters read. Elapsed time= 0.05 sec

 Checking input...
 Passed
1


                                         ***  PROGRAM SYSTEM MOLPRO  ***
                         Copyright, University College Cardiff Consultants Limited, 2008

                                    Version 2010.1 linked May 16 2016 07:17:05


 **********************************************************************************************************************************
 LABEL *   Optimization of min3                                                          
 Linux-4.4.3/n073(x86_64) 64 bit mpp version                                             DATE: 27-Oct-23          TIME: 11:04:19  
 **********************************************************************************************************************************

 SHA1:             9e8077add272b0f3cad6f7df79ec5211205f459d
 **********************************************************************************************************************************

 THRESHOLDS:

 ZERO    =  1.00D-12  ONEINT  =  1.00D-16  TWOINT  =  1.00D-16  PREFAC  =  1.00D-14  LOCALI  =  1.00D-09  EORDER  =  1.00D-04
 ENERGY  =  1.00D-12  ETEST   =  0.00D+00  EDENS   =  0.00D+00  THRDEDEF=  1.00D-06  GRADIENT=  1.00D-02  STEP    =  1.00D-03
 ORBITAL =  1.00D-10  CIVEC   =  1.00D-05  COEFF   =  1.00D-04  PRINTCI =  5.00D-02  PUNCHCI =  9.90D+01  OPTGRAD =  1.00D-06
 OPTENERG=  1.00D-06  OPTSTEP =  3.00D-04  THRGRAD =  1.00D-10  COMPRESS=  1.00D-13  VARMIN  =  1.00D-07  VARMAX  =  1.00D-03
 THRDOUB =  0.00D+00  THRDIV  =  1.00D-05  THRRED  =  1.00D-07  THRPSP  =  1.00D+00  THRDC   =  1.00D-10  THRCS   =  1.00D-10
 THRNRM  =  1.00D-08  THREQ   =  0.00D+00  THRDE   =  1.00D+00  THRREF  =  1.00D-05  SPARFAC =  1.00D+00  THRDLP  =  1.00D-07
 THRDIA  =  1.00D-10  THRDLS  =  1.00D-07  THRGPS  =  0.00D+00  THRKEX  =  0.00D+00  THRDIS  =  2.00D-01  THRVAR  =  1.00D-10
 THRLOC  =  1.00D-06  THRGAP  =  1.00D-06  THRLOCT = -1.00D+00  THRGAPT = -1.00D+00  THRORB  =  1.00D-06  THRMLTP =  0.00D+00
 THRCPQCI=  1.00D-10  KEXTA   =  0.00D+00  THRCOARS=  0.00D+00  SYMTOL  =  1.00D-06  GRADTOL =  1.00D-06  THROVL  =  1.00D-08
 THRORTH =  1.00D-08  GRID    =  1.00D-06  GRIDMAX =  1.00D-03  DTMAX   =  0.00D+00

 SETTING GEOMTYP        =    XYZ
 ZUNIT=BOHR
 

 Variable memory set to 1000000000 words,  buffer space   230000 words

 SETTING BASIS          =    CC-PVDZ


 Recomputing integrals since basis changed


 Using spherical harmonics

 Library entry C      S cc-pVDZ              selected for orbital group  1
 Library entry C      P cc-pVDZ              selected for orbital group  1
 Library entry C      D cc-pVDZ              selected for orbital group  1
 Library entry N      S cc-pVDZ              selected for orbital group  2
 Library entry N      P cc-pVDZ              selected for orbital group  2
 Library entry N      D cc-pVDZ              selected for orbital group  2
 Library entry H      S cc-pVDZ              selected for orbital group  3
 Library entry H      P cc-pVDZ              selected for orbital group  3

1PROGRAM * SEWARD (Integral evaluation for generally contracted gaussian basis sets)     Author: Roland Lindh, 1990

 Geometry written to block  1 of record 700


 Point group  C1  



 ATOMIC COORDINATES

 NR  ATOM    CHARGE       X              Y              Z

   1  C       6.00   -0.289962778    2.400710926   -2.133505568
   2  C       6.00    0.765471203   -0.000060811   -0.895774145
   3  C       6.00    0.194332918   -0.000451109    1.832480484
   4  N       7.00   -0.292768364   -0.000773834    3.976087229
   5  H       1.00    2.826112459    0.000810900   -1.051056867
   6  C       6.00   -0.287951310   -2.401578765   -2.133771488
   7  H       1.00   -2.348790665   -2.453358894   -1.959950309
   8  H       1.00    0.481424599   -4.095163710   -1.254112512
   9  H       1.00    0.199632894   -2.415584483   -4.134917918
  10  H       1.00   -2.339341989    2.450466162   -1.960648908
  11  H       1.00    0.198976122    2.415387786   -4.140259672
  12  H       1.00    0.480148939    4.099595833   -1.251190238

 Bond lengths in Bohr (Angstrom)

  1- 2  2.899935327   1-10  2.057257922   1-11  2.065511726   1-12  2.063434595   2- 3  2.787395274
       ( 1.534579682)       ( 1.088654005)       ( 1.093021730)       ( 1.091922560)       ( 1.475026051)

 2-5  2.066483939  2-6  2.899935327  3-4  2.198253315  6-7  2.068804928  6-8  2.057661092
     ( 1.093536203)     ( 1.534579683)     ( 1.163265554)     ( 1.094764418)     ( 1.088867354)

 6-9  2.059738223
     ( 1.089966524)

 Bond angles

  1- 2- 3  110.07805234   1- 2- 5  109.29915016   1- 2- 6  111.78757092   2- 1-10  110.28665519

  2- 1-11  109.53615476   2- 1-12  111.30134536   2- 3- 4  179.02148594   2- 6- 7  110.28665514

  2-6-8  111.30134632   2-6-9  109.53615385   3-2-5  106.13313282   3-2-6  110.07805233

  5-2-6  109.29915017   7-6-8  108.41810840   7-6-9  108.49789607   8-6-9  108.73761391

 10- 1-11  108.49789799  10- 1-12  108.41810665  11- 1-12  108.73761379

 NUCLEAR CHARGE:                   38
 NUMBER OF PRIMITIVE AOS:         184
 NUMBER OF SYMMETRY AOS:          179
 NUMBER OF CONTRACTIONS:          105   ( 105A   )
 NUMBER OF CORE ORBITALS:           5   (   5A   )
 NUMBER OF VALENCE ORBITALS:       27   (  27A   )


 NUCLEAR REPULSION ENERGY  158.94734301


 Eigenvalues of metric

         1 0.197E-02 0.463E-02 0.572E-02 0.601E-02 0.167E-01 0.195E-01 0.210E-01 0.265E-01


 Contracted 2-electron integrals neglected if value below      1.0D-16
 AO integral compression algorithm  1   Integral accuracy      1.0D-16

     129.761 MB (compressed) written to integral file ( 94.7%)

     Node minimum: 129.761 MB, node maximum: 129.761 MB


 NUMBER OF SORTED TWO-ELECTRON INTEGRALS:   15487395.     BUFFER LENGTH:  32768
 NUMBER OF SEGMENTS:   1  SEGMENT LENGTH:   15487395      RECORD LENGTH: 524288

 Memory used in sort:      16.04 MW

 SORT1 READ    17101285. AND WROTE    15442365. INTEGRALS IN     45 RECORDS. CPU TIME:     0.15 SEC, REAL TIME:     0.25 SEC
 SORT2 READ    15442365. AND WROTE    15487395. INTEGRALS IN    495 RECORDS. CPU TIME:     0.15 SEC, REAL TIME:     0.23 SEC

 FILE SIZES:   FILE 1:   120.5 MBYTE,  FILE 4:   188.8 MBYTE,   TOTAL:    309.3 MBYTE

 OPERATOR DM      FOR CENTER  0  COORDINATES:    0.000000    0.000000    0.000000


 **********************************************************************************************************************************
 DATASETS  * FILE   NREC   LENGTH (MB)   RECORD NAMES
              1      19      120.67       500      610      700      900      950      970     1000      129      960     1100   
                                          VAR    BASINP    GEOM    SYMINP    ZMAT    AOBASIS   BASIS     P2S    ABASIS      S 
                                         1400     1410     1200     1210     1080     1600     1650     1300     1700   
                                           T        V       H0       H01     AOSYM     SMH    MOLCAS    ERIS     OPER   

 PROGRAMS   *        TOTAL       INT
 CPU TIMES  *         1.94      1.90
 REAL TIME  *         2.45 SEC
 DISK USED  *       439.93 MB      
 GA USED    *         0.00 MB       (max)       0.00 MB       (current)
 **********************************************************************************************************************************

1PROGRAM * RHF-SCF (CLOSED SHELL)       Authors: W. Meyer, H.-J. Werner


 NUMBER OF ELECTRONS:      19+   19-    SPACE SYMMETRY=1    SPIN SYMMETRY: Singlet 
 CONVERGENCE THRESHOLDS:    1.00E-10 (Density)    1.00E-13 (Energy)
 MAX. NUMBER OF ITERATIONS:      200
 INTERPOLATION TYPE:            DIIS
 INTERPOLATION STEPS:              2 (START)      1 (STEP)
 LEVEL SHIFTS:                  0.00 (CLOSED)  0.00 (OPEN) 



 Orbital guess generated from atomic densities. Full valence occupancy:   32

 Molecular orbital dump at record        2100.2

 ITERATION    DDIFF          GRAD             ENERGY        2-EL.EN.            DIPOLE MOMENTS         DIIS
    1      0.000D+00      0.000D+00      -209.94371991    457.120290    0.48470    0.00137   -2.25213    0
    2      0.000D+00      0.590D-02      -209.98968785    456.675238    0.14893   -0.00025   -1.29398    1
    3      0.124D-01      0.414D-02      -210.01005510    456.359696    0.30533   -0.00024   -1.70284    2
    4      0.554D-02      0.106D-02      -210.01230229    456.686910    0.29207   -0.00035   -1.61478    3
    5      0.196D-02      0.235D-03      -210.01242031    456.527380    0.28570   -0.00042   -1.62604    4
    6      0.425D-03      0.580D-04      -210.01242969    456.546417    0.28594   -0.00043   -1.62413    5
    7      0.169D-03      0.160D-04      -210.01243024    456.544419    0.28630   -0.00043   -1.62544    6
    8      0.307D-04      0.501D-05      -210.01243030    456.544093    0.28617   -0.00043   -1.62555    7
    9      0.110D-04      0.106D-05      -210.01243030    456.544028    0.28620   -0.00043   -1.62555    7
   10      0.259D-05      0.364D-06      -210.01243030    456.544124    0.28620   -0.00043   -1.62557    7
   11      0.908D-06      0.188D-06      -210.01243030    456.544093    0.28620   -0.00043   -1.62557    7
   12      0.616D-06      0.889D-07      -210.01243030    456.544108    0.28620   -0.00043   -1.62557    7
   13      0.412D-06      0.242D-07      -210.01243030    456.544102    0.28619   -0.00043   -1.62557    8
   14      0.117D-06      0.497D-08      -210.01243030    456.544101    0.28620   -0.00043   -1.62557    8
   15      0.152D-07      0.217D-08      -210.01243030    456.544102    0.28620   -0.00043   -1.62557    8
   16      0.399D-08      0.501D-09      -210.01243030    456.544102    0.28620   -0.00043   -1.62557    8
   17      0.112D-08      0.102D-09      -210.01243030    456.544102    0.28620   -0.00043   -1.62557    8
   18      0.230D-09      0.273D-10      -210.01243030    456.544102    0.28620   -0.00043   -1.62557    7
   19      0.627D-10      0.668D-11      -210.01243030    456.544102    0.28620   -0.00043   -1.62557    7
   20      0.159D-10      0.234D-11      -210.01243030    456.544102    0.28620   -0.00043   -1.62557    7
   21      0.648D-11      0.930D-12      -210.01243030    456.544102    0.28620   -0.00043   -1.62557    7
   22      0.241D-11      0.395D-12      -210.01243030    456.544102    0.28620   -0.00043   -1.62557    7
   23      0.117D-11      0.195D-12      -210.01243030    456.544102    0.28620   -0.00043   -1.62557    7
   24      0.737D-12      0.892D-13      -210.01243030    456.544102    0.28620   -0.00043   -1.62557    8
   25      0.388D-12      0.442D-13      -210.01243030    456.544102    0.28620   -0.00043   -1.62557    0

 Final occupancy:  19

 !RHF STATE 1.1 Energy               -210.012430300510
 Nuclear energy                       158.94734301
 One-electron energy                 -597.23182435
 Two-electron energy                  228.27205104
 Virial quotient                       -1.00163542
 !RHF STATE 1.1 Dipole moment           0.28619508    -0.00042687    -1.62556920
 Dipole moment /Debye                   0.72738770    -0.00108491    -4.13151418

 Orbital energies:

         1.1          2.1          3.1          4.1          5.1          6.1          7.1          8.1          9.1         10.1
    -15.572451   -11.290191   -11.274622   -11.250218   -11.250195    -1.212555    -1.107750    -0.960743    -0.876655    -0.703469

        11.1         12.1         13.1         14.1         15.1         16.1         17.1         18.1         19.1         20.1
     -0.642903    -0.596934    -0.572434    -0.563778    -0.530680    -0.523454    -0.520272    -0.447286    -0.447272     0.155373

        21.1
      0.190308


 **********************************************************************************************************************************
 DATASETS  * FILE   NREC   LENGTH (MB)   RECORD NAMES
              1      19      120.67       500      610      700      900      950      970     1000      129      960     1100   
                                          VAR    BASINP    GEOM    SYMINP    ZMAT    AOBASIS   BASIS     P2S    ABASIS      S 
                                         1400     1410     1200     1210     1080     1600     1650     1300     1700   
                                           T        V       H0       H01     AOSYM     SMH    MOLCAS    ERIS     OPER   

              2       3        0.68       700     1000     2100   
                                         GEOM     BASIS     RHF  

 PROGRAMS   *        TOTAL       RHF       INT
 CPU TIMES  *         4.86      2.92      1.90
 REAL TIME  *         5.73 SEC
 DISK USED  *       439.93 MB      
 GA USED    *         0.00 MB       (max)       0.00 MB       (current)
 **********************************************************************************************************************************


1PROGRAM * CCSD (Closed-shell coupled cluster)     Authors: C. Hampel, H.-J. Werner, 1991, M. Deegan, P.J. Knowles, 1992


 Convergence thresholds:  THRVAR = 1.00D-08  THRDEN = 1.00D-12

 CCSD(T)     terms to be evaluated (factor= 1.000)


 Number of core orbitals:           5 (   5 )
 Number of closed-shell orbitals:  14 (  14 )
 Number of external orbitals:      86 (  86 )

 Molecular orbitals read from record     2100.2  Type=RHF/CANONICAL (state 1.1)

 Number of N-1 electron functions:              14
 Number of N-2 electron functions:             105
 Number of singly external CSFs:              1204
 Number of doubly external CSFs:            725410
 Total number of CSFs:                      726615

 Length of J-op  integral file:               0.00 MB
 Length of K-op  integral file:               0.79 MB
 Length of 3-ext integral record:             0.00 MB

 Memory could be reduced to 12.72 Mwords without degradation in triples

 Integral transformation finished. Total CPU:   0.76 sec, npass=  1  Memory used:  10.92 MW

 Reference energy:                   -210.01243030

 MP2 singlet pair energy:              -0.45162180
 MP2 triplet pair energy:              -0.25975418
 MP2 correlation energy:               -0.71137598
 MP2 total energy:                   -210.72380628

 SCS-MP2 correlation energy:           -0.70357099   (PS=  1.200000  PT=  0.333333)
 SCS-MP2 total energy:               -210.71600129

 ITER.      SQ.NORM     CORR.ENERGY   TOTAL ENERGY   ENERGY CHANGE        DEN1      VAR(S)    VAR(P)  DIIS     TIME
   1      1.27014911    -0.75345458  -210.76588488    -0.04207860    -0.01888385  0.35D-02  0.56D-02  1  1     2.60
   2      1.29280675    -0.75711239  -210.76954269    -0.00365781    -0.02204284  0.58D-04  0.76D-03  2  2     4.49
   3      1.30018983    -0.75748901  -210.76991931    -0.00037662    -0.00407777  0.27D-04  0.55D-04  3  3     6.38
   4      1.30275444    -0.75758564  -210.77001594    -0.00009664    -0.00100767  0.13D-05  0.65D-05  4  4     8.27
   5      1.30332143    -0.75759422  -210.77002452    -0.00000858    -0.00016808  0.16D-06  0.78D-06  5  5    10.17
   6      1.30344389    -0.75758866  -210.77001896     0.00000557    -0.00003120  0.97D-08  0.53D-07  6  6    12.06
   7      1.30346197    -0.75759105  -210.77002135    -0.00000240    -0.00000402  0.15D-08  0.48D-08  6  2    13.95
   8      1.30346341    -0.75759098  -210.77002128     0.00000008    -0.00000004  0.14D-09  0.42D-09  6  1    15.85
   9      1.30346376    -0.75759096  -210.77002126     0.00000002     0.00000023  0.16D-10  0.36D-10  6  3    17.75
  10      1.30346403    -0.75759097  -210.77002127    -0.00000001    -0.00000006  0.17D-11  0.33D-11  6  4    19.64
  11      1.30346365    -0.75759100  -210.77002130    -0.00000002     0.00000022  0.34D-12  0.34D-12  6  6    21.54
  12      1.30346358    -0.75759100  -210.77002130    -0.00000001     0.00000004  0.43D-13  0.27D-13  6  5    23.44
  13      1.30346354    -0.75759101  -210.77002131    -0.00000000     0.00000002  0.49D-14  0.44D-14  6  2    25.33
  14      1.30346354    -0.75759100  -210.77002131     0.00000000     0.00000000  0.14D-14  0.63D-15  6  1    27.24
  15      1.30346354    -0.75759100  -210.77002131     0.00000000    -0.00000000  0.90D-16  0.10D-15  6  4    29.13
  16      1.30346354    -0.75759100  -210.77002131     0.00000000    -0.00000000  0.14D-16  0.66D-17  6  3    31.02
  17      1.30346354    -0.75759100  -210.77002131     0.00000000    -0.00000000  0.30D-17  0.14D-17  6  6    32.93
  18      1.30346354    -0.75759100  -210.77002131    -0.00000000    -0.00000000  0.51D-18  0.23D-18  6  5    34.82
  19      1.30346354    -0.75759100  -210.77002131     0.00000000     0.00000000  0.59D-19  0.39D-19  6  2    36.72
  20      1.30346354    -0.75759100  -210.77002131     0.00000000    -0.00000000  0.62D-20  0.39D-20  6  4    38.61

 Norm of t1 vector:      0.07771573      S-energy:    -0.00000000      T1 diagnostic:  0.01038520
                                                                       D1 diagnostic:  0.02934180


 Total CPU time for triples:     22.88 sec


 RESULTS
 =======

  Reference energy                   -210.012430300509
  CCSD singlet pair energy             -0.527310321723
  CCSD triplet pair energy             -0.230280683118
  CCSD correlation energy              -0.757591004841

  Triples (T) contribution             -0.026790175605
  Total correlation energy             -0.784381180446

  CCSD total energy                  -210.770021305350
  CCSD[T] energy                     -210.797820788680
  CCSD-T energy                      -210.796341795446
 !CCSD(T) total energy               -210.796811480956

 Timing summary (sec):

 STEP                 CPU(USER)    SYS     CPU(TOT)    WALL
 Transformation          0.79      0.09      0.88      0.87
 CCSD iterations        37.83      1.07     38.90     38.95
 Triples                22.88      0.48     23.36     23.38

 Program statistics:

 Available memory in ccsd:               999999116
 Min. memory needed in ccsd:               1995783
 Max. memory used in ccsd:                 2628247
 Max. memory used in cckext:               2458865 (20 integral passes)



 **********************************************************************************************************************************
 DATASETS  * FILE   NREC   LENGTH (MB)   RECORD NAMES
              1      20      170.82       500      610      700      900      950      970     1000      129      960     1100   
                                          VAR    BASINP    GEOM    SYMINP    ZMAT    AOBASIS   BASIS     P2S    ABASIS      S 
                                         1400     1410     1200     1210     1080     1600     1650     1300     1700     1380   
                                           T        V       H0       H01     AOSYM     SMH    MOLCAS    ERIS     OPER     JKOP   

              2       3        0.68       700     1000     2100   
                                         GEOM     BASIS     RHF  

 PROGRAMS   *        TOTAL   CCSD(T)       RHF       INT
 CPU TIMES  *        66.37     61.51      2.92      1.90
 REAL TIME  *        68.97 SEC
 DISK USED  *       439.93 MB      
 GA USED    *         0.00 MB       (max)       0.00 MB       (current)
 **********************************************************************************************************************************

        CCSD(T)         RHF-SCF 
   -210.79681148   -210.01243030
 **********************************************************************************************************************************
 Variable memory released
