
 Primary working directories    : /tmp/1049102.86.gen4.q
 Secondary working directories  : /tmp/1049102.86.gen4.q
 Wavefunction directory         : /home/vulcan/mel64643/wfu/
 Main file repository           : /tmp/1049102.86.gen4.q/

 ARCHNAME  : Linux/x86_64
 FC        : /opt/intel/compilers_and_libraries_2016.1.150/linux/bin/intel64/ifort
 FCVERSION : 16.0.1
 BLASLIB   : -mkl
 id        : ccgc

 Nodes     nprocs
 n021         1
 ga_uses_ma=false, calling ma_init with nominal heap.
 GA-space will be limited to   8.0 MW (determined by -G option)

 Using customized tuning parameters: mindgm=10; mindgv=16; mindgc=4; mindgr=1; noblas=0; mincuda=1000; minvec=7
 default implementation of scratch files=df  

 ***,Optimization of h2o_3
 memory,1000,m
 gthresh,energy=1.0d-12,orbital=1.0d-10,oneint=1.0d-16,twoint=1.0d-16,optgrad=1.0d-6,compress=1.0d-13
 geomtyp=xyz
 
 
 
 bohr
 geometry = {
  C    0.9158114128    1.4036002489   -2.2740583276
  C    0.7396146800    2.7093457502    0.0209969817
  C    0.9978428932    1.4079346442    2.3014643370
  C    1.4314669244   -1.2033005766    2.2939354414
  C    1.6078478290   -2.5045270922    0.0060040287
  C    1.3488807510   -1.1988656329   -2.2813172739
  H    0.7062585385    2.4128472382   -4.0438408981
  H    0.3885592583    4.7268703972    0.0268667380
  H    0.8562477622    2.4178965062    4.0777991614
  H    1.6292876899   -2.2136094647    4.0648773549
  H    1.9413969168   -4.5254991001    0.0001425309
  H    1.4833841060   -2.2094433573   -4.0581391007
  N   -5.4427730105   -0.3572886051   -0.0705969632
  H   -5.5914344848   -1.5686396742   -1.5510773985
  H   -6.0693706876   -1.3154556316    1.4690237126
  H   -3.5620887120   -0.0736552482    0.1979973523
 }
 
 basis=aug-cc-pvdz, H=cc-pvdz
 {rhf;maxit,200}
 {ccsd(t)}

 Variables initialized (661), CPU time= 0.00 sec
 Commands  initialized (458), CPU time= 0.01 sec, 486 directives.
 Default parameters read. Elapsed time= 0.06 sec

 Checking input...
 Passed
1


                                         ***  PROGRAM SYSTEM MOLPRO  ***
                         Copyright, University College Cardiff Consultants Limited, 2008

                                    Version 2010.1 linked May 16 2016 07:17:05


 **********************************************************************************************************************************
 LABEL *   Optimization of h2o_3                                                         
 Linux-4.4.3/n021(x86_64) 64 bit mpp version                                             DATE: 18-Mar-24          TIME: 14:25:42  
 **********************************************************************************************************************************

 SHA1:             9e8077add272b0f3cad6f7df79ec5211205f459d
 **********************************************************************************************************************************

 THRESHOLDS:

 ZERO    =  1.00D-12  ONEINT  =  1.00D-16  TWOINT  =  1.00D-16  PREFAC  =  1.00D-14  LOCALI  =  1.00D-09  EORDER  =  1.00D-04
 ENERGY  =  1.00D-12  ETEST   =  0.00D+00  EDENS   =  0.00D+00  THRDEDEF=  1.00D-06  GRADIENT=  1.00D-02  STEP    =  1.00D-03
 ORBITAL =  1.00D-10  CIVEC   =  1.00D-05  COEFF   =  1.00D-04  PRINTCI =  5.00D-02  PUNCHCI =  9.90D+01  OPTGRAD =  1.00D-06
 OPTENERG=  1.00D-06  OPTSTEP =  3.00D-04  THRGRAD =  1.00D-10  COMPRESS=  1.00D-13  VARMIN  =  1.00D-07  VARMAX  =  1.00D-03
 THRDOUB =  0.00D+00  THRDIV  =  1.00D-05  THRRED  =  1.00D-07  THRPSP  =  1.00D+00  THRDC   =  1.00D-10  THRCS   =  1.00D-10
 THRNRM  =  1.00D-08  THREQ   =  0.00D+00  THRDE   =  1.00D+00  THRREF  =  1.00D-05  SPARFAC =  1.00D+00  THRDLP  =  1.00D-07
 THRDIA  =  1.00D-10  THRDLS  =  1.00D-07  THRGPS  =  0.00D+00  THRKEX  =  0.00D+00  THRDIS  =  2.00D-01  THRVAR  =  1.00D-10
 THRLOC  =  1.00D-06  THRGAP  =  1.00D-06  THRLOCT = -1.00D+00  THRGAPT = -1.00D+00  THRORB  =  1.00D-06  THRMLTP =  0.00D+00
 THRCPQCI=  1.00D-10  KEXTA   =  0.00D+00  THRCOARS=  0.00D+00  SYMTOL  =  1.00D-06  GRADTOL =  1.00D-06  THROVL  =  1.00D-08
 THRORTH =  1.00D-08  GRID    =  1.00D-06  GRIDMAX =  1.00D-03  DTMAX   =  0.00D+00

 SETTING GEOMTYP        =    XYZ
 ZUNIT=BOHR
 

 Variable memory set to 1000000000 words,  buffer space   230000 words

 SETTING BASIS          =    AUG-CC-PVDZ,H=CC-PVDZ


 Recomputing integrals since basis changed


 Using spherical harmonics

 Library entry C      S aug-cc-pVDZ          selected for orbital group  1
 Library entry C      P aug-cc-pVDZ          selected for orbital group  1
 Library entry C      D aug-cc-pVDZ          selected for orbital group  1
 Library entry H      S cc-pVDZ              selected for orbital group  2
 Library entry H      P cc-pVDZ              selected for orbital group  2
 Library entry N      S aug-cc-pVDZ          selected for orbital group  3
 Library entry N      P aug-cc-pVDZ          selected for orbital group  3
 Library entry N      D aug-cc-pVDZ          selected for orbital group  3

1PROGRAM * SEWARD (Integral evaluation for generally contracted gaussian basis sets)     Author: Roland Lindh, 1990

 Geometry written to block  1 of record 700


 Point group  C1  



 ATOMIC COORDINATES

 NR  ATOM    CHARGE       X              Y              Z

   1  C       6.00    0.915811413    1.403600249   -2.274058328
   2  C       6.00    0.739614680    2.709345750    0.020996982
   3  C       6.00    0.997842893    1.407934644    2.301464337
   4  C       6.00    1.431466924   -1.203300577    2.293935441
   5  C       6.00    1.607847829   -2.504527092    0.006004029
   6  C       6.00    1.348880751   -1.198865633   -2.281317274
   7  H       1.00    0.706258538    2.412847238   -4.043840898
   8  H       1.00    0.388559258    4.726870397    0.026866738
   9  H       1.00    0.856247762    2.417896506    4.077799161
  10  H       1.00    1.629287690   -2.213609465    4.064877355
  11  H       1.00    1.941396917   -4.525499100    0.000142531
  12  H       1.00    1.483384106   -2.209443357   -4.058139101
  13  N       7.00   -5.442773010   -0.357288605   -0.070596963
  14  H       1.00   -5.591434485   -1.568639674   -1.551077398
  15  H       1.00   -6.069370688   -1.315455632    1.469023713
  16  H       1.00   -3.562088712   -0.073655248    0.197997352

 Bond lengths in Bohr (Angstrom)

 1-2  2.646374024  1-6  2.638262764  1-7  2.048077694  2-3  2.638348733  2-8  2.047847666
     ( 1.400400820)     ( 1.396108526)     ( 1.083796038)     ( 1.396154019)     ( 1.083674313)

  3- 4  2.647005074   3- 9  2.048276727   4- 5  2.637978548   4-10  2.048436566   5- 6  2.646441863
       ( 1.400734757)       ( 1.083901362)       ( 1.395958125)       ( 1.083985945)       ( 1.400436719)

  5-11  2.048320582   6-12  2.048524907  13-14  1.918669843  13-15  1.918629856  13-16  1.920823838
       ( 1.083924569)       ( 1.084032693)       ( 1.015316352)       ( 1.015295192)       ( 1.016456198)

 Bond angles

  1- 2- 3  119.98066466   1- 2- 8  120.00017739   1- 6- 5  120.02352194   1- 6-12  119.98613987

  2-1-6  120.00197272   2-1-7  119.96359238   2-3-4  120.01168926   2-3-9  119.97429381

  3- 2- 8  120.01748094   3- 4- 5  120.00138145   3- 4-10  119.99377449   4- 3- 9  120.01368520

  4- 5- 6  119.98074202   4- 5-11  120.00332897   5- 4-10  120.00483935   5- 6-12  119.99032365

  6- 1- 7  120.03369500   6- 5-11  120.01581501  14-13-15  106.17607584  14-13-16  106.08043224

 15-13-16  106.33745550

 NUCLEAR CHARGE:                   52
 NUMBER OF PRIMITIVE AOS:         322
 NUMBER OF SYMMETRY AOS:          308
 NUMBER OF CONTRACTIONS:          206   ( 206A   )
 NUMBER OF CORE ORBITALS:           7   (   7A   )
 NUMBER OF VALENCE ORBITALS:       37   (  37A   )


 NUCLEAR REPULSION ENERGY  273.71054906


 Eigenvalues of metric

         1 0.861E-05 0.184E-04 0.228E-04 0.532E-04 0.642E-04 0.644E-04 0.107E-03 0.107E-03


 Contracted 2-electron integrals neglected if value below      1.0D-16
 AO integral compression algorithm  1   Integral accuracy      1.0D-16

     1893.204 MB (compressed) written to integral file ( 94.6%)

     Node minimum: 1893.204 MB, node maximum: 1893.204 MB


 NUMBER OF SORTED TWO-ELECTRON INTEGRALS:  227303181.     BUFFER LENGTH:  32768
 NUMBER OF SEGMENTS:  15  SEGMENT LENGTH:   15999503      RECORD LENGTH: 524288

 Memory used in sort:      16.56 MW

 SORT1 READ   250230184. AND WROTE   226408510. INTEGRALS IN    654 RECORDS. CPU TIME:     2.65 SEC, REAL TIME:     4.68 SEC
 SORT2 READ   226408510. AND WROTE   227303181. INTEGRALS IN   7222 RECORDS. CPU TIME:     1.54 SEC, REAL TIME:     2.50 SEC

 FILE SIZES:   FILE 1:  1743.8 MBYTE,  FILE 4:  2743.1 MBYTE,   TOTAL:   4486.9 MBYTE

 OPERATOR DM      FOR CENTER  0  COORDINATES:    0.000000    0.000000    0.000000


 **********************************************************************************************************************************
 DATASETS  * FILE   NREC   LENGTH (MB)   RECORD NAMES
              1      19     1744.31       500      610      700      900      950      970     1000      129      960     1100   
                                          VAR    BASINP    GEOM    SYMINP    ZMAT    AOBASIS   BASIS     P2S    ABASIS      S 
                                         1400     1410     1200     1210     1080     1600     1650     1300     1700   
                                           T        V       H0       H01     AOSYM     SMH    MOLCAS    ERIS     OPER   

 PROGRAMS   *        TOTAL       INT
 CPU TIMES  *        15.82     15.76
 REAL TIME  *        22.94 SEC
 DISK USED  *         6.38 GB      
 GA USED    *         0.01 MB       (max)       0.00 MB       (current)
 **********************************************************************************************************************************

1PROGRAM * RHF-SCF (CLOSED SHELL)       Authors: W. Meyer, H.-J. Werner


 NUMBER OF ELECTRONS:      26+   26-    SPACE SYMMETRY=1    SPIN SYMMETRY: Singlet 
 CONVERGENCE THRESHOLDS:    1.00E-10 (Density)    1.00E-13 (Energy)
 MAX. NUMBER OF ITERATIONS:      200
 INTERPOLATION TYPE:            DIIS
 INTERPOLATION STEPS:              2 (START)      1 (STEP)
 LEVEL SHIFTS:                  0.00 (CLOSED)  0.00 (OPEN) 



 Orbital guess generated from atomic densities. Full valence occupancy:   44

 Molecular orbital dump at record        2100.2

 ITERATION    DDIFF          GRAD             ENERGY        2-EL.EN.            DIPOLE MOMENTS         DIIS
    1      0.000D+00      0.000D+00      -286.85323576    740.883536    0.51948   -0.76791    0.13624    0
    2      0.000D+00      0.322D-02      -286.92079470    735.093008    0.43512   -0.38428    0.06227    1
    3      0.826D-02      0.133D-02      -286.93012314    737.724862    0.45167   -0.52278    0.09237    2
    4      0.218D-02      0.381D-03      -286.93134134    737.205114    0.45026   -0.49602    0.08455    3
    5      0.783D-03      0.526D-04      -286.93136522    737.193871    0.45608   -0.50613    0.08854    4
    6      0.135D-03      0.177D-04      -286.93136767    737.208774    0.45493   -0.50062    0.08644    5
    7      0.511D-04      0.557D-05      -286.93136796    737.205692    0.45559   -0.50284    0.08719    6
    8      0.150D-04      0.134D-05      -286.93136798    737.204679    0.45574   -0.50248    0.08705    7
    9      0.429D-05      0.596D-06      -286.93136799    737.205156    0.45577   -0.50257    0.08708    7
   10      0.162D-05      0.202D-06      -286.93136799    737.205096    0.45578   -0.50257    0.08708    7
   11      0.742D-06      0.772D-07      -286.93136799    737.205080    0.45579   -0.50257    0.08708    7
   12      0.309D-06      0.343D-07      -286.93136799    737.205101    0.45578   -0.50257    0.08708    8
   13      0.134D-06      0.130D-07      -286.93136799    737.205089    0.45578   -0.50257    0.08708    8
   14      0.578D-07      0.457D-08      -286.93136799    737.205093    0.45578   -0.50257    0.08708    8
   15      0.175D-07      0.148D-08      -286.93136799    737.205092    0.45578   -0.50257    0.08708    9
   16      0.495D-08      0.305D-09      -286.93136799    737.205092    0.45578   -0.50257    0.08708    9
   17      0.106D-08      0.109D-09      -286.93136799    737.205092    0.45578   -0.50257    0.08708    8
   18      0.441D-09      0.541D-10      -286.93136799    737.205092    0.45578   -0.50257    0.08708    8
   19      0.270D-09      0.276D-10      -286.93136799    737.205092    0.45578   -0.50257    0.08708    9
   20      0.163D-09      0.116D-10      -286.93136799    737.205092    0.45578   -0.50257    0.08708    8
   21      0.183D-09      0.290D-11      -286.93136799    737.205092    0.45578   -0.50257    0.08708    8
   22      0.132D-09      0.115D-11      -286.93136799    737.205092    0.45578   -0.50257    0.08708    9
   23      0.963D-10      0.627D-12      -286.93136799    737.205092    0.45578   -0.50257    0.08708    9
   24      0.576D-10      0.689D-12      -286.93136799    737.205092    0.45578   -0.50257    0.08708    9
   25      0.583D-10      0.566D-12      -286.93136799    737.205092    0.45578   -0.50257    0.08708    9
   26      0.369D-10      0.521D-12      -286.93136799    737.205092    0.45578   -0.50257    0.08708    9
   27      0.357D-10      0.514D-12      -286.93136799    737.205092    0.45578   -0.50257    0.08708    9
   28      0.258D-10      0.490D-12      -286.93136799    737.205092    0.45578   -0.50257    0.08708    9
   29      0.238D-10      0.418D-12      -286.93136799    737.205092    0.45578   -0.50257    0.08708    9
   30      0.147D-10      0.513D-12      -286.93136799    737.205092    0.45578   -0.50257    0.08708    9
   31      0.105D-10      0.576D-12      -286.93136799    737.205092    0.45578   -0.50257    0.08708    9
   32      0.262D-11      0.435D-12      -286.93136799    737.205092    0.45578   -0.50257    0.08708    9
   33      0.111D-10      0.452D-12      -286.93136799    737.205092    0.45578   -0.50257    0.08708    9
   34      0.154D-10      0.529D-12      -286.93136799    737.205092    0.45578   -0.50257    0.08708    9
   35      0.191D-10      0.456D-12      -286.93136799    737.205092    0.45578   -0.50257    0.08708    9
   36      0.298D-10      0.453D-12      -286.93136799    737.205092    0.45578   -0.50257    0.08708    9
   37      0.178D-10      0.469D-12      -286.93136799    737.205092    0.45578   -0.50257    0.08708    9
   38      0.113D-10      0.442D-12      -286.93136799    737.205092    0.45578   -0.50257    0.08708    9
   39      0.217D-10      0.465D-12      -286.93136799    737.205092    0.45578   -0.50257    0.08708    9
   40      0.115D-10      0.521D-12      -286.93136799    737.205092    0.45578   -0.50257    0.08708    9
   41      0.603D-11      0.534D-12      -286.93136799    737.205092    0.45578   -0.50257    0.08708    9
   42      0.128D-10      0.392D-12      -286.93136799    737.205092    0.45578   -0.50257    0.08708    9
   43      0.201D-10      0.576D-12      -286.93136799    737.205092    0.45578   -0.50257    0.08708    9
   44      0.121D-10      0.478D-12      -286.93136799    737.205092    0.45578   -0.50257    0.08708    9
   45      0.267D-10      0.598D-12      -286.93136799    737.205092    0.45578   -0.50257    0.08708    9
   46      0.163D-10      0.427D-12      -286.93136799    737.205092    0.45578   -0.50257    0.08708    9
   47      0.238D-10      0.453D-12      -286.93136799    737.205092    0.45578   -0.50257    0.08708    9
   48      0.174D-10      0.497D-12      -286.93136799    737.205092    0.45578   -0.50257    0.08708    9
   49      0.141D-10      0.512D-12      -286.93136799    737.205092    0.45578   -0.50257    0.08708    0

 Final occupancy:  26

 !RHF STATE 1.1 Energy               -286.931367986738
 Nuclear energy                       273.71054906
 One-electron energy                 -929.24446325
 Two-electron energy                  368.60254621
 Virial quotient                       -1.00146481
 !RHF STATE 1.1 Dipole moment           0.45578382    -0.50257343     0.08707900
 Dipole moment /Debye                   1.15841104    -1.27733057     0.22131824

 Orbital energies:

         1.1          2.1          3.1          4.1          5.1          6.1          7.1          8.1          9.1         10.1
    -15.535006   -11.250626   -11.250016   -11.249675   -11.248801   -11.248652   -11.247832    -1.157503    -1.125560    -1.022055

        11.1         12.1         13.1         14.1         15.1         16.1         17.1         18.1         19.1         20.1
     -1.021959    -0.830628    -0.830535    -0.714502    -0.650452    -0.623919    -0.611679    -0.609819    -0.593577    -0.593463

        21.1         22.1         23.1         24.1         25.1         26.1         27.1         28.1
     -0.504903    -0.500091    -0.500020    -0.413435    -0.342980    -0.341999     0.063891     0.066421


 **********************************************************************************************************************************
 DATASETS  * FILE   NREC   LENGTH (MB)   RECORD NAMES
              1      19     1744.31       500      610      700      900      950      970     1000      129      960     1100   
                                          VAR    BASINP    GEOM    SYMINP    ZMAT    AOBASIS   BASIS     P2S    ABASIS      S 
                                         1400     1410     1200     1210     1080     1600     1650     1300     1700   
                                           T        V       H0       H01     AOSYM     SMH    MOLCAS    ERIS     OPER   

              2       3        1.40       700     1000     2100   
                                         GEOM     BASIS     RHF  

 PROGRAMS   *        TOTAL       RHF       INT
 CPU TIMES  *       103.09     87.27     15.76
 REAL TIME  *       119.58 SEC
 DISK USED  *         6.38 GB      
 GA USED    *         0.01 MB       (max)       0.00 MB       (current)
 **********************************************************************************************************************************


1PROGRAM * CCSD (Closed-shell coupled cluster)     Authors: C. Hampel, H.-J. Werner, 1991, M. Deegan, P.J. Knowles, 1992


 Convergence thresholds:  THRVAR = 1.00D-08  THRDEN = 1.00D-12

 CCSD(T)     terms to be evaluated (factor= 1.000)


 Number of core orbitals:           7 (   7 )
 Number of closed-shell orbitals:  19 (  19 )
 Number of external orbitals:     180 ( 180 )

 Molecular orbitals read from record     2100.2  Type=RHF/CANONICAL (state 1.1)

 Number of N-1 electron functions:              19
 Number of N-2 electron functions:             190
 Number of singly external CSFs:              3420
 Number of doubly external CSFs:           5849910
 Total number of CSFs:                     5853331

 Length of J-op  integral file:               0.00 MB
 Length of K-op  integral file:               2.96 MB
 Length of 3-ext integral record:             0.00 MB

 Memory could be reduced to 140.12 Mwords without degradation in triples

 Integral transformation finished. Total CPU:  16.88 sec, npass=  1  Memory used: 101.90 MW

 Reference energy:                   -286.93136799

 MP2 singlet pair energy:              -0.62063053
 MP2 triplet pair energy:              -0.38982677
 MP2 correlation energy:               -1.01045730
 MP2 total energy:                   -287.94182529

 SCS-MP2 correlation energy:           -0.98731552   (PS=  1.200000  PT=  0.333333)
 SCS-MP2 total energy:               -287.91868350

 ITER.      SQ.NORM     CORR.ENERGY   TOTAL ENERGY   ENERGY CHANGE        DEN1      VAR(S)    VAR(P)  DIIS     TIME
   1      1.38488068    -1.05475400  -287.98612198    -0.04429669    -0.01721862  0.36D-02  0.80D-02  1  1    69.54
   2      1.41439326    -1.06061660  -287.99198459    -0.00586260    -0.02705257  0.63D-04  0.10D-02  2  2   122.60
   3      1.42352409    -1.06071233  -287.99208032    -0.00009573    -0.00464327  0.27D-04  0.84D-04  3  3   175.74
   4      1.42746112    -1.06088105  -287.99224903    -0.00016871    -0.00121409  0.22D-05  0.11D-04  4  4   228.72
   5      1.42867473    -1.06091199  -287.99227998    -0.00003095    -0.00027320  0.27D-06  0.13D-05  5  5   281.71
   6      1.42897735    -1.06090176  -287.99226975     0.00001023    -0.00004349  0.24D-07  0.79D-07  6  6   334.71
   7      1.42901812    -1.06090339  -287.99227138    -0.00000163    -0.00000103  0.36D-08  0.82D-08  6  2   387.60
   8      1.42902733    -1.06090325  -287.99227123     0.00000014    -0.00000117  0.81D-09  0.77D-09  6  1   440.55
   9      1.42902717    -1.06090338  -287.99227137    -0.00000014     0.00000123  0.23D-09  0.97D-10  6  4   493.46
  10      1.42902840    -1.06090339  -287.99227138    -0.00000001    -0.00000019  0.66D-10  0.17D-10  6  3   546.45
  11      1.42902836    -1.06090341  -287.99227140    -0.00000002     0.00000013  0.17D-10  0.45D-11  6  5   599.42
  12      1.42902833    -1.06090341  -287.99227140    -0.00000000     0.00000003  0.20D-11  0.13D-11  6  6   652.34
  13      1.42902814    -1.06090342  -287.99227140    -0.00000000     0.00000006  0.25D-12  0.27D-12  6  2   705.22
  14      1.42902803    -1.06090342  -287.99227140    -0.00000000     0.00000003  0.70D-13  0.57D-13  6  1   758.11
  15      1.42902796    -1.06090342  -287.99227140    -0.00000000     0.00000002  0.19D-13  0.86D-14  6  3   811.04
  16      1.42902793    -1.06090342  -287.99227141    -0.00000000     0.00000000  0.45D-14  0.13D-14  6  4   863.95
  17      1.42902793    -1.06090342  -287.99227141     0.00000000    -0.00000000  0.14D-14  0.47D-15  6  5   916.85
  18      1.42902793    -1.06090342  -287.99227141     0.00000000    -0.00000000  0.20D-15  0.11D-15  6  6   969.73
  19      1.42902794    -1.06090342  -287.99227141     0.00000000    -0.00000000  0.25D-16  0.19D-16  6  2  1022.62
  20      1.42902794    -1.06090342  -287.99227141     0.00000000    -0.00000000  0.88D-17  0.32D-17  6  1  1075.52
  21      1.42902794    -1.06090342  -287.99227141     0.00000000    -0.00000000  0.30D-17  0.81D-18  6  3  1128.45
  22      1.42902794    -1.06090342  -287.99227141     0.00000000    -0.00000000  0.90D-18  0.26D-18  6  4  1181.49
  23      1.42902794    -1.06090342  -287.99227141     0.00000000    -0.00000000  0.28D-18  0.11D-18  6  5  1234.50
  24      1.42902794    -1.06090342  -287.99227141     0.00000000    -0.00000000  0.84D-19  0.44D-19  6  6  1287.57

 Norm of t1 vector:      0.08386222      S-energy:     0.00000000      T1 diagnostic:  0.00961966
                                                                       D1 diagnostic:  0.02619322

 Doubles amplitudes (print threshold =  0.500E-01):

         I         J         SYM. A    SYM. B    A         B      T(IJ, AB)

        18        18         1         1         6         6     -0.05123098
        19        19         1         1         7         7     -0.05472712


 Total CPU time for triples:   1028.72 sec


 RESULTS
 =======

  Reference energy                   -286.931367986735
  CCSD singlet pair energy             -0.711156506910
  CCSD triplet pair energy             -0.349746911505
  CCSD correlation energy              -1.060903418413

  Triples (T) contribution             -0.045601238481
  Total correlation energy             -1.106504656894

  CCSD total energy                  -287.992271405149
  CCSD[T] energy                     -288.038742892309
  CCSD-T energy                      -288.037484075375
 !CCSD(T) total energy               -288.037872643629

 Timing summary (sec):

 STEP                 CPU(USER)    SYS     CPU(TOT)    WALL
 Transformation         17.51      0.94     18.45     18.45
 CCSD iterations      1270.08     13.55   1283.63   1283.72
 Triples              1028.72     11.55   1040.27   1040.29

 Program statistics:

 Available memory in ccsd:               999998456
 Min. memory needed in ccsd:              14392275
 Max. memory used in ccsd:                19775697
 Max. memory used in cckext:              16737545 (24 integral passes)



 **********************************************************************************************************************************
 DATASETS  * FILE   NREC   LENGTH (MB)   RECORD NAMES
              1      20     2287.91       500      610      700      900      950      970     1000      129      960     1100   
                                          VAR    BASINP    GEOM    SYMINP    ZMAT    AOBASIS   BASIS     P2S    ABASIS      S 
                                         1400     1410     1200     1210     1080     1600     1650     1300     1700     1380   
                                           T        V       H0       H01     AOSYM     SMH    MOLCAS    ERIS     OPER     JKOP   

              2       3        1.40       700     1000     2100   
                                         GEOM     BASIS     RHF  

 PROGRAMS   *        TOTAL   CCSD(T)       RHF       INT
 CPU TIMES  *      2419.42   2316.32     87.27     15.76
 REAL TIME  *      2462.17 SEC
 DISK USED  *         6.38 GB      
 GA USED    *         0.01 MB       (max)       0.00 MB       (current)
 **********************************************************************************************************************************

        CCSD(T)         RHF-SCF 
   -288.03787264   -286.93136799
 **********************************************************************************************************************************
 Variable memory released
