
 Primary working directories    : /tmp/1049102.1675.gen4.q
 Secondary working directories  : /tmp/1049102.1675.gen4.q
 Wavefunction directory         : /home/vulcan/mel64643/wfu/
 Main file repository           : /tmp/1049102.1675.gen4.q/

 ARCHNAME  : Linux/x86_64
 FC        : /opt/intel/compilers_and_libraries_2016.1.150/linux/bin/intel64/ifort
 FCVERSION : 16.0.1
 BLASLIB   : -mkl
 id        : ccgc

 Nodes     nprocs
 n022         1
 ga_uses_ma=false, calling ma_init with nominal heap.
 GA-space will be limited to   8.0 MW (determined by -G option)

 Using customized tuning parameters: mindgm=10; mindgv=16; mindgc=4; mindgr=1; noblas=0; mincuda=1000; minvec=7
 default implementation of scratch files=df  

 ***,Optimization of h2o_3
 memory,1000,m
 gthresh,energy=1.0d-12,orbital=1.0d-10,oneint=1.0d-16,twoint=1.0d-16,optgrad=1.0d-6,compress=1.0d-13
 geomtyp=xyz
 
 
 
 bohr
 geometry = {
  C    0.9162873945    1.4053214845   -2.2729089784
  C    0.7367945310    2.7084564130    0.0186682906
  C    0.9989076756    1.4056144814    2.3025996204
  C    1.4297009586   -1.2019516082    2.2951210791
  C    1.6099210147   -2.5045948888    0.0035871860
  C    1.3478673090   -1.2015300673   -2.2801406942
  H    0.7111724159    2.4153143000   -4.0427859790
  H    0.3802818726    4.7250235884    0.0246361903
  H    0.8616900818    2.4163080539    4.0788618156
  H    1.6230801886   -2.2129969277    4.0661332759
  H    1.9489363319   -4.5246568443   -0.0023725651
  H    1.4779917435   -2.2128340975   -4.0568753632
  N   -5.4436281031   -0.3532482308   -0.0710712954
  H   -5.5890698240   -1.5679112243   -1.5491560311
  H   -6.0665450991   -1.3148797769    1.4678828014
  H   -3.5624566245   -0.0732242536    0.1978983239
 }
 
 basis=aug-cc-pvdz, H=cc-pvdz
 {rhf;maxit,200}
 {ccsd(t)}

 Variables initialized (661), CPU time= 0.00 sec
 Commands  initialized (458), CPU time= 0.01 sec, 486 directives.
 Default parameters read. Elapsed time= 0.07 sec

 Checking input...
 Passed
1


                                         ***  PROGRAM SYSTEM MOLPRO  ***
                         Copyright, University College Cardiff Consultants Limited, 2008

                                    Version 2010.1 linked May 16 2016 07:17:05


 **********************************************************************************************************************************
 LABEL *   Optimization of h2o_3                                                         
 Linux-4.4.3/n022(x86_64) 64 bit mpp version                                             DATE: 21-Mar-24          TIME: 14:22:07  
 **********************************************************************************************************************************

 SHA1:             9e8077add272b0f3cad6f7df79ec5211205f459d
 **********************************************************************************************************************************

 THRESHOLDS:

 ZERO    =  1.00D-12  ONEINT  =  1.00D-16  TWOINT  =  1.00D-16  PREFAC  =  1.00D-14  LOCALI  =  1.00D-09  EORDER  =  1.00D-04
 ENERGY  =  1.00D-12  ETEST   =  0.00D+00  EDENS   =  0.00D+00  THRDEDEF=  1.00D-06  GRADIENT=  1.00D-02  STEP    =  1.00D-03
 ORBITAL =  1.00D-10  CIVEC   =  1.00D-05  COEFF   =  1.00D-04  PRINTCI =  5.00D-02  PUNCHCI =  9.90D+01  OPTGRAD =  1.00D-06
 OPTENERG=  1.00D-06  OPTSTEP =  3.00D-04  THRGRAD =  1.00D-10  COMPRESS=  1.00D-13  VARMIN  =  1.00D-07  VARMAX  =  1.00D-03
 THRDOUB =  0.00D+00  THRDIV  =  1.00D-05  THRRED  =  1.00D-07  THRPSP  =  1.00D+00  THRDC   =  1.00D-10  THRCS   =  1.00D-10
 THRNRM  =  1.00D-08  THREQ   =  0.00D+00  THRDE   =  1.00D+00  THRREF  =  1.00D-05  SPARFAC =  1.00D+00  THRDLP  =  1.00D-07
 THRDIA  =  1.00D-10  THRDLS  =  1.00D-07  THRGPS  =  0.00D+00  THRKEX  =  0.00D+00  THRDIS  =  2.00D-01  THRVAR  =  1.00D-10
 THRLOC  =  1.00D-06  THRGAP  =  1.00D-06  THRLOCT = -1.00D+00  THRGAPT = -1.00D+00  THRORB  =  1.00D-06  THRMLTP =  0.00D+00
 THRCPQCI=  1.00D-10  KEXTA   =  0.00D+00  THRCOARS=  0.00D+00  SYMTOL  =  1.00D-06  GRADTOL =  1.00D-06  THROVL  =  1.00D-08
 THRORTH =  1.00D-08  GRID    =  1.00D-06  GRIDMAX =  1.00D-03  DTMAX   =  0.00D+00

 SETTING GEOMTYP        =    XYZ
 ZUNIT=BOHR
 

 Variable memory set to 1000000000 words,  buffer space   230000 words

 SETTING BASIS          =    AUG-CC-PVDZ,H=CC-PVDZ


 Recomputing integrals since basis changed


 Using spherical harmonics

 Library entry C      S aug-cc-pVDZ          selected for orbital group  1
 Library entry C      P aug-cc-pVDZ          selected for orbital group  1
 Library entry C      D aug-cc-pVDZ          selected for orbital group  1
 Library entry H      S cc-pVDZ              selected for orbital group  2
 Library entry H      P cc-pVDZ              selected for orbital group  2
 Library entry N      S aug-cc-pVDZ          selected for orbital group  3
 Library entry N      P aug-cc-pVDZ          selected for orbital group  3
 Library entry N      D aug-cc-pVDZ          selected for orbital group  3

1PROGRAM * SEWARD (Integral evaluation for generally contracted gaussian basis sets)     Author: Roland Lindh, 1990

 Geometry written to block  1 of record 700


 Point group  C1  



 ATOMIC COORDINATES

 NR  ATOM    CHARGE       X              Y              Z

   1  C       6.00    0.916287394    1.405321484   -2.272908978
   2  C       6.00    0.736794531    2.708456413    0.018668291
   3  C       6.00    0.998907676    1.405614481    2.302599620
   4  C       6.00    1.429700959   -1.201951608    2.295121079
   5  C       6.00    1.609921015   -2.504594889    0.003587186
   6  C       6.00    1.347867309   -1.201530067   -2.280140694
   7  H       1.00    0.711172416    2.415314300   -4.042785979
   8  H       1.00    0.380281873    4.725023588    0.024636190
   9  H       1.00    0.861690082    2.416308054    4.078861816
  10  H       1.00    1.623080189   -2.212996928    4.066133276
  11  H       1.00    1.948936332   -4.524656844   -0.002372565
  12  H       1.00    1.477991744   -2.212834098   -4.056875363
  13  N       7.00   -5.443628103   -0.353248231   -0.071071295
  14  H       1.00   -5.589069824   -1.567911224   -1.549156031
  15  H       1.00   -6.066545099   -1.314879777    1.467882801
  16  H       1.00   -3.562456624   -0.073224254    0.197898324

 Bond lengths in Bohr (Angstrom)

 1-2  2.642291564  1-6  2.642345271  1-7  2.048077694  2-3  2.642431214  2-8  2.047847666
     ( 1.398240475)     ( 1.398268896)     ( 1.083796038)     ( 1.398314375)     ( 1.083674313)

  3- 4  2.642922567   3- 9  2.048276727   4- 5  2.642061008   4-10  2.048436566   5- 6  2.642359382
       ( 1.398574387)       ( 1.083901362)       ( 1.398118470)       ( 1.083985945)       ( 1.398276363)

  5-11  2.048320582   6-12  2.048524907  13-14  1.918669843  13-15  1.918629857  13-16  1.920823838
       ( 1.083924569)       ( 1.084032693)       ( 1.015316353)       ( 1.015295193)       ( 1.016456197)

 Bond angles

  1- 2- 3  119.98050110   1- 2- 8  120.00025917   1- 6- 5  120.02336493   1- 6-12  119.98621837

  2-1-6  120.00183409   2-1-7  119.96366170   2-3-4  120.01148243   2-3-9  119.97439724

  3- 2- 8  120.01756272   3- 4- 5  120.00115626   3- 4-10  119.99388709   4- 3- 9  120.01378861

  4- 5- 6  119.98054175   4- 5-11  120.00342910   5- 4-10  120.00495194   5- 6-12  119.99040216

  6- 1- 7  120.03376431   6- 5-11  120.01591514  14-13-15  106.02213836  14-13-16  105.92649347

 15-13-16  106.18351656

 NUCLEAR CHARGE:                   52
 NUMBER OF PRIMITIVE AOS:         322
 NUMBER OF SYMMETRY AOS:          308
 NUMBER OF CONTRACTIONS:          206   ( 206A   )
 NUMBER OF CORE ORBITALS:           7   (   7A   )
 NUMBER OF VALENCE ORBITALS:       37   (  37A   )


 NUCLEAR REPULSION ENERGY  273.71542453


 Eigenvalues of metric

         1 0.862E-05 0.184E-04 0.228E-04 0.532E-04 0.643E-04 0.644E-04 0.107E-03 0.107E-03


 Contracted 2-electron integrals neglected if value below      1.0D-16
 AO integral compression algorithm  1   Integral accuracy      1.0D-16

     1892.155 MB (compressed) written to integral file ( 94.5%)

     Node minimum: 1892.155 MB, node maximum: 1892.155 MB


 NUMBER OF SORTED TWO-ELECTRON INTEGRALS:  227303181.     BUFFER LENGTH:  32768
 NUMBER OF SEGMENTS:  15  SEGMENT LENGTH:   15999503      RECORD LENGTH: 524288

 Memory used in sort:      16.56 MW

 SORT1 READ   250230589. AND WROTE   226410239. INTEGRALS IN    654 RECORDS. CPU TIME:     2.63 SEC, REAL TIME:     4.43 SEC
 SORT2 READ   226410239. AND WROTE   227303181. INTEGRALS IN   7218 RECORDS. CPU TIME:     1.56 SEC, REAL TIME:     2.48 SEC

 FILE SIZES:   FILE 1:  1743.1 MBYTE,  FILE 4:  2743.1 MBYTE,   TOTAL:   4486.2 MBYTE

 OPERATOR DM      FOR CENTER  0  COORDINATES:    0.000000    0.000000    0.000000


 **********************************************************************************************************************************
 DATASETS  * FILE   NREC   LENGTH (MB)   RECORD NAMES
              1      19     1743.65       500      610      700      900      950      970     1000      129      960     1100   
                                          VAR    BASINP    GEOM    SYMINP    ZMAT    AOBASIS   BASIS     P2S    ABASIS      S 
                                         1400     1410     1200     1210     1080     1600     1650     1300     1700   
                                           T        V       H0       H01     AOSYM     SMH    MOLCAS    ERIS     OPER   

 PROGRAMS   *        TOTAL       INT
 CPU TIMES  *        15.76     15.70
 REAL TIME  *        20.34 SEC
 DISK USED  *         6.38 GB      
 GA USED    *         0.01 MB       (max)       0.00 MB       (current)
 **********************************************************************************************************************************

1PROGRAM * RHF-SCF (CLOSED SHELL)       Authors: W. Meyer, H.-J. Werner


 NUMBER OF ELECTRONS:      26+   26-    SPACE SYMMETRY=1    SPIN SYMMETRY: Singlet 
 CONVERGENCE THRESHOLDS:    1.00E-10 (Density)    1.00E-13 (Energy)
 MAX. NUMBER OF ITERATIONS:      200
 INTERPOLATION TYPE:            DIIS
 INTERPOLATION STEPS:              2 (START)      1 (STEP)
 LEVEL SHIFTS:                  0.00 (CLOSED)  0.00 (OPEN) 



 Orbital guess generated from atomic densities. Full valence occupancy:   44

 Molecular orbital dump at record        2100.2

 ITERATION    DDIFF          GRAD             ENERGY        2-EL.EN.            DIPOLE MOMENTS         DIIS
    1      0.000D+00      0.000D+00      -286.85319913    740.887746    0.52207   -0.77144    0.13697    0
    2      0.000D+00      0.322D-02      -286.92078364    735.100841    0.43681   -0.38552    0.06264    1
    3      0.826D-02      0.133D-02      -286.93011354    737.731351    0.45354   -0.52487    0.09285    2
    4      0.218D-02      0.381D-03      -286.93133166    737.211959    0.45208   -0.49785    0.08502    3
    5      0.783D-03      0.527D-04      -286.93135557    737.200722    0.45792   -0.50804    0.08900    4
    6      0.135D-03      0.177D-04      -286.93135801    737.215631    0.45676   -0.50250    0.08691    5
    7      0.511D-04      0.556D-05      -286.93135829    737.212554    0.45742   -0.50473    0.08766    6
    8      0.150D-04      0.130D-05      -286.93135831    737.211542    0.45757   -0.50437    0.08752    7
    9      0.417D-05      0.545D-06      -286.93135831    737.212003    0.45761   -0.50446    0.08755    7
   10      0.148D-05      0.144D-06      -286.93135831    737.211951    0.45761   -0.50447    0.08755    7
   11      0.515D-06      0.407D-07      -286.93135831    737.211937    0.45762   -0.50446    0.08755    7
   12      0.140D-06      0.171D-07      -286.93135831    737.211951    0.45762   -0.50447    0.08755    8
   13      0.592D-07      0.739D-08      -286.93135831    737.211946    0.45762   -0.50447    0.08755    8
   14      0.321D-07      0.354D-08      -286.93135831    737.211948    0.45762   -0.50447    0.08755    8
   15      0.195D-07      0.137D-08      -286.93135831    737.211947    0.45762   -0.50447    0.08755    8
   16      0.711D-08      0.455D-09      -286.93135831    737.211947    0.45762   -0.50447    0.08755    9
   17      0.214D-08      0.125D-09      -286.93135831    737.211947    0.45762   -0.50447    0.08755    9
   18      0.410D-09      0.383D-10      -286.93135831    737.211947    0.45762   -0.50447    0.08755    8
   19      0.266D-09      0.158D-10      -286.93135831    737.211947    0.45762   -0.50447    0.08755    9
   20      0.154D-09      0.845D-11      -286.93135831    737.211947    0.45762   -0.50447    0.08755    9
   21      0.131D-09      0.412D-11      -286.93135831    737.211947    0.45762   -0.50447    0.08755    9
   22      0.217D-09      0.130D-11      -286.93135831    737.211947    0.45762   -0.50447    0.08755    9
   23      0.161D-09      0.763D-12      -286.93135831    737.211947    0.45762   -0.50447    0.08755    9
   24      0.838D-10      0.623D-12      -286.93135831    737.211947    0.45762   -0.50447    0.08755    9
   25      0.577D-10      0.698D-12      -286.93135831    737.211947    0.45762   -0.50447    0.08755    9
   26      0.582D-10      0.527D-12      -286.93135831    737.211947    0.45762   -0.50447    0.08755    0

 Final occupancy:  26

 !RHF STATE 1.1 Energy               -286.931358312815
 Nuclear energy                       273.71542453
 One-electron energy                 -929.25275633
 Two-electron energy                  368.60597348
 Virial quotient                       -1.00146256
 !RHF STATE 1.1 Dipole moment           0.45761782    -0.50446510     0.08755267
 Dipole moment /Debye                   1.16307231    -1.28213842     0.22252210

 Orbital energies:

         1.1          2.1          3.1          4.1          5.1          6.1          7.1          8.1          9.1         10.1
    -15.535108   -11.250652   -11.250043   -11.249688   -11.248823   -11.248676   -11.247841    -1.157522    -1.125820    -1.022072

        11.1         12.1         13.1         14.1         15.1         16.1         17.1         18.1         19.1         20.1
     -1.021967    -0.830653    -0.830554    -0.714518    -0.650471    -0.623937    -0.611452    -0.609577    -0.593595    -0.593470

        21.1         22.1         23.1         24.1         25.1         26.1         27.1         28.1
     -0.504914    -0.500119    -0.500043    -0.413890    -0.342991    -0.342008     0.063864     0.066415


 **********************************************************************************************************************************
 DATASETS  * FILE   NREC   LENGTH (MB)   RECORD NAMES
              1      19     1743.65       500      610      700      900      950      970     1000      129      960     1100   
                                          VAR    BASINP    GEOM    SYMINP    ZMAT    AOBASIS   BASIS     P2S    ABASIS      S 
                                         1400     1410     1200     1210     1080     1600     1650     1300     1700   
                                           T        V       H0       H01     AOSYM     SMH    MOLCAS    ERIS     OPER   

              2       3        1.40       700     1000     2100   
                                         GEOM     BASIS     RHF  

 PROGRAMS   *        TOTAL       RHF       INT
 CPU TIMES  *        62.76     47.00     15.70
 REAL TIME  *        72.34 SEC
 DISK USED  *         6.38 GB      
 GA USED    *         0.01 MB       (max)       0.00 MB       (current)
 **********************************************************************************************************************************


1PROGRAM * CCSD (Closed-shell coupled cluster)     Authors: C. Hampel, H.-J. Werner, 1991, M. Deegan, P.J. Knowles, 1992


 Convergence thresholds:  THRVAR = 1.00D-08  THRDEN = 1.00D-12

 CCSD(T)     terms to be evaluated (factor= 1.000)


 Number of core orbitals:           7 (   7 )
 Number of closed-shell orbitals:  19 (  19 )
 Number of external orbitals:     180 ( 180 )

 Molecular orbitals read from record     2100.2  Type=RHF/CANONICAL (state 1.1)

 Number of N-1 electron functions:              19
 Number of N-2 electron functions:             190
 Number of singly external CSFs:              3420
 Number of doubly external CSFs:           5849910
 Total number of CSFs:                     5853331

 Length of J-op  integral file:               0.00 MB
 Length of K-op  integral file:               2.96 MB
 Length of 3-ext integral record:             0.00 MB

 Memory could be reduced to 140.12 Mwords without degradation in triples

 Integral transformation finished. Total CPU:  16.87 sec, npass=  1  Memory used: 101.90 MW

 Reference energy:                   -286.93135831

 MP2 singlet pair energy:              -0.62063922
 MP2 triplet pair energy:              -0.38983670
 MP2 correlation energy:               -1.01047592
 MP2 total energy:                   -287.94183423

 SCS-MP2 correlation energy:           -0.98733212   (PS=  1.200000  PT=  0.333333)
 SCS-MP2 total energy:               -287.91869043

 ITER.      SQ.NORM     CORR.ENERGY   TOTAL ENERGY   ENERGY CHANGE        DEN1      VAR(S)    VAR(P)  DIIS     TIME
   1      1.38488812    -1.05476833  -287.98612664    -0.04429241    -0.01721270  0.36D-02  0.80D-02  1  1    69.36
   2      1.41440153    -1.06063106  -287.99198937    -0.00586273    -0.02705378  0.63D-04  0.10D-02  2  2   122.16
   3      1.42353293    -1.06072680  -287.99208511    -0.00009574    -0.00464384  0.27D-04  0.84D-04  3  3   174.98
   4      1.42747000    -1.06089556  -287.99225388    -0.00016877    -0.00121418  0.22D-05  0.11D-04  4  4   227.81
   5      1.42868336    -1.06092652  -287.99228484    -0.00003096    -0.00027317  0.27D-06  0.13D-05  5  5   280.63
   6      1.42898589    -1.06091629  -287.99227461     0.00001023    -0.00004348  0.23D-07  0.79D-07  6  6   333.66
   7      1.42902664    -1.06091793  -287.99227624    -0.00000163    -0.00000103  0.35D-08  0.82D-08  6  2   386.57
   8      1.42903583    -1.06091778  -287.99227610     0.00000014    -0.00000117  0.76D-09  0.76D-09  6  1   439.48
   9      1.42903566    -1.06091792  -287.99227623    -0.00000014     0.00000123  0.21D-09  0.92D-10  6  4   492.39
  10      1.42903686    -1.06091793  -287.99227624    -0.00000001    -0.00000018  0.57D-10  0.15D-10  6  3   545.30
  11      1.42903681    -1.06091795  -287.99227626    -0.00000002     0.00000013  0.14D-10  0.37D-11  6  5   598.20
  12      1.42903676    -1.06091795  -287.99227626    -0.00000000     0.00000003  0.14D-11  0.10D-11  6  6   651.07
  13      1.42903659    -1.06091795  -287.99227626    -0.00000000     0.00000006  0.69D-13  0.20D-12  6  2   703.94
  14      1.42903649    -1.06091795  -287.99227627    -0.00000000     0.00000003  0.81D-14  0.40D-13  6  1   756.80
  15      1.42903643    -1.06091795  -287.99227627    -0.00000000     0.00000001  0.89D-15  0.54D-14  6  3   809.77
  16      1.42903641    -1.06091795  -287.99227627    -0.00000000     0.00000000  0.12D-15  0.37D-15  6  4   862.69
  17      1.42903640    -1.06091795  -287.99227627    -0.00000000     0.00000000  0.31D-16  0.44D-16  6  5   915.55
  18      1.42903640    -1.06091795  -287.99227627    -0.00000000     0.00000000  0.82D-17  0.70D-17  6  6   968.44
  19      1.42903640    -1.06091795  -287.99227627    -0.00000000     0.00000000  0.24D-17  0.77D-18  6  2  1021.32
  20      1.42903640    -1.06091795  -287.99227627    -0.00000000     0.00000000  0.77D-18  0.19D-18  6  1  1074.28
  21      1.42903640    -1.06091795  -287.99227627    -0.00000000     0.00000000  0.29D-18  0.76D-19  6  3  1127.15
  22      1.42903640    -1.06091795  -287.99227627    -0.00000000     0.00000000  0.12D-18  0.38D-19  6  4  1180.02
  23      1.42903640    -1.06091795  -287.99227627    -0.00000000     0.00000000  0.54D-19  0.20D-19  6  6  1232.91

 Norm of t1 vector:      0.08384831      S-energy:    -0.00000000      T1 diagnostic:  0.00961806
                                                                       D1 diagnostic:  0.02618374

 Doubles amplitudes (print threshold =  0.500E-01):

         I         J         SYM. A    SYM. B    A         B      T(IJ, AB)

        18        18         1         1         6         6     -0.05129079
        19        19         1         1         7         7     -0.05457857


 Total CPU time for triples:   1023.96 sec


 RESULTS
 =======

  Reference energy                   -286.931358312814
  CCSD singlet pair energy             -0.711164968533
  CCSD triplet pair energy             -0.349752985060
  CCSD correlation energy              -1.060917953593

  Triples (T) contribution             -0.045604983542
  Total correlation energy             -1.106522937135

  CCSD total energy                  -287.992276266408
  CCSD[T] energy                     -288.038751339680
  CCSD-T energy                      -288.037492701905
 !CCSD(T) total energy               -288.037881249950

 Timing summary (sec):

 STEP                 CPU(USER)    SYS     CPU(TOT)    WALL
 Transformation         17.51      0.91     18.42     18.43
 CCSD iterations      1215.43     12.75   1228.18   1228.30
 Triples              1023.96     11.32   1035.28   1035.35

 Program statistics:

 Available memory in ccsd:               999998456
 Min. memory needed in ccsd:              14392275
 Max. memory used in ccsd:                19775697
 Max. memory used in cckext:              16737545 (23 integral passes)



 **********************************************************************************************************************************
 DATASETS  * FILE   NREC   LENGTH (MB)   RECORD NAMES
              1      20     2287.25       500      610      700      900      950      970     1000      129      960     1100   
                                          VAR    BASINP    GEOM    SYMINP    ZMAT    AOBASIS   BASIS     P2S    ABASIS      S 
                                         1400     1410     1200     1210     1080     1600     1650     1300     1700     1380   
                                           T        V       H0       H01     AOSYM     SMH    MOLCAS    ERIS     OPER     JKOP   

              2       3        1.40       700     1000     2100   
                                         GEOM     BASIS     RHF  

 PROGRAMS   *        TOTAL   CCSD(T)       RHF       INT
 CPU TIMES  *      2319.68   2256.92     47.00     15.70
 REAL TIME  *      2354.54 SEC
 DISK USED  *         6.38 GB      
 GA USED    *         0.01 MB       (max)       0.00 MB       (current)
 **********************************************************************************************************************************

        CCSD(T)         RHF-SCF 
   -288.03788125   -286.93135831
 **********************************************************************************************************************************
 Variable memory released
