
 Primary working directories    : /tmp/880701.351.gen6.q
 Secondary working directories  : /tmp/880701.351.gen6.q
 Wavefunction directory         : /home/vulcan/lo21740/wfu/
 Main file repository           : /tmp/880701.351.gen6.q/

 ARCHNAME  : Linux/x86_64
 FC        : /opt/intel/compilers_and_libraries_2016.1.150/linux/bin/intel64/ifort
 FCVERSION : 16.0.1
 BLASLIB   : -mkl
 id        : ccgc

 Nodes     nprocs
 n074         1
 ga_uses_ma=false, calling ma_init with nominal heap.
 GA-space will be limited to   8.0 MW (determined by -G option)

 Using customized tuning parameters: mindgm=10; mindgv=16; mindgc=4; mindgr=1; noblas=0; mincuda=1000; minvec=7
 default implementation of scratch files=df  

 ***,Optimization of formamide
 memory,1000,m
 gthresh,energy=1.0d-12,orbital=1.0d-10,oneint=1.0d-16,twoint=1.0d-16,optgrad=1.0d-6,compress=1.0d-13
 geomtyp=xyz
 
 bohr
 geometry = {
  C   -3.8261467007    0.0851370719   -0.0000000000
  O   -2.7331543897    2.1393059369   -0.0000000000
  N   -2.6854840579   -2.1784706594    0.0000000000
  H   -3.7369221321   -3.7554024022    0.0000000000
  H   -0.7513466968   -2.3065359251   -0.0000000000
  H   -5.9004807719   -0.0181108702    0.0000000000
  C    3.8294491255   -0.0867795758    0.0000000000
  O    2.7313253284   -2.1385980412    0.0000000000
  N    2.6818755163    2.1809325036   -0.0000000000
  H    3.7378080928    3.7548059657    0.0000000000
  H    0.7535370613    2.3053618709    0.0000000000
  H    5.8995396249    0.0183541251    0.0000000000
 }
 
 basis=AVDZ
 {rhf;maxit,200}
 {ccsd(t);maxit,200}

 Variables initialized (661), CPU time= 0.00 sec
 Commands  initialized (458), CPU time= 0.01 sec, 486 directives.
 Default parameters read. Elapsed time= 0.04 sec

 Checking input...
 Passed
1


                                         ***  PROGRAM SYSTEM MOLPRO  ***
                         Copyright, University College Cardiff Consultants Limited, 2008

                                    Version 2010.1 linked May 16 2016 07:17:05


 **********************************************************************************************************************************
 LABEL *   Optimization of formamide                                                     
 Linux-4.4.3/n074(x86_64) 64 bit mpp version                                             DATE: 24-May-23          TIME: 21:30:07  
 **********************************************************************************************************************************

 SHA1:             9e8077add272b0f3cad6f7df79ec5211205f459d
 **********************************************************************************************************************************

 THRESHOLDS:

 ZERO    =  1.00D-12  ONEINT  =  1.00D-16  TWOINT  =  1.00D-16  PREFAC  =  1.00D-14  LOCALI  =  1.00D-09  EORDER  =  1.00D-04
 ENERGY  =  1.00D-12  ETEST   =  0.00D+00  EDENS   =  0.00D+00  THRDEDEF=  1.00D-06  GRADIENT=  1.00D-02  STEP    =  1.00D-03
 ORBITAL =  1.00D-10  CIVEC   =  1.00D-05  COEFF   =  1.00D-04  PRINTCI =  5.00D-02  PUNCHCI =  9.90D+01  OPTGRAD =  1.00D-06
 OPTENERG=  1.00D-06  OPTSTEP =  3.00D-04  THRGRAD =  1.00D-10  COMPRESS=  1.00D-13  VARMIN  =  1.00D-07  VARMAX  =  1.00D-03
 THRDOUB =  0.00D+00  THRDIV  =  1.00D-05  THRRED  =  1.00D-07  THRPSP  =  1.00D+00  THRDC   =  1.00D-10  THRCS   =  1.00D-10
 THRNRM  =  1.00D-08  THREQ   =  0.00D+00  THRDE   =  1.00D+00  THRREF  =  1.00D-05  SPARFAC =  1.00D+00  THRDLP  =  1.00D-07
 THRDIA  =  1.00D-10  THRDLS  =  1.00D-07  THRGPS  =  0.00D+00  THRKEX  =  0.00D+00  THRDIS  =  2.00D-01  THRVAR  =  1.00D-10
 THRLOC  =  1.00D-06  THRGAP  =  1.00D-06  THRLOCT = -1.00D+00  THRGAPT = -1.00D+00  THRORB  =  1.00D-06  THRMLTP =  0.00D+00
 THRCPQCI=  1.00D-10  KEXTA   =  0.00D+00  THRCOARS=  0.00D+00  SYMTOL  =  1.00D-06  GRADTOL =  1.00D-06  THROVL  =  1.00D-08
 THRORTH =  1.00D-08  GRID    =  1.00D-06  GRIDMAX =  1.00D-03  DTMAX   =  0.00D+00

 SETTING GEOMTYP        =    XYZ
 ZUNIT=BOHR
 

 Variable memory set to 1000000000 words,  buffer space   230000 words

 SETTING BASIS          =    AVDZ


 Recomputing integrals since basis changed


 Using spherical harmonics

 Library entry C      S aug-cc-pVDZ          selected for orbital group  1
 Library entry C      P aug-cc-pVDZ          selected for orbital group  1
 Library entry C      D aug-cc-pVDZ          selected for orbital group  1
 Library entry O      S aug-cc-pVDZ          selected for orbital group  2
 Library entry O      P aug-cc-pVDZ          selected for orbital group  2
 Library entry O      D aug-cc-pVDZ          selected for orbital group  2
 Library entry N      S aug-cc-pVDZ          selected for orbital group  3
 Library entry N      P aug-cc-pVDZ          selected for orbital group  3
 Library entry N      D aug-cc-pVDZ          selected for orbital group  3
 Library entry H      S aug-cc-pVDZ          selected for orbital group  4
 Library entry H      P aug-cc-pVDZ          selected for orbital group  4

1PROGRAM * SEWARD (Integral evaluation for generally contracted gaussian basis sets)     Author: Roland Lindh, 1990

 Geometry written to block  1 of record 700


 Point group  Cs  



 ATOMIC COORDINATES

 NR  ATOM    CHARGE       X              Y              Z

   1  C       6.00   -3.826146701    0.085137072    0.000000000
   2  O       8.00   -2.733154390    2.139305937    0.000000000
   3  N       7.00   -2.685484058   -2.178470659    0.000000000
   4  H       1.00   -3.736922132   -3.755402402    0.000000000
   5  H       1.00   -0.751346697   -2.306535925    0.000000000
   6  H       1.00   -5.900480772   -0.018110870    0.000000000
   7  C       6.00    3.829449126   -0.086779576    0.000000000
   8  O       8.00    2.731325328   -2.138598041    0.000000000
   9  N       7.00    2.681875516    2.180932504    0.000000000
  10  H       1.00    3.737808093    3.754805966    0.000000000
  11  H       1.00    0.753537061    2.305361871    0.000000000
  12  H       1.00    5.899539625    0.018354125    0.000000000

 Bond lengths in Bohr (Angstrom)

 1-2  2.326852363  1-3  2.534764531  1-6  2.076902014  3-4  1.895319431  3-5  1.938372525
     ( 1.231317239)     ( 1.341339620)     ( 1.099049211)     ( 1.002959847)     ( 1.025742563)

  7- 8  2.327194639   7- 9  2.541543481   7-12  2.072758493   9-10  1.895276043   9-11  1.932348795
       ( 1.231498364)       ( 1.344926886)       ( 1.096856554)       ( 1.002936887)       ( 1.022554942)

 Bond angles

  1-3-4  119.56199850   1-3-5  120.53235748   2-1-3  125.23907485   2-1-6  120.86625988

  3- 1- 6  113.89466527   4- 3- 5  119.90564403   7- 9-10  119.30016663   7- 9-11  120.53363975

  8- 7- 9  125.00286631   8- 7-12  121.06286777   9- 7-12  113.93426593  10- 9-11  120.16619362

 NUCLEAR CHARGE:                   48
 NUMBER OF PRIMITIVE AOS:         288
 NUMBER OF SYMMETRY AOS:          276
 NUMBER OF CONTRACTIONS:          192   ( 138A'  +  54A"  )
 NUMBER OF CORE ORBITALS:           6   (   6A'  +   0A"  )
 NUMBER OF VALENCE ORBITALS:       30   (  24A'  +   6A"  )


 NUCLEAR REPULSION ENERGY  230.48096558


 Eigenvalues of metric

         1 0.232E-03 0.270E-03 0.524E-03 0.527E-03 0.562E-03 0.701E-03 0.713E-03 0.715E-03
         2 0.182E-01 0.198E-01 0.283E-01 0.283E-01 0.335E-01 0.338E-01 0.416E-01 0.451E-01


 Contracted 2-electron integrals neglected if value below      1.0D-16
 AO integral compression algorithm  1   Integral accuracy      1.0D-16

     746.324 MB (compressed) written to integral file ( 93.7%)

     Node minimum: 746.324 MB, node maximum: 746.324 MB


 NUMBER OF SORTED TWO-ELECTRON INTEGRALS:   89829696.     BUFFER LENGTH:  32768
 NUMBER OF SEGMENTS:   6  SEGMENT LENGTH:   15998004      RECORD LENGTH: 524288

 Memory used in sort:      16.56 MW

 SORT1 READ    99568560. AND WROTE    89009593. INTEGRALS IN    258 RECORDS. CPU TIME:     1.00 SEC, REAL TIME:     1.50 SEC
 SORT2 READ    89009593. AND WROTE    89829696. INTEGRALS IN   2847 RECORDS. CPU TIME:     0.65 SEC, REAL TIME:     1.00 SEC

 FILE SIZES:   FILE 1:   691.9 MBYTE,  FILE 4:  1082.2 MBYTE,   TOTAL:   1774.1 MBYTE

 OPERATOR DM      FOR CENTER  0  COORDINATES:    0.000000    0.000000    0.000000


 **********************************************************************************************************************************
 DATASETS  * FILE   NREC   LENGTH (MB)   RECORD NAMES
              1      19      692.15       500      610      700      900      950      970     1000      129      960     1100   
                                          VAR    BASINP    GEOM    SYMINP    ZMAT    AOBASIS   BASIS     P2S    ABASIS      S 
                                         1400     1410     1200     1210     1080     1600     1650     1300     1700   
                                           T        V       H0       H01     AOSYM     SMH    MOLCAS    ERIS     OPER   

 PROGRAMS   *        TOTAL       INT
 CPU TIMES  *         7.12      7.08
 REAL TIME  *         8.48 SEC
 DISK USED  *         2.52 GB      
 GA USED    *         0.00 MB       (max)       0.00 MB       (current)
 **********************************************************************************************************************************

1PROGRAM * RHF-SCF (CLOSED SHELL)       Authors: W. Meyer, H.-J. Werner


 NUMBER OF ELECTRONS:      24+   24-
 CONVERGENCE THRESHOLDS:    1.00E-10 (Density)    1.00E-13 (Energy)
 MAX. NUMBER OF ITERATIONS:      200
 INTERPOLATION TYPE:            DIIS
 INTERPOLATION STEPS:              2 (START)      1 (STEP)
 LEVEL SHIFTS:                  0.00 (CLOSED)  0.00 (OPEN) 



 Orbital guess generated from atomic densities. Full valence occupancy:   30   6

 Molecular orbital dump at record        2100.2

 Initial alpha occupancy:  20   4
 Initial beta  occupancy:  20   4
 Wave function symmetry:    1

 ITERATION    DDIFF          GRAD             ENERGY        2-EL.EN.            DIPOLE MOMENTS         DIIS
    1      0.000D+00      0.000D+00      -337.80614800    704.636789    0.01499   -0.01437    0.00000    0
    2      0.000D+00      0.728D-02      -337.88357679    699.028778    0.00961   -0.00627    0.00000    1
    3      0.138D-01      0.531D-02      -337.94132648    701.765747    0.01062   -0.00852    0.00000    2
    4      0.561D-02      0.701D-03      -337.94353779    701.670389    0.01055   -0.00856    0.00000    3
    5      0.134D-02      0.241D-03      -337.94380552    701.603598    0.01029   -0.00845    0.00000    4
    6      0.456D-03      0.793D-04      -337.94386660    701.629087    0.01026   -0.00851    0.00000    5
    7      0.201D-03      0.351D-04      -337.94387758    701.620284    0.01023   -0.00852    0.00000    6
    8      0.957D-04      0.104D-04      -337.94387853    701.625769    0.01023   -0.00854    0.00000    7
    9      0.302D-04      0.314D-05      -337.94387860    701.623312    0.01023   -0.00853    0.00000    8
   10      0.788D-05      0.109D-05      -337.94387861    701.623859    0.01023   -0.00855    0.00000    7
   11      0.329D-05      0.268D-06      -337.94387861    701.623792    0.01023   -0.00853    0.00000    8
   12      0.752D-06      0.755D-07      -337.94387861    701.623796    0.01023   -0.00854    0.00000    8
   13      0.142D-06      0.367D-07      -337.94387861    701.623792    0.01023   -0.00854    0.00000    8
   14      0.613D-07      0.100D-07      -337.94387861    701.623796    0.01023   -0.00854    0.00000    8
   15      0.252D-07      0.320D-08      -337.94387861    701.623795    0.01023   -0.00854    0.00000    8
   16      0.693D-08      0.642D-09      -337.94387861    701.623795    0.01023   -0.00854    0.00000    8
   17      0.141D-08      0.223D-09      -337.94387861    701.623795    0.01023   -0.00854    0.00000    8
   18      0.420D-09      0.673D-10      -337.94387861    701.623795    0.01023   -0.00854    0.00000    8
   19      0.136D-09      0.272D-10      -337.94387861    701.623795    0.01023   -0.00854    0.00000    8
   20      0.504D-10      0.628D-11      -337.94387861    701.623795    0.01023   -0.00854    0.00000    7
   21      0.160D-10      0.205D-11      -337.94387861    701.623795    0.01023   -0.00854    0.00000    7
   22      0.613D-11      0.108D-11      -337.94387861    701.623795    0.01023   -0.00854    0.00000    8
   23      0.363D-11      0.299D-12      -337.94387861    701.623795    0.01023   -0.00854    0.00000    8
   24      0.426D-11      0.217D-12      -337.94387861    701.623795    0.01023   -0.00854    0.00000    9
   25      0.344D-11      0.145D-12      -337.94387861    701.623795    0.01023   -0.00854    0.00000    9
   26      0.202D-11      0.128D-12      -337.94387861    701.623795    0.01023   -0.00854    0.00000    9
   27      0.150D-11      0.122D-12      -337.94387861    701.623795    0.01023   -0.00854    0.00000    9
   28      0.139D-11      0.116D-12      -337.94387861    701.623795    0.01023   -0.00854    0.00000    9
   29      0.728D-12      0.986D-13      -337.94387861    701.623795    0.01023   -0.00854    0.00000    9
   30      0.811D-12      0.816D-13      -337.94387861    701.623795    0.01023   -0.00854    0.00000    9
   31      0.640D-12      0.869D-13      -337.94387861    701.623795    0.01023   -0.00854    0.00000    9
   32      0.635D-12      0.960D-13      -337.94387861    701.623795    0.01023   -0.00854    0.00000    9
   33      0.606D-12      0.891D-13      -337.94387861    701.623795    0.01023   -0.00854    0.00000    9
   34      0.633D-12      0.893D-13      -337.94387861    701.623795    0.01023   -0.00854    0.00000    9
   35      0.446D-12      0.944D-13      -337.94387861    701.623795    0.01023   -0.00854    0.00000    9
   36      0.340D-12      0.913D-13      -337.94387861    701.623795    0.01023   -0.00854    0.00000    9
   37      0.262D-12      0.802D-13      -337.94387861    701.623795    0.01023   -0.00854    0.00000    9
   38      0.229D-12      0.863D-13      -337.94387861    701.623795    0.01023   -0.00854    0.00000    9
   39      0.342D-12      0.725D-13      -337.94387861    701.623795    0.01023   -0.00854    0.00000    9
   40      0.462D-12      0.769D-13      -337.94387861    701.623795    0.01023   -0.00854    0.00000    0

 Final occupancy:  20   4

 !RHF STATE 1.1 Energy               -337.943878610221
 Nuclear energy                       230.48096558
 One-electron energy                 -919.23674162
 Two-electron energy                  350.81189743
 Virial quotient                       -1.00169924
 !RHF STATE 1.1 Dipole moment           0.01022847    -0.00853829     0.00000000
 Dipole moment /Debye                   0.02599649    -0.02170075     0.00000000

 Orbital energies:

         1.1          2.1          3.1          4.1          5.1          6.1          7.1          8.1          9.1         10.1
    -20.541442   -20.540677   -15.588999   -15.588700   -11.367808   -11.367179    -1.389157    -1.384436    -1.218779    -1.212552

        11.1         12.1         13.1         14.1         15.1         16.1         17.1         18.1         19.1         20.1
     -0.861305    -0.836354    -0.750431    -0.741376    -0.705869    -0.645217    -0.619493    -0.593806    -0.454446    -0.429119

        21.1         22.1
      0.033379     0.036362

         1.2          2.2          3.2          4.2          5.2          6.2
     -0.573639    -0.565610    -0.420311    -0.409769     0.092350     0.103384


 **********************************************************************************************************************************
 DATASETS  * FILE   NREC   LENGTH (MB)   RECORD NAMES
              1      19      692.15       500      610      700      900      950      970     1000      129      960     1100   
                                          VAR    BASINP    GEOM    SYMINP    ZMAT    AOBASIS   BASIS     P2S    ABASIS      S 
                                         1400     1410     1200     1210     1080     1600     1650     1300     1700   
                                           T        V       H0       H01     AOSYM     SMH    MOLCAS    ERIS     OPER   

              2       3        0.91       700     1000     2100   
                                         GEOM     BASIS     RHF  

 PROGRAMS   *        TOTAL       RHF       INT
 CPU TIMES  *        23.94     16.82      7.08
 REAL TIME  *        27.80 SEC
 DISK USED  *         2.52 GB      
 GA USED    *         0.00 MB       (max)       0.00 MB       (current)
 **********************************************************************************************************************************


1PROGRAM * CCSD (Closed-shell coupled cluster)     Authors: C. Hampel, H.-J. Werner, 1991, M. Deegan, P.J. Knowles, 1992


 Convergence thresholds:  THRVAR = 1.00D-08  THRDEN = 1.00D-12

 CCSD(T)     terms to be evaluated (factor= 1.000)


 Number of core orbitals:           6 (   6   0 )
 Number of closed-shell orbitals:  18 (  14   4 )
 Number of external orbitals:     168 ( 118  50 )

 Molecular orbitals read from record     2100.2  Type=RHF/CANONICAL (state 1.1)

 Number of N-1 electron functions:              18
 Number of N-2 electron functions:             171
 Number of singly external CSFs:              1852
 Number of doubly external CSFs:           2403256
 Total number of CSFs:                     2405109

 Length of J-op  integral file:               0.00 MB
 Length of K-op  integral file:               1.55 MB
 Length of 3-ext integral record:             0.00 MB

 Memory could be reduced to 56.93 Mwords without degradation in triples

 Integral transformation finished. Total CPU:   2.85 sec, npass=  1  Memory used:  23.60 MW

 Reference energy:                   -337.94387861

 MP2 singlet pair energy:              -0.62264402
 MP2 triplet pair energy:              -0.40610014
 MP2 correlation energy:               -1.02874416
 MP2 total energy:                   -338.97262277

 SCS-MP2 correlation energy:           -0.99985735   (PS=  1.200000  PT=  0.333333)
 SCS-MP2 total energy:               -338.94373596

 ITER.      SQ.NORM     CORR.ENERGY   TOTAL ENERGY   ENERGY CHANGE        DEN1      VAR(S)    VAR(P)  DIIS     TIME
   1      1.31920128    -1.05727110  -339.00114971    -0.02852694     0.00276589  0.10D-01  0.60D-02  1  1     9.23
   2      1.34469340    -1.05915228  -339.00303089    -0.00188118    -0.02594275  0.22D-03  0.11D-02  2  2    15.75
   3      1.35732117    -1.06004445  -339.00392306    -0.00089217    -0.00555926  0.22D-03  0.52D-04  3  3    22.28
   4      1.36253462    -1.05978027  -339.00365888     0.00026417    -0.00169425  0.22D-04  0.96D-05  4  4    28.79
   5      1.36468526    -1.05972279  -339.00360140     0.00005749    -0.00044970  0.27D-05  0.12D-05  5  5    35.33
   6      1.36520637    -1.05969412  -339.00357273     0.00002867    -0.00004963  0.27D-06  0.19D-06  6  6    41.86
   7      1.36533349    -1.05968185  -339.00356046     0.00001227    -0.00000196  0.35D-07  0.23D-07  6  1    48.41
   8      1.36537062    -1.05968066  -339.00355928     0.00000118    -0.00000696  0.74D-08  0.33D-08  6  2    54.96
   9      1.36537211    -1.05968083  -339.00355944    -0.00000017     0.00000266  0.13D-08  0.48D-09  6  3    61.50
  10      1.36537684    -1.05968029  -339.00355890     0.00000054    -0.00000109  0.32D-09  0.68D-10  6  4    68.05
  11      1.36537659    -1.05968054  -339.00355915    -0.00000025     0.00000046  0.58D-10  0.13D-10  6  5    74.59
  12      1.36537659    -1.05968051  -339.00355913     0.00000003     0.00000002  0.43D-11  0.35D-11  6  6    81.12
  13      1.36537631    -1.05968056  -339.00355917    -0.00000004     0.00000012  0.11D-11  0.38D-12  6  1    87.65
  14      1.36537621    -1.05968057  -339.00355918    -0.00000001     0.00000004  0.85D-13  0.71D-13  6  2    94.19
  15      1.36537619    -1.05968057  -339.00355918     0.00000000     0.00000001  0.19D-13  0.11D-13  6  3   100.74
  16      1.36537619    -1.05968057  -339.00355918    -0.00000000     0.00000000  0.42D-14  0.19D-14  6  4   107.27
  17      1.36537619    -1.05968057  -339.00355918     0.00000000    -0.00000000  0.63D-15  0.37D-15  6  5   113.81
  18      1.36537619    -1.05968057  -339.00355918     0.00000000    -0.00000000  0.19D-15  0.63D-16  6  6   120.35
  19      1.36537619    -1.05968057  -339.00355918    -0.00000000    -0.00000000  0.32D-16  0.14D-16  6  1   126.89
  20      1.36537619    -1.05968057  -339.00355918     0.00000000    -0.00000000  0.79D-17  0.33D-17  6  2   133.44
  21      1.36537619    -1.05968057  -339.00355918    -0.00000000     0.00000000  0.19D-17  0.66D-18  6  3   139.97
  22      1.36537619    -1.05968057  -339.00355918    -0.00000000     0.00000000  0.27D-18  0.16D-18  6  4   146.51
  23      1.36537619    -1.05968057  -339.00355918    -0.00000000     0.00000000  0.88D-19  0.34D-19  6  5   153.06
  24      1.36537619    -1.05968057  -339.00355918    -0.00000000     0.00000000  0.16D-19  0.81D-20  6  6   159.60
  25      1.36537619    -1.05968057  -339.00355918    -0.00000000    -0.00000000  0.45D-20  0.14D-20  6  3   166.13
  26      1.36537619    -1.05968057  -339.00355918    -0.00000000    -0.00000000  0.81D-21  0.23D-21  6  1   172.66

 Norm of t1 vector:      0.14830121      S-energy:     0.00000000      T1 diagnostic:  0.01747746
                                                                       D1 diagnostic:  0.05909054


 Total CPU time for triples:    159.27 sec


 RESULTS
 =======

  Reference energy                   -337.943878610223
  CCSD singlet pair energy             -0.699542547773
  CCSD triplet pair energy             -0.360138017679
  CCSD correlation energy              -1.059680565452

  Triples (T) contribution             -0.039919235634
  Total correlation energy             -1.099599801085

  CCSD total energy                  -339.003559175675
  CCSD[T] energy                     -339.046700256655
  CCSD-T energy                      -339.042355960282
 !CCSD(T) total energy               -339.043478411308

 Timing summary (sec):

 STEP                 CPU(USER)    SYS     CPU(TOT)    WALL
 Transformation          2.94      0.31      3.25      3.26
 CCSD iterations       169.73      4.45    174.18    174.23
 Triples               159.27      3.47    162.74    162.76

 Program statistics:

 Available memory in ccsd:               999998604
 Min. memory needed in ccsd:               6087664
 Max. memory used in ccsd:                 8297292
 Max. memory used in cckext:               8019339 (26 integral passes)



 **********************************************************************************************************************************
 DATASETS  * FILE   NREC   LENGTH (MB)   RECORD NAMES
              1      20      912.64       500      610      700      900      950      970     1000      129      960     1100   
                                          VAR    BASINP    GEOM    SYMINP    ZMAT    AOBASIS   BASIS     P2S    ABASIS      S 
                                         1400     1410     1200     1210     1080     1600     1650     1300     1700     1380   
                                           T        V       H0       H01     AOSYM     SMH    MOLCAS    ERIS     OPER     JKOP   

              2       3        0.91       700     1000     2100   
                                         GEOM     BASIS     RHF  

 PROGRAMS   *        TOTAL   CCSD(T)       RHF       INT
 CPU TIMES  *       355.88    331.94     16.82      7.08
 REAL TIME  *       368.11 SEC
 DISK USED  *         2.52 GB      
 GA USED    *         0.00 MB       (max)       0.00 MB       (current)
 **********************************************************************************************************************************

        CCSD(T)         RHF-SCF 
   -339.04347841   -337.94387861
 **********************************************************************************************************************************
 Variable memory released
