
 Primary working directories    : /tmp/1065196.868.gen6.q
 Secondary working directories  : /tmp/1065196.868.gen6.q
 Wavefunction directory         : /home/vulcan/jj04645/wfu/
 Main file repository           : /tmp/1065196.868.gen6.q/

 ARCHNAME  : Linux/x86_64
 FC        : /opt/intel/compilers_and_libraries_2016.1.150/linux/bin/intel64/ifort
 FCVERSION : 16.0.1
 BLASLIB   : -mkl
 id        : ccgc

 Nodes     nprocs
 n083         1
 ga_uses_ma=false, calling ma_init with nominal heap.
 GA-space will be limited to   8.0 MW (determined by -G option)

 Using customized tuning parameters: mindgm=10; mindgv=16; mindgc=4; mindgr=1; noblas=0; mincuda=1000; minvec=7
 default implementation of scratch files=df  

 ***,Optimization of t-butanol
 memory,1000,m
 gthresh,energy=1.0d-12,orbital=1.0d-10,oneint=1.0d-16,twoint=1.0d-16,optgrad=1.0d-6,compress=1.0d-13
 geomtyp=xyz
 
 bohr
 geometry = {
  C    0.0125753423   -0.0573351066   -0.0004845568
  O   -0.0165447341    2.6554110885   -0.0003217256
  C   -2.7596202558   -0.8339304643    0.0002829116
  C    1.3323341779   -1.0156645322   -2.3848979630
  C    1.3337301349   -1.0159357408    2.3830466057
  H    1.7156754183    3.2110972884   -0.0007972760
  H   -2.9364794388   -2.8901103244    0.0002177337
  H   -3.7034793770   -0.0841708803   -1.6735148662
  H   -3.7024990725   -0.0843613415    1.6747183813
  H    1.3099127030   -3.0791161072   -2.4668719662
  H    3.3106160443   -0.3963547894   -2.4178013862
  H    0.3908706278   -0.2743873539   -4.0576427098
  H    1.3113566295   -3.0793966264    2.4647990501
  H    3.3024887316   -0.3996167410    2.4147086413
  H    0.3886756300   -0.2712471677    4.0645591262
 }
 
 basis=VDZ
 {rhf;maxit,200}
 {ccsd(t);maxit,200}

 Variables initialized (661), CPU time= 0.01 sec
 Commands  initialized (458), CPU time= 0.00 sec, 486 directives.
 Default parameters read. Elapsed time= 0.04 sec

 Checking input...
 Passed
1


                                         ***  PROGRAM SYSTEM MOLPRO  ***
                         Copyright, University College Cardiff Consultants Limited, 2008

                                    Version 2010.1 linked May 16 2016 07:17:05


 **********************************************************************************************************************************
 LABEL *   Optimization of t-butanol                                                     
 Linux-4.4.3/n083(x86_64) 64 bit mpp version                                             DATE: 20-May-24          TIME: 13:57:34  
 **********************************************************************************************************************************

 SHA1:             9e8077add272b0f3cad6f7df79ec5211205f459d
 **********************************************************************************************************************************

 THRESHOLDS:

 ZERO    =  1.00D-12  ONEINT  =  1.00D-16  TWOINT  =  1.00D-16  PREFAC  =  1.00D-14  LOCALI  =  1.00D-09  EORDER  =  1.00D-04
 ENERGY  =  1.00D-12  ETEST   =  0.00D+00  EDENS   =  0.00D+00  THRDEDEF=  1.00D-06  GRADIENT=  1.00D-02  STEP    =  1.00D-03
 ORBITAL =  1.00D-10  CIVEC   =  1.00D-05  COEFF   =  1.00D-04  PRINTCI =  5.00D-02  PUNCHCI =  9.90D+01  OPTGRAD =  1.00D-06
 OPTENERG=  1.00D-06  OPTSTEP =  3.00D-04  THRGRAD =  1.00D-10  COMPRESS=  1.00D-13  VARMIN  =  1.00D-07  VARMAX  =  1.00D-03
 THRDOUB =  0.00D+00  THRDIV  =  1.00D-05  THRRED  =  1.00D-07  THRPSP  =  1.00D+00  THRDC   =  1.00D-10  THRCS   =  1.00D-10
 THRNRM  =  1.00D-08  THREQ   =  0.00D+00  THRDE   =  1.00D+00  THRREF  =  1.00D-05  SPARFAC =  1.00D+00  THRDLP  =  1.00D-07
 THRDIA  =  1.00D-10  THRDLS  =  1.00D-07  THRGPS  =  0.00D+00  THRKEX  =  0.00D+00  THRDIS  =  2.00D-01  THRVAR  =  1.00D-10
 THRLOC  =  1.00D-06  THRGAP  =  1.00D-06  THRLOCT = -1.00D+00  THRGAPT = -1.00D+00  THRORB  =  1.00D-06  THRMLTP =  0.00D+00
 THRCPQCI=  1.00D-10  KEXTA   =  0.00D+00  THRCOARS=  0.00D+00  SYMTOL  =  1.00D-06  GRADTOL =  1.00D-06  THROVL  =  1.00D-08
 THRORTH =  1.00D-08  GRID    =  1.00D-06  GRIDMAX =  1.00D-03  DTMAX   =  0.00D+00

 SETTING GEOMTYP        =    XYZ
 ZUNIT=BOHR
 

 Variable memory set to 1000000000 words,  buffer space   230000 words

 SETTING BASIS          =    VDZ


 Recomputing integrals since basis changed


 Using spherical harmonics

 Library entry C      S cc-pVDZ              selected for orbital group  1
 Library entry C      P cc-pVDZ              selected for orbital group  1
 Library entry C      D cc-pVDZ              selected for orbital group  1
 Library entry O      S cc-pVDZ              selected for orbital group  2
 Library entry O      P cc-pVDZ              selected for orbital group  2
 Library entry O      D cc-pVDZ              selected for orbital group  2
 Library entry H      S cc-pVDZ              selected for orbital group  4
 Library entry H      P cc-pVDZ              selected for orbital group  4

1PROGRAM * SEWARD (Integral evaluation for generally contracted gaussian basis sets)     Author: Roland Lindh, 1990

 Geometry written to block  1 of record 700


 Point group  C1  



 ATOMIC COORDINATES

 NR  ATOM    CHARGE       X              Y              Z

   1  C       6.00    0.012575342   -0.057335107   -0.000484557
   2  O       8.00   -0.016544734    2.655411089   -0.000321726
   3  C       6.00   -2.759620256   -0.833930464    0.000282912
   4  C       6.00    1.332334178   -1.015664532   -2.384897963
   5  C       6.00    1.333730135   -1.015935741    2.383046606
   6  H       1.00    1.715675418    3.211097288   -0.000797276
   7  H       1.00   -2.936479439   -2.890110324    0.000217734
   8  H       1.00   -3.703479377   -0.084170880   -1.673514866
   9  H       1.00   -3.702499073   -0.084361342    1.674718381
  10  H       1.00    1.309912703   -3.079116107   -2.466871966
  11  H       1.00    3.310616044   -0.396354789   -2.417801386
  12  H       1.00    0.390870628   -0.274387354   -4.057642710
  13  H       1.00    1.311356630   -3.079396626    2.464799050
  14  H       1.00    3.302488732   -0.399616741    2.414708641
  15  H       1.00    0.388675630   -0.271247168    4.064559126

 Bond lengths in Bohr (Angstrom)

 1-2  2.712902491  1-3  2.878918091  1-4  2.888872784  1-5  2.888872784  2-6  1.819168501
     ( 1.435606168)     ( 1.523457840)     ( 1.528725637)     ( 1.528725637)     ( 0.962662510)

  3- 7  2.063771982   3- 8  2.062670229   3- 9  2.062670229   4-10  2.065200925   4-11  2.073216423
       ( 1.092101097)       ( 1.091518075)       ( 1.091518075)       ( 1.092857262)       ( 1.097098880)

  4-12  2.057649256   5-13  2.065200925   5-14  2.063216423   5-15  2.067649256
       ( 1.088861090)       ( 1.092857262)       ( 1.091807108)       ( 1.094152862)

 Bond angles

  1-2-6  107.17091859   1-3-7  110.56564859   1-3-8  110.02067693   1-3-9  110.02067672

  1- 4-10  111.05427609   1- 4-11  110.48289436   1- 4-12  110.02622582   1- 5-13  111.05427829

  1- 5-14  110.48289335   1- 5-15  110.02622466   2- 1- 3  105.03451877   2- 1- 4  109.67384198

  2-1-5  109.67384198   3-1-4  110.52655953   3-1-5  110.52655953   4-1-5  111.22278384

  7- 3- 8  108.83916957   7- 3- 9  108.83916935   8- 3- 9  108.51019467  10- 4-11  107.95054427

 10- 4-12  108.82712176  11- 4-12  108.42572575  13- 5-14  107.95054655  13- 5-15  108.82712370

 14- 5-15  108.42572146

 NUCLEAR CHARGE:                   42
 NUMBER OF PRIMITIVE AOS:         205
 NUMBER OF SYMMETRY AOS:          200
 NUMBER OF CONTRACTIONS:          120   ( 120A   )
 NUMBER OF CORE ORBITALS:           5   (   5A   )
 NUMBER OF VALENCE ORBITALS:       30   (  30A   )


 NUCLEAR REPULSION ENERGY  199.65084436


 Eigenvalues of metric

         1 0.260E-02 0.486E-02 0.492E-02 0.835E-02 0.169E-01 0.191E-01 0.192E-01 0.240E-01


 Contracted 2-electron integrals neglected if value below      1.0D-16
 AO integral compression algorithm  1   Integral accuracy      1.0D-16

     221.250 MB (compressed) written to integral file ( 96.7%)

     Node minimum: 221.250 MB, node maximum: 221.250 MB


 NUMBER OF SORTED TWO-ELECTRON INTEGRALS:   26357430.     BUFFER LENGTH:  32768
 NUMBER OF SEGMENTS:   2  SEGMENT LENGTH:   15997996      RECORD LENGTH: 524288

 Memory used in sort:      16.56 MW

 SORT1 READ    28587830. AND WROTE    26318600. INTEGRALS IN     76 RECORDS. CPU TIME:     0.26 SEC, REAL TIME:     0.40 SEC
 SORT2 READ    26318600. AND WROTE    26357430. INTEGRALS IN    844 RECORDS. CPU TIME:     0.20 SEC, REAL TIME:     0.31 SEC

 FILE SIZES:   FILE 1:   206.5 MBYTE,  FILE 4:   318.8 MBYTE,   TOTAL:    525.3 MBYTE

 OPERATOR DM      FOR CENTER  0  COORDINATES:    0.000000    0.000000    0.000000


 **********************************************************************************************************************************
 DATASETS  * FILE   NREC   LENGTH (MB)   RECORD NAMES
              1      19      206.64       500      610      700      900      950      970     1000      129      960     1100   
                                          VAR    BASINP    GEOM    SYMINP    ZMAT    AOBASIS   BASIS     P2S    ABASIS      S 
                                         1400     1410     1200     1210     1080     1600     1650     1300     1700   
                                           T        V       H0       H01     AOSYM     SMH    MOLCAS    ERIS     OPER   

 PROGRAMS   *        TOTAL       INT
 CPU TIMES  *         2.53      2.48
 REAL TIME  *         3.06 SEC
 DISK USED  *       747.47 MB      
 GA USED    *         0.01 MB       (max)       0.00 MB       (current)
 **********************************************************************************************************************************

1PROGRAM * RHF-SCF (CLOSED SHELL)       Authors: W. Meyer, H.-J. Werner


 NUMBER OF ELECTRONS:      21+   21-    SPACE SYMMETRY=1    SPIN SYMMETRY: Singlet 
 CONVERGENCE THRESHOLDS:    1.00E-10 (Density)    1.00E-13 (Energy)
 MAX. NUMBER OF ITERATIONS:      200
 INTERPOLATION TYPE:            DIIS
 INTERPOLATION STEPS:              2 (START)      1 (STEP)
 LEVEL SHIFTS:                  0.00 (CLOSED)  0.00 (OPEN) 



 Orbital guess generated from atomic densities. Full valence occupancy:   35

 Molecular orbital dump at record        2100.2

 ITERATION    DDIFF          GRAD             ENERGY        2-EL.EN.            DIPOLE MOMENTS         DIIS
    1      0.000D+00      0.000D+00      -232.08672670    561.123339    0.89073   -0.62452    0.00131    0
    2      0.000D+00      0.616D-02      -232.16301390    555.893374    0.40926   -0.32362   -0.00124    1
    3      0.122D-01      0.265D-02      -232.17371616    557.894414    0.53139   -0.42985   -0.00118    2
    4      0.389D-02      0.733D-03      -232.17501673    557.666210    0.50432   -0.39373   -0.00131    3
    5      0.141D-02      0.192D-03      -232.17509380    557.603305    0.50359   -0.40593   -0.00140    4
    6      0.307D-03      0.358D-04      -232.17509684    557.623371    0.50298   -0.40427   -0.00140    5
    7      0.899D-04      0.659D-05      -232.17509698    557.617747    0.50291   -0.40443   -0.00140    6
    8      0.185D-04      0.211D-05      -232.17509700    557.619321    0.50292   -0.40453   -0.00140    7
    9      0.399D-05      0.680D-06      -232.17509700    557.618976    0.50289   -0.40454   -0.00140    7
   10      0.155D-05      0.190D-06      -232.17509700    557.619031    0.50289   -0.40456   -0.00140    7
   11      0.502D-06      0.392D-07      -232.17509700    557.619019    0.50289   -0.40456   -0.00140    7
   12      0.123D-06      0.122D-07      -232.17509700    557.619027    0.50289   -0.40456   -0.00140    7
   13      0.245D-07      0.520D-08      -232.17509700    557.619025    0.50289   -0.40456   -0.00140    7
   14      0.102D-07      0.173D-08      -232.17509700    557.619025    0.50289   -0.40456   -0.00140    8
   15      0.306D-08      0.446D-09      -232.17509700    557.619025    0.50289   -0.40456   -0.00140    8
   16      0.105D-08      0.110D-09      -232.17509700    557.619025    0.50289   -0.40456   -0.00140    7
   17      0.257D-09      0.306D-10      -232.17509700    557.619025    0.50289   -0.40456   -0.00140    7
   18      0.802D-10      0.852D-11      -232.17509700    557.619025    0.50289   -0.40456   -0.00140    8
   19      0.174D-10      0.227D-11      -232.17509700    557.619025    0.50289   -0.40456   -0.00140    8
   20      0.625D-11      0.757D-12      -232.17509700    557.619025    0.50289   -0.40456   -0.00140    7
   21      0.182D-11      0.262D-12      -232.17509700    557.619025    0.50289   -0.40456   -0.00140    7
   22      0.640D-12      0.913D-13      -232.17509700    557.619025    0.50289   -0.40456   -0.00140    7
   23      0.304D-12      0.383D-13      -232.17509700    557.619025    0.50289   -0.40456   -0.00140    8
   24      0.170D-12      0.367D-13      -232.17509700    557.619025    0.50289   -0.40456   -0.00140    0

 Final occupancy:  21

 !RHF STATE 1.1 Energy               -232.175096998150
 Nuclear energy                       199.65084436
 One-electron energy                 -710.63545369
 Two-electron energy                  278.80951234
 Virial quotient                       -1.00088970
 !RHF STATE 1.1 Dipole moment           0.50289254    -0.40456436    -0.00140115
 Dipole moment /Debye                   1.27814161    -1.02823268    -0.00356112

 Orbital energies:

         1.1          2.1          3.1          4.1          5.1          6.1          7.1          8.1          9.1         10.1
    -20.545146   -11.282063   -11.220594   -11.220507   -11.214176    -1.352178    -1.064280    -0.940400    -0.937626    -0.766692

        11.1         12.1         13.1         14.1         15.1         16.1         17.1         18.1         19.1         20.1
     -0.665520    -0.620605    -0.618355    -0.573158    -0.554297    -0.527701    -0.514509    -0.505244    -0.500463    -0.457438

        21.1         22.1         23.1
     -0.427262     0.166847     0.220177


 **********************************************************************************************************************************
 DATASETS  * FILE   NREC   LENGTH (MB)   RECORD NAMES
              1      19      206.64       500      610      700      900      950      970     1000      129      960     1100   
                                          VAR    BASINP    GEOM    SYMINP    ZMAT    AOBASIS   BASIS     P2S    ABASIS      S 
                                         1400     1410     1200     1210     1080     1600     1650     1300     1700   
                                           T        V       H0       H01     AOSYM     SMH    MOLCAS    ERIS     OPER   

              2       3        0.80       700     1000     2100   
                                         GEOM     BASIS     RHF  

 PROGRAMS   *        TOTAL       RHF       INT
 CPU TIMES  *         6.16      3.64      2.48
 REAL TIME  *         7.17 SEC
 DISK USED  *       747.47 MB      
 GA USED    *         0.01 MB       (max)       0.00 MB       (current)
 **********************************************************************************************************************************


1PROGRAM * CCSD (Closed-shell coupled cluster)     Authors: C. Hampel, H.-J. Werner, 1991, M. Deegan, P.J. Knowles, 1992


 Convergence thresholds:  THRVAR = 1.00D-08  THRDEN = 1.00D-12

 CCSD(T)     terms to be evaluated (factor= 1.000)


 Number of core orbitals:           5 (   5 )
 Number of closed-shell orbitals:  16 (  16 )
 Number of external orbitals:      99 (  99 )

 Molecular orbitals read from record     2100.2  Type=RHF/CANONICAL (state 1.1)

 Number of N-1 electron functions:              16
 Number of N-2 electron functions:             136
 Number of singly external CSFs:              1584
 Number of doubly external CSFs:           1255320
 Total number of CSFs:                     1256905

 Length of J-op  integral file:               0.00 MB
 Length of K-op  integral file:               1.03 MB
 Length of 3-ext integral record:             0.00 MB

 Memory could be reduced to 21.47 Mwords without degradation in triples

 Integral transformation finished. Total CPU:   1.09 sec, npass=  1  Memory used:  18.35 MW

 Reference energy:                   -232.17509700

 MP2 singlet pair energy:              -0.49759737
 MP2 triplet pair energy:              -0.27475050
 MP2 correlation energy:               -0.77234787
 MP2 total energy:                   -232.94744486

 SCS-MP2 correlation energy:           -0.76807271   (PS=  1.200000  PT=  0.333333)
 SCS-MP2 total energy:               -232.94316970

 ITER.      SQ.NORM     CORR.ENERGY   TOTAL ENERGY   ENERGY CHANGE        DEN1      VAR(S)    VAR(P)  DIIS     TIME
   1      1.27363255    -0.82954666  -233.00464366    -0.05719879    -0.03605968  0.25D-02  0.44D-02  1  1     4.45
   2      1.29481908    -0.83386785  -233.00896484    -0.00432119    -0.02220539  0.67D-04  0.42D-03  2  2     7.86
   3      1.29934561    -0.83407805  -233.00917505    -0.00021020    -0.00277730  0.25D-04  0.24D-04  3  3    11.27
   4      1.30061391    -0.83408394  -233.00918094    -0.00000589    -0.00060333  0.64D-06  0.21D-05  4  4    14.68
   5      1.30084556    -0.83409291  -233.00918991    -0.00000897    -0.00008113  0.19D-06  0.15D-06  5  5    18.11
   6      1.30088679    -0.83408965  -233.00918665     0.00000326    -0.00001322  0.26D-07  0.14D-07  6  6    21.53
   7      1.30089373    -0.83408843  -233.00918543     0.00000122    -0.00000072  0.38D-08  0.17D-08  6  1    24.94
   8      1.30089731    -0.83408844  -233.00918544    -0.00000001    -0.00000042  0.68D-09  0.22D-09  6  2    28.35
   9      1.30089788    -0.83408838  -233.00918538     0.00000006     0.00000057  0.64D-10  0.39D-10  6  4    31.76
  10      1.30089847    -0.83408837  -233.00918536     0.00000001    -0.00000001  0.51D-11  0.38D-11  6  3    35.17
  11      1.30089844    -0.83408837  -233.00918537    -0.00000000     0.00000005  0.79D-12  0.47D-12  6  5    38.61
  12      1.30089838    -0.83408837  -233.00918537    -0.00000000     0.00000003  0.14D-12  0.66D-13  6  6    42.03
  13      1.30089833    -0.83408837  -233.00918537    -0.00000000     0.00000003  0.11D-13  0.10D-13  6  2    45.45
  14      1.30089831    -0.83408837  -233.00918537    -0.00000000     0.00000001  0.17D-14  0.62D-15  6  1    48.87
  15      1.30089831    -0.83408837  -233.00918537    -0.00000000     0.00000000  0.22D-15  0.13D-15  6  4    52.29
  16      1.30089831    -0.83408837  -233.00918537     0.00000000    -0.00000000  0.35D-16  0.20D-16  6  3    55.71
  17      1.30089831    -0.83408837  -233.00918537     0.00000000    -0.00000000  0.33D-17  0.26D-17  6  5    59.12
  18      1.30089831    -0.83408837  -233.00918537    -0.00000000    -0.00000000  0.89D-18  0.35D-18  6  6    62.53
  19      1.30089831    -0.83408837  -233.00918537    -0.00000000    -0.00000000  0.22D-18  0.64D-19  6  2    65.94
  20      1.30089831    -0.83408837  -233.00918537    -0.00000000     0.00000000  0.33D-19  0.12D-19  6  1    69.35
  21      1.30089831    -0.83408837  -233.00918537    -0.00000000     0.00000000  0.41D-20  0.21D-20  6  4    72.77
  22      1.30089831    -0.83408837  -233.00918537     0.00000000    -0.00000000  0.71D-21  0.32D-21  6  3    76.19

 Norm of t1 vector:      0.06603774      S-energy:    -0.00000000      T1 diagnostic:  0.00825472
                                                                       D1 diagnostic:  0.02160637


 Total CPU time for triples:     50.02 sec


 RESULTS
 =======

  Reference energy                   -232.175096998149
  CCSD singlet pair energy             -0.581027090092
  CCSD triplet pair energy             -0.253061283661
  CCSD correlation energy              -0.834088373754

  Triples (T) contribution             -0.023259812081
  Total correlation energy             -0.857348185835

  CCSD total energy                  -233.009185371903
  CCSD[T] energy                     -233.033141860333
  CCSD-T energy                      -233.032109203079
 !CCSD(T) total energy               -233.032445183983

 Timing summary (sec):

 STEP                 CPU(USER)    SYS     CPU(TOT)    WALL
 Transformation          1.14      0.12      1.26      1.26
 CCSD iterations        75.05      1.71     76.76     76.85
 Triples                50.02      1.06     51.08     51.09

 Program statistics:

 Available memory in ccsd:               999998876
 Min. memory needed in ccsd:               3310297
 Max. memory used in ccsd:                 4412497
 Max. memory used in cckext:               4149679 (22 integral passes)



 **********************************************************************************************************************************
 DATASETS  * FILE   NREC   LENGTH (MB)   RECORD NAMES
              1      20      293.29       500      610      700      900      950      970     1000      129      960     1100   
                                          VAR    BASINP    GEOM    SYMINP    ZMAT    AOBASIS   BASIS     P2S    ABASIS      S 
                                         1400     1410     1200     1210     1080     1600     1650     1300     1700     1380   
                                           T        V       H0       H01     AOSYM     SMH    MOLCAS    ERIS     OPER     JKOP   

              2       3        0.80       700     1000     2100   
                                         GEOM     BASIS     RHF  

 PROGRAMS   *        TOTAL   CCSD(T)       RHF       INT
 CPU TIMES  *       132.38    126.22      3.64      2.48
 REAL TIME  *       136.41 SEC
 DISK USED  *       747.47 MB      
 GA USED    *         0.01 MB       (max)       0.00 MB       (current)
 **********************************************************************************************************************************

        CCSD(T)         RHF-SCF 
   -233.03244518   -232.17509700
 **********************************************************************************************************************************
 Variable memory released
