
 Primary working directories    : /tmp/943186.48.gen6.q
 Secondary working directories  : /tmp/943186.48.gen6.q
 Wavefunction directory         : /home/vulcan/mel64643/wfu/
 Main file repository           : /tmp/943186.48.gen6.q/

 ARCHNAME  : Linux/x86_64
 FC        : /opt/intel/compilers_and_libraries_2016.1.150/linux/bin/intel64/ifort
 FCVERSION : 16.0.1
 BLASLIB   : -mkl
 id        : ccgc

 Nodes     nprocs
 n077         1
 ga_uses_ma=false, calling ma_init with nominal heap.
 GA-space will be limited to   8.0 MW (determined by -G option)

 Using customized tuning parameters: mindgm=10; mindgv=16; mindgc=4; mindgr=1; noblas=0; mincuda=1000; minvec=7
 default implementation of scratch files=df  

 ***,Optimization of h2o_2
 memory,1000,m
 gthresh,energy=1.0d-12,orbital=1.0d-10,oneint=1.0d-16,twoint=1.0d-16,optgrad=1.0d-6,compress=1.0d-13
 geomtyp=xyz
 
 bohr
 geometry = {
  C    0.0024149455   -3.4217502802    0.0011361928
  H   -0.9662736859   -2.7319166500   -1.6868955789
  H   -0.9759817253   -2.7308080919    1.6831047451
  H    1.9473732745   -2.7283641486    0.0065109914
  H    0.0045321579   -5.4865609389    0.0018215093
  C   -0.0024017408    3.4217457325   -0.0011285698
  H    0.0100594905    5.4815053877    0.0066017108
  H    0.9590524299    2.7325277318   -1.6874381809
  H    0.9687205907    2.7198523361    1.6743781455
  H   -1.9474957369    2.7437689215    0.0019090348
 }
 
 basis=VDZ
 {rhf;maxit,200}
 {ccsd(t);maxit,200}

 Variables initialized (661), CPU time= 0.00 sec
 Commands  initialized (458), CPU time= 0.01 sec, 486 directives.
 Default parameters read. Elapsed time= 0.04 sec

 Checking input...
 Passed
1


                                         ***  PROGRAM SYSTEM MOLPRO  ***
                         Copyright, University College Cardiff Consultants Limited, 2008

                                    Version 2010.1 linked May 16 2016 07:17:05


 **********************************************************************************************************************************
 LABEL *   Optimization of h2o_2                                                         
 Linux-4.4.3/n077(x86_64) 64 bit mpp version                                             DATE: 23-Oct-23          TIME: 12:28:48  
 **********************************************************************************************************************************

 SHA1:             9e8077add272b0f3cad6f7df79ec5211205f459d
 **********************************************************************************************************************************

 THRESHOLDS:

 ZERO    =  1.00D-12  ONEINT  =  1.00D-16  TWOINT  =  1.00D-16  PREFAC  =  1.00D-14  LOCALI  =  1.00D-09  EORDER  =  1.00D-04
 ENERGY  =  1.00D-12  ETEST   =  0.00D+00  EDENS   =  0.00D+00  THRDEDEF=  1.00D-06  GRADIENT=  1.00D-02  STEP    =  1.00D-03
 ORBITAL =  1.00D-10  CIVEC   =  1.00D-05  COEFF   =  1.00D-04  PRINTCI =  5.00D-02  PUNCHCI =  9.90D+01  OPTGRAD =  1.00D-06
 OPTENERG=  1.00D-06  OPTSTEP =  3.00D-04  THRGRAD =  1.00D-10  COMPRESS=  1.00D-13  VARMIN  =  1.00D-07  VARMAX  =  1.00D-03
 THRDOUB =  0.00D+00  THRDIV  =  1.00D-05  THRRED  =  1.00D-07  THRPSP  =  1.00D+00  THRDC   =  1.00D-10  THRCS   =  1.00D-10
 THRNRM  =  1.00D-08  THREQ   =  0.00D+00  THRDE   =  1.00D+00  THRREF  =  1.00D-05  SPARFAC =  1.00D+00  THRDLP  =  1.00D-07
 THRDIA  =  1.00D-10  THRDLS  =  1.00D-07  THRGPS  =  0.00D+00  THRKEX  =  0.00D+00  THRDIS  =  2.00D-01  THRVAR  =  1.00D-10
 THRLOC  =  1.00D-06  THRGAP  =  1.00D-06  THRLOCT = -1.00D+00  THRGAPT = -1.00D+00  THRORB  =  1.00D-06  THRMLTP =  0.00D+00
 THRCPQCI=  1.00D-10  KEXTA   =  0.00D+00  THRCOARS=  0.00D+00  SYMTOL  =  1.00D-06  GRADTOL =  1.00D-06  THROVL  =  1.00D-08
 THRORTH =  1.00D-08  GRID    =  1.00D-06  GRIDMAX =  1.00D-03  DTMAX   =  0.00D+00

 SETTING GEOMTYP        =    XYZ
 ZUNIT=BOHR
 

 Variable memory set to 1000000000 words,  buffer space   230000 words

 SETTING BASIS          =    VDZ


 Recomputing integrals since basis changed


 Using spherical harmonics

 Library entry C      S cc-pVDZ              selected for orbital group  1
 Library entry C      P cc-pVDZ              selected for orbital group  1
 Library entry C      D cc-pVDZ              selected for orbital group  1
 Library entry H      S cc-pVDZ              selected for orbital group  2
 Library entry H      P cc-pVDZ              selected for orbital group  2

1PROGRAM * SEWARD (Integral evaluation for generally contracted gaussian basis sets)     Author: Roland Lindh, 1990

 Geometry written to block  1 of record 700


 Point group  C1  



 ATOMIC COORDINATES

 NR  ATOM    CHARGE       X              Y              Z

   1  C       6.00    0.002414946   -3.421750280    0.001136193
   2  H       1.00   -0.966273686   -2.731916650   -1.686895579
   3  H       1.00   -0.975981725   -2.730808092    1.683104745
   4  H       1.00    1.947373275   -2.728364149    0.006510991
   5  H       1.00    0.004532158   -5.486560939    0.001821509
   6  C       6.00   -0.002401741    3.421745732   -0.001128570
   7  H       1.00    0.010059491    5.481505388    0.006601711
   8  H       1.00    0.959052430    2.732527732   -1.687438181
   9  H       1.00    0.968720591    2.719852336    1.674378145
  10  H       1.00   -1.947495737    2.743768922    0.001909035

 Bond lengths in Bohr (Angstrom)

 1-2  2.064867881  1-3  2.064867881  1-4  2.064867094  1-5  2.064811858  6-7  2.059811855
     ( 1.092681022)     ( 1.092681022)     ( 1.092680606)     ( 1.092651376)     ( 1.090005488)

  6- 8  2.059867879   6- 9  2.059867878   6-10  2.059867092
       ( 1.090035135)       ( 1.090035135)       ( 1.090034719)

 Bond angles

  2-1-3  109.37992579   2-1-4  109.37980975   2-1-5  109.56240831   3-1-4  109.37980975

  3-1-5  109.56240831   4-1-5  109.56250040   7-6-8  109.56240821   7-6-9  109.56240834

  7- 6-10  109.56250043   8- 6- 9  109.37992585   8- 6-10  109.37980982   9- 6-10  109.37980966

 NUCLEAR CHARGE:                   20
 NUMBER OF PRIMITIVE AOS:         110
 NUMBER OF SYMMETRY AOS:          108
 NUMBER OF CONTRACTIONS:           68   (  68A   )
 NUMBER OF CORE ORBITALS:           2   (   2A   )
 NUMBER OF VALENCE ORBITALS:       16   (  16A   )


 NUCLEAR REPULSION ENERGY   41.30896018


 Eigenvalues of metric

         1 0.113E-01 0.127E-01 0.349E-01 0.350E-01 0.357E-01 0.377E-01 0.385E-01 0.385E-01


 Contracted 2-electron integrals neglected if value below      1.0D-16
 AO integral compression algorithm  1   Integral accuracy      1.0D-16

     21.758 MB (compressed) written to integral file ( 87.6%)

     Node minimum: 21.758 MB, node maximum: 21.758 MB


 NUMBER OF SORTED TWO-ELECTRON INTEGRALS:    2753031.     BUFFER LENGTH:  32768
 NUMBER OF SEGMENTS:   1  SEGMENT LENGTH:    2753031      RECORD LENGTH: 524288

 Memory used in sort:       3.31 MW

 SORT1 READ     3104305. AND WROTE     2687886. INTEGRALS IN      8 RECORDS. CPU TIME:     0.03 SEC, REAL TIME:     0.04 SEC
 SORT2 READ     2687886. AND WROTE     2753031. INTEGRALS IN     83 RECORDS. CPU TIME:     0.04 SEC, REAL TIME:     0.06 SEC

 FILE SIZES:   FILE 1:    21.6 MBYTE,  FILE 4:    33.6 MBYTE,   TOTAL:     55.2 MBYTE

 OPERATOR DM      FOR CENTER  0  COORDINATES:    0.000000    0.000000    0.000000


 **********************************************************************************************************************************
 DATASETS  * FILE   NREC   LENGTH (MB)   RECORD NAMES
              1      19       21.67       500      610      700      900      950      970     1000      129      960     1100   
                                          VAR    BASINP    GEOM    SYMINP    ZMAT    AOBASIS   BASIS     P2S    ABASIS      S 
                                         1400     1410     1200     1210     1080     1600     1650     1300     1700   
                                           T        V       H0       H01     AOSYM     SMH    MOLCAS    ERIS     OPER   

 PROGRAMS   *        TOTAL       INT
 CPU TIMES  *         0.41      0.37
 REAL TIME  *         0.62 SEC
 DISK USED  *        77.72 MB      
 GA USED    *         0.00 MB       (max)       0.00 MB       (current)
 **********************************************************************************************************************************

1PROGRAM * RHF-SCF (CLOSED SHELL)       Authors: W. Meyer, H.-J. Werner


 NUMBER OF ELECTRONS:      10+   10-    SPACE SYMMETRY=1    SPIN SYMMETRY: Singlet 
 CONVERGENCE THRESHOLDS:    1.00E-10 (Density)    1.00E-13 (Energy)
 MAX. NUMBER OF ITERATIONS:      200
 INTERPOLATION TYPE:            DIIS
 INTERPOLATION STEPS:              2 (START)      1 (STEP)
 LEVEL SHIFTS:                  0.00 (CLOSED)  0.00 (OPEN) 



 Orbital guess generated from atomic densities. Full valence occupancy:   18

 Molecular orbital dump at record        2100.2

 ITERATION    DDIFF          GRAD             ENERGY        2-EL.EN.            DIPOLE MOMENTS         DIIS
    1      0.000D+00      0.000D+00       -80.35974547    134.764264   -0.00003   -0.00012   -0.00002    0
    2      0.000D+00      0.635D-02       -80.39230068    132.493063   -0.00006   -0.00004   -0.00004    1
    3      0.132D-01      0.234D-02       -80.39615100    133.293161   -0.00002   -0.00003   -0.00001    2
    4      0.460D-02      0.629D-03       -80.39667915    133.155905   -0.00001   -0.00003   -0.00000    3
    5      0.165D-02      0.664D-04       -80.39668367    133.161950   -0.00000   -0.00002   -0.00000    4
    6      0.233D-03      0.397D-05       -80.39668369    133.161815   -0.00000   -0.00003   -0.00000    5
    7      0.204D-04      0.468D-06       -80.39668369    133.161813   -0.00000   -0.00003   -0.00000    5
    8      0.119D-05      0.164D-06       -80.39668369    133.161812   -0.00000   -0.00003   -0.00000    5
    9      0.315D-06      0.198D-07       -80.39668369    133.161813   -0.00000   -0.00003   -0.00000    5
   10      0.599D-07      0.471D-08       -80.39668369    133.161814   -0.00000   -0.00003   -0.00000    5
   11      0.169D-07      0.665D-09       -80.39668369    133.161814   -0.00000   -0.00003   -0.00000    6
   12      0.192D-08      0.135D-09       -80.39668369    133.161814   -0.00000   -0.00003   -0.00000    6
   13      0.364D-09      0.416D-10       -80.39668369    133.161814   -0.00000   -0.00003   -0.00000    6
   14      0.920D-10      0.978D-11       -80.39668369    133.161814   -0.00000   -0.00003   -0.00000    6
   15      0.270D-10      0.148D-11       -80.39668369    133.161814   -0.00000   -0.00003   -0.00000    6
   16      0.508D-11      0.332D-12       -80.39668369    133.161814   -0.00000   -0.00003   -0.00000    0

 Final occupancy:  10

 !RHF STATE 1.1 Energy                -80.396683690052
 Nuclear energy                        41.30896018
 One-electron energy                 -188.28655080
 Two-electron energy                   66.58090693
 Virial quotient                       -1.00248377
 !RHF STATE 1.1 Dipole moment          -0.00000122    -0.00002616    -0.00000060
 Dipole moment /Debye                  -0.00000309    -0.00006649    -0.00000151

 Orbital energies:

         1.1          2.1          3.1          4.1          5.1          6.1          7.1          8.1          9.1         10.1
    -11.216525   -11.215295    -0.943768    -0.937784    -0.549380    -0.545068    -0.545030    -0.537696    -0.537658    -0.534164

        11.1         12.1
      0.172288     0.229107


 **********************************************************************************************************************************
 DATASETS  * FILE   NREC   LENGTH (MB)   RECORD NAMES
              1      19       21.67       500      610      700      900      950      970     1000      129      960     1100   
                                          VAR    BASINP    GEOM    SYMINP    ZMAT    AOBASIS   BASIS     P2S    ABASIS      S 
                                         1400     1410     1200     1210     1080     1600     1650     1300     1700   
                                           T        V       H0       H01     AOSYM     SMH    MOLCAS    ERIS     OPER   

              2       3        0.51       700     1000     2100   
                                         GEOM     BASIS     RHF  

 PROGRAMS   *        TOTAL       RHF       INT
 CPU TIMES  *         0.69      0.28      0.37
 REAL TIME  *         0.96 SEC
 DISK USED  *        77.72 MB      
 GA USED    *         0.00 MB       (max)       0.00 MB       (current)
 **********************************************************************************************************************************


1PROGRAM * CCSD (Closed-shell coupled cluster)     Authors: C. Hampel, H.-J. Werner, 1991, M. Deegan, P.J. Knowles, 1992


 Convergence thresholds:  THRVAR = 1.00D-08  THRDEN = 1.00D-12

 CCSD(T)     terms to be evaluated (factor= 1.000)


 Number of core orbitals:           2 (   2 )
 Number of closed-shell orbitals:   8 (   8 )
 Number of external orbitals:      58 (  58 )

 Molecular orbitals read from record     2100.2  Type=RHF/CANONICAL (state 1.1)

 Number of N-1 electron functions:               8
 Number of N-2 electron functions:              36
 Number of singly external CSFs:               464
 Number of doubly external CSFs:            107880
 Total number of CSFs:                      108345

 Length of J-op  integral file:               0.00 MB
 Length of K-op  integral file:               0.35 MB
 Length of 3-ext integral record:             0.00 MB

 Memory could be reduced to 2.66 Mwords without degradation in triples

 Integral transformation finished. Total CPU:   0.06 sec, npass=  1  Memory used:   1.86 MW

 Reference energy:                    -80.39668369

 MP2 singlet pair energy:              -0.23220485
 MP2 triplet pair energy:              -0.09154732
 MP2 correlation energy:               -0.32375218
 MP2 total energy:                    -80.72043587

 SCS-MP2 correlation energy:           -0.33560860   (PS=  1.200000  PT=  0.333333)
 SCS-MP2 total energy:                -80.73229229

 ITER.      SQ.NORM     CORR.ENERGY   TOTAL ENERGY   ENERGY CHANGE        DEN1      VAR(S)    VAR(P)  DIIS     TIME
   1      1.13440953    -0.36768324   -80.76436693    -0.04393106    -0.03298614  0.50D-03  0.24D-02  1  1     0.18
   2      1.14706537    -0.37049079   -80.76717448    -0.00280756    -0.01279112  0.15D-04  0.97D-04  2  2     0.30
   3      1.14886971    -0.37066357   -80.76734726    -0.00017278    -0.00096063  0.18D-05  0.56D-05  3  3     0.43
   4      1.14924106    -0.37068392   -80.76736761    -0.00002034    -0.00016730  0.25D-07  0.36D-06  4  4     0.55
   5      1.14928747    -0.37068143   -80.76736512     0.00000249    -0.00002412  0.19D-08  0.18D-07  5  5     0.67
   6      1.14928880    -0.37068137   -80.76736506     0.00000006    -0.00000011  0.20D-09  0.12D-08  6  6     0.80
   7      1.14928890    -0.37068164   -80.76736533    -0.00000026     0.00000013  0.13D-10  0.73D-10  6  1     0.92
   8      1.14928908    -0.37068163   -80.76736532     0.00000001    -0.00000013  0.15D-11  0.42D-11  6  2     1.04
   9      1.14928911    -0.37068162   -80.76736531     0.00000001    -0.00000003  0.15D-12  0.26D-12  6  3     1.17
  10      1.14928910    -0.37068162   -80.76736531     0.00000000     0.00000001  0.12D-13  0.24D-13  6  4     1.29
  11      1.14928909    -0.37068162   -80.76736531    -0.00000000     0.00000001  0.82D-15  0.20D-14  6  5     1.42
  12      1.14928909    -0.37068162   -80.76736531    -0.00000000     0.00000000  0.44D-16  0.23D-15  6  6     1.54
  13      1.14928908    -0.37068162   -80.76736531    -0.00000000     0.00000000  0.35D-17  0.29D-16  6  1     1.67
  14      1.14928908    -0.37068162   -80.76736531     0.00000000     0.00000000  0.61D-18  0.38D-17  6  2     1.79
  15      1.14928908    -0.37068162   -80.76736531     0.00000000     0.00000000  0.74D-19  0.38D-18  6  3     1.92
  16      1.14928908    -0.37068162   -80.76736531    -0.00000000     0.00000000  0.16D-20  0.21D-19  6  5     2.05
  17      1.14928908    -0.37068162   -80.76736531    -0.00000000     0.00000000  0.19D-21  0.58D-21  6  4     2.17
  18      1.14928908    -0.37068162   -80.76736531     0.00000000    -0.00000000  0.47D-22  0.54D-22  6  6     2.29

 Norm of t1 vector:      0.03068124      S-energy:     0.00000000      T1 diagnostic:  0.00542373
                                                                       D1 diagnostic:  0.00879802


 Total CPU time for triples:      0.84 sec


 RESULTS
 =======

  Reference energy                    -80.396683690052
  CCSD singlet pair energy             -0.282039108520
  CCSD triplet pair energy             -0.088642508501
  CCSD correlation energy              -0.370681617021

  Triples (T) contribution             -0.007550204710
  Total correlation energy             -0.378231821731

  CCSD total energy                   -80.767365307073
  CCSD[T] energy                      -80.775092817865
  CCSD-T energy                       -80.774820547744
 !CCSD(T) total energy                -80.774915511783

 Timing summary (sec):

 STEP                 CPU(USER)    SYS     CPU(TOT)    WALL
 Transformation          0.07      0.02      0.09      0.08
 CCSD iterations         2.22      0.12      2.34      2.38
 Triples                 0.84      0.02      0.86      0.86

 Program statistics:

 Available memory in ccsd:               999999644
 Min. memory needed in ccsd:                356281
 Max. memory used in ccsd:                  442401
 Max. memory used in cckext:                403930 (18 integral passes)



 **********************************************************************************************************************************
 DATASETS  * FILE   NREC   LENGTH (MB)   RECORD NAMES
              1      20       30.12       500      610      700      900      950      970     1000      129      960     1100   
                                          VAR    BASINP    GEOM    SYMINP    ZMAT    AOBASIS   BASIS     P2S    ABASIS      S 
                                         1400     1410     1200     1210     1080     1600     1650     1300     1700     1380   
                                           T        V       H0       H01     AOSYM     SMH    MOLCAS    ERIS     OPER     JKOP   

              2       3        0.51       700     1000     2100   
                                         GEOM     BASIS     RHF  

 PROGRAMS   *        TOTAL   CCSD(T)       RHF       INT
 CPU TIMES  *         3.83      3.14      0.28      0.37
 REAL TIME  *         4.29 SEC
 DISK USED  *        77.72 MB      
 GA USED    *         0.00 MB       (max)       0.00 MB       (current)
 **********************************************************************************************************************************

        CCSD(T)         RHF-SCF 
    -80.77491551    -80.39668369
 **********************************************************************************************************************************
 Variable memory released
