
 Primary working directories    : /tmp/984684.197.gen5.q
 Secondary working directories  : /tmp/984684.197.gen5.q
 Wavefunction directory         : /home/vulcan/mel64643/wfu/
 Main file repository           : /tmp/984684.197.gen5.q/

 ARCHNAME  : Linux/x86_64
 FC        : /opt/intel/compilers_and_libraries_2016.1.150/linux/bin/intel64/ifort
 FCVERSION : 16.0.1
 BLASLIB   : -mkl
 id        : ccgc

 Nodes     nprocs
 n073         1
 ga_uses_ma=false, calling ma_init with nominal heap.
 GA-space will be limited to   8.0 MW (determined by -G option)

 Using customized tuning parameters: mindgm=10; mindgv=16; mindgc=4; mindgr=1; noblas=0; mincuda=1000; minvec=7
 default implementation of scratch files=df  

 ***,Optimization of nh3_h20
 memory,1000,m
 gthresh,energy=1.0d-12,orbital=1.0d-10,oneint=1.0d-16,twoint=1.0d-16,optgrad=1.0d-6,compress=1.0d-13
 geomtyp=xyz
 
 
 
 bohr
 geometry = {
  O   -3.2242662767    0.0730821226    0.0045554442
  H   -1.3998035779   -0.1598108011    0.0008370190
  H   -3.9048803364   -1.6098899593    0.0059922386
  N    2.3281806937   -0.0238674226   -0.0067781205
  H    2.7015933388    1.8582066378   -0.0075932942
  H    3.2284328912   -0.7476768176   -1.5377218019
  H    3.1855751393   -0.7643419248    1.5407085148
 }
 
 basis=cc-pvdz
 {rhf;maxit,200}
 {mp2}

 Variables initialized (661), CPU time= 0.00 sec
 Commands  initialized (458), CPU time= 0.01 sec, 486 directives.
 Default parameters read. Elapsed time= 0.04 sec

 Checking input...
 Passed
1


                                         ***  PROGRAM SYSTEM MOLPRO  ***
                         Copyright, University College Cardiff Consultants Limited, 2008

                                    Version 2010.1 linked May 16 2016 07:17:05


 **********************************************************************************************************************************
 LABEL *   Optimization of nh3_h20                                                       
 Linux-4.4.3/n073(x86_64) 64 bit mpp version                                             DATE: 22-Jan-24          TIME: 10:57:00  
 **********************************************************************************************************************************

 SHA1:             9e8077add272b0f3cad6f7df79ec5211205f459d
 **********************************************************************************************************************************

 THRESHOLDS:

 ZERO    =  1.00D-12  ONEINT  =  1.00D-16  TWOINT  =  1.00D-16  PREFAC  =  1.00D-14  LOCALI  =  1.00D-09  EORDER  =  1.00D-04
 ENERGY  =  1.00D-12  ETEST   =  0.00D+00  EDENS   =  0.00D+00  THRDEDEF=  1.00D-06  GRADIENT=  1.00D-02  STEP    =  1.00D-03
 ORBITAL =  1.00D-10  CIVEC   =  1.00D-05  COEFF   =  1.00D-04  PRINTCI =  5.00D-02  PUNCHCI =  9.90D+01  OPTGRAD =  1.00D-06
 OPTENERG=  1.00D-06  OPTSTEP =  3.00D-04  THRGRAD =  1.00D-10  COMPRESS=  1.00D-13  VARMIN  =  1.00D-07  VARMAX  =  1.00D-03
 THRDOUB =  0.00D+00  THRDIV  =  1.00D-05  THRRED  =  1.00D-07  THRPSP  =  1.00D+00  THRDC   =  1.00D-10  THRCS   =  1.00D-10
 THRNRM  =  1.00D-08  THREQ   =  0.00D+00  THRDE   =  1.00D+00  THRREF  =  1.00D-05  SPARFAC =  1.00D+00  THRDLP  =  1.00D-07
 THRDIA  =  1.00D-10  THRDLS  =  1.00D-07  THRGPS  =  0.00D+00  THRKEX  =  0.00D+00  THRDIS  =  2.00D-01  THRVAR  =  1.00D-10
 THRLOC  =  1.00D-06  THRGAP  =  1.00D-06  THRLOCT = -1.00D+00  THRGAPT = -1.00D+00  THRORB  =  1.00D-06  THRMLTP =  0.00D+00
 THRCPQCI=  1.00D-10  KEXTA   =  0.00D+00  THRCOARS=  0.00D+00  SYMTOL  =  1.00D-06  GRADTOL =  1.00D-06  THROVL  =  1.00D-08
 THRORTH =  1.00D-08  GRID    =  1.00D-06  GRIDMAX =  1.00D-03  DTMAX   =  0.00D+00

 SETTING GEOMTYP        =    XYZ
 ZUNIT=BOHR
 

 Variable memory set to 1000000000 words,  buffer space   230000 words

 SETTING BASIS          =    CC-PVDZ


 Recomputing integrals since basis changed


 Using spherical harmonics

 Library entry O      S cc-pVDZ              selected for orbital group  1
 Library entry O      P cc-pVDZ              selected for orbital group  1
 Library entry O      D cc-pVDZ              selected for orbital group  1
 Library entry H      S cc-pVDZ              selected for orbital group  2
 Library entry H      P cc-pVDZ              selected for orbital group  2
 Library entry N      S cc-pVDZ              selected for orbital group  3
 Library entry N      P cc-pVDZ              selected for orbital group  3
 Library entry N      D cc-pVDZ              selected for orbital group  3

1PROGRAM * SEWARD (Integral evaluation for generally contracted gaussian basis sets)     Author: Roland Lindh, 1990

 Geometry written to block  1 of record 700


 Point group  C1  



 ATOMIC COORDINATES

 NR  ATOM    CHARGE       X              Y              Z

   1  O       8.00   -3.224266277    0.073082123    0.004555444
   2  H       1.00   -1.399803578   -0.159810801    0.000837019
   3  H       1.00   -3.904880336   -1.609889959    0.005992239
   4  N       7.00    2.328180694   -0.023867423   -0.006778121
   5  H       1.00    2.701593339    1.858206638   -0.007593294
   6  H       1.00    3.228432891   -0.747676818   -1.537721802
   7  H       1.00    3.185575139   -0.764341925    1.540708515

 Bond lengths in Bohr (Angstrom)

 1-2  1.839270801  1-3  1.815387725  4-5  1.918760130  4-6  1.917848434  4-7  1.917848433
     ( 0.973300189)     ( 0.960661809)     ( 1.015364130)     ( 1.014881681)     ( 1.014881681)

 Bond angles

  2-1-3  104.74458364   5-4-6  106.17069511   5-4-7  106.98097387   6-4-7  106.77040514

 NUCLEAR CHARGE:                   20
 NUMBER OF PRIMITIVE AOS:          89
 NUMBER OF SYMMETRY AOS:           87
 NUMBER OF CONTRACTIONS:           53   (  53A   )
 NUMBER OF CORE ORBITALS:           2   (   2A   )
 NUMBER OF VALENCE ORBITALS:       13   (  13A   )


 NUCLEAR REPULSION ENERGY   38.80166750


 Eigenvalues of metric

         1 0.154E-01 0.165E-01 0.391E-01 0.406E-01 0.423E-01 0.453E-01 0.465E-01 0.664E-01


 Contracted 2-electron integrals neglected if value below      1.0D-16
 AO integral compression algorithm  1   Integral accuracy      1.0D-16

     8.651 MB (compressed) written to integral file ( 91.4%)

     Node minimum: 8.651 MB, node maximum: 8.651 MB


 NUMBER OF SORTED TWO-ELECTRON INTEGRALS:    1024596.     BUFFER LENGTH:  32768
 NUMBER OF SEGMENTS:   1  SEGMENT LENGTH:    1024596      RECORD LENGTH: 524288

 Memory used in sort:       1.58 MW

 SORT1 READ     1216809. AND WROTE     1013297. INTEGRALS IN      3 RECORDS. CPU TIME:     0.01 SEC, REAL TIME:     0.02 SEC
 SORT2 READ     1013297. AND WROTE     1024596. INTEGRALS IN     33 RECORDS. CPU TIME:     0.02 SEC, REAL TIME:     0.03 SEC

 FILE SIZES:   FILE 1:    10.0 MBYTE,  FILE 4:    12.6 MBYTE,   TOTAL:     22.6 MBYTE

 OPERATOR DM      FOR CENTER  0  COORDINATES:    0.000000    0.000000    0.000000


 **********************************************************************************************************************************
 DATASETS  * FILE   NREC   LENGTH (MB)   RECORD NAMES
              1      19       10.05       500      610      700      900      950      970     1000      129      960     1100   
                                          VAR    BASINP    GEOM    SYMINP    ZMAT    AOBASIS   BASIS     P2S    ABASIS      S 
                                         1400     1410     1200     1210     1080     1600     1650     1300     1700   
                                           T        V       H0       H01     AOSYM     SMH    MOLCAS    ERIS     OPER   

 PROGRAMS   *        TOTAL       INT
 CPU TIMES  *         0.27      0.23
 REAL TIME  *         0.54 SEC
 DISK USED  *        31.94 MB      
 GA USED    *         0.00 MB       (max)       0.00 MB       (current)
 **********************************************************************************************************************************

1PROGRAM * RHF-SCF (CLOSED SHELL)       Authors: W. Meyer, H.-J. Werner


 NUMBER OF ELECTRONS:      10+   10-    SPACE SYMMETRY=1    SPIN SYMMETRY: Singlet 
 CONVERGENCE THRESHOLDS:    1.00E-10 (Density)    1.00E-13 (Energy)
 MAX. NUMBER OF ITERATIONS:      200
 INTERPOLATION TYPE:            DIIS
 INTERPOLATION STEPS:              2 (START)      1 (STEP)
 LEVEL SHIFTS:                  0.00 (CLOSED)  0.00 (OPEN) 



 Orbital guess generated from atomic densities. Full valence occupancy:   15

 Molecular orbital dump at record        2100.2

 ITERATION    DDIFF          GRAD             ENERGY        2-EL.EN.            DIPOLE MOMENTS         DIIS
    1      0.000D+00      0.000D+00      -132.17167729    177.634845    1.77402   -0.81094    0.00667    0
    2      0.000D+00      0.136D-01      -132.21974722    172.708693    1.38344   -0.48217    0.00503    1
    3      0.257D-01      0.674D-02      -132.23121309    174.651776    1.42114   -0.55481    0.00520    2
    4      0.826D-02      0.950D-03      -132.23168119    174.502039    1.39948   -0.54317    0.00518    3
    5      0.198D-02      0.229D-03      -132.23170975    174.499365    1.39224   -0.54178    0.00514    4
    6      0.479D-03      0.673D-04      -132.23171172    174.507159    1.39119   -0.54108    0.00513    5
    7      0.125D-03      0.211D-04      -132.23171198    174.504841    1.39049   -0.54105    0.00512    6
    8      0.413D-04      0.311D-05      -132.23171199    174.504819    1.39035   -0.54100    0.00512    7
    9      0.885D-05      0.500D-06      -132.23171199    174.504806    1.39033   -0.54101    0.00512    6
   10      0.113D-05      0.127D-06      -132.23171199    174.504803    1.39033   -0.54101    0.00512    6
   11      0.302D-06      0.359D-07      -132.23171199    174.504808    1.39033   -0.54101    0.00512    6
   12      0.957D-07      0.101D-07      -132.23171199    174.504806    1.39033   -0.54101    0.00512    6
   13      0.214D-07      0.381D-08      -132.23171199    174.504806    1.39033   -0.54101    0.00512    6
   14      0.722D-08      0.828D-09      -132.23171199    174.504806    1.39033   -0.54101    0.00512    7
   15      0.181D-08      0.273D-09      -132.23171199    174.504806    1.39033   -0.54101    0.00512    7
   16      0.536D-09      0.902D-10      -132.23171199    174.504806    1.39033   -0.54101    0.00512    7
   17      0.197D-09      0.184D-10      -132.23171199    174.504806    1.39033   -0.54101    0.00512    7
   18      0.536D-10      0.294D-11      -132.23171199    174.504806    1.39033   -0.54101    0.00512    7
   19      0.625D-11      0.610D-12      -132.23171199    174.504806    1.39033   -0.54101    0.00512    0

 Final occupancy:  10

 !RHF STATE 1.1 Energy               -132.231711985645
 Nuclear energy                        38.80166750
 One-electron energy                 -258.28578267
 Two-electron energy                   87.25240318
 Virial quotient                       -1.00119861
 !RHF STATE 1.1 Dipole moment           1.39033053    -0.54100846     0.00511555
 Dipole moment /Debye                   3.53363626    -1.37501628     0.01300159

 Orbital energies:

         1.1          2.1          3.1          4.1          5.1          6.1          7.1          8.1          9.1         10.1
    -20.502795   -15.568219    -1.288220    -1.161178    -0.658231    -0.645392    -0.641989    -0.529056    -0.449178    -0.446229

        11.1         12.1
      0.166236     0.237460


 **********************************************************************************************************************************
 DATASETS  * FILE   NREC   LENGTH (MB)   RECORD NAMES
              1      19       10.05       500      610      700      900      950      970     1000      129      960     1100   
                                          VAR    BASINP    GEOM    SYMINP    ZMAT    AOBASIS   BASIS     P2S    ABASIS      S 
                                         1400     1410     1200     1210     1080     1600     1650     1300     1700   
                                           T        V       H0       H01     AOSYM     SMH    MOLCAS    ERIS     OPER   

              2       3        0.42       700     1000     2100   
                                         GEOM     BASIS     RHF  

 PROGRAMS   *        TOTAL       RHF       INT
 CPU TIMES  *         0.42      0.15      0.23
 REAL TIME  *         0.73 SEC
 DISK USED  *        31.94 MB      
 GA USED    *         0.00 MB       (max)       0.00 MB       (current)
 **********************************************************************************************************************************


1PROGRAM * MP2 (Closed-shell)     Authors: C. Hampel, H.-J. Werner, 1991, M. Deegan, P.J. Knowles, 1992


 Convergence thresholds:  THRVAR = 1.00D-08  THRDEN = 1.00D-12

 Number of core orbitals:           2 (   2 )
 Number of closed-shell orbitals:   8 (   8 )
 Number of external orbitals:      43 (  43 )

 Molecular orbitals read from record     2100.2  Type=RHF/CANONICAL (state 1.1)

 Number of N-1 electron functions:               8
 Number of N-2 electron functions:              36
 Number of singly external CSFs:               344
 Number of doubly external CSFs:             59340
 Total number of CSFs:                       59685

 Length of J-op  integral file:               0.00 MB
 Length of K-op  integral file:               0.22 MB

 Integral transformation finished. Total CPU:   0.01 sec, npass=  1  Memory used:   0.28 MW

 Memory needed for MP2:                      0.01 MW

 SCS-MP2 correlation energy:           -0.387754819220   (PS=  1.200000  PT=  0.333333)
 SCS-MP2 total energy:               -132.619466804865


  Reference energy                   -132.231711985645
  MP2 singlet pair energy              -0.249282093462
  MP2 triplet pair energy              -0.142419064926
  MP2 correlation energy               -0.391701158388

 !MP2 total energy                   -132.623413144033


 **********************************************************************************************************************************
 DATASETS  * FILE   NREC   LENGTH (MB)   RECORD NAMES
              1      20       11.31       500      610      700      900      950      970     1000      129      960     1100   
                                          VAR    BASINP    GEOM    SYMINP    ZMAT    AOBASIS   BASIS     P2S    ABASIS      S 
                                         1400     1410     1200     1210     1080     1600     1650     1300     1700     1380   
                                           T        V       H0       H01     AOSYM     SMH    MOLCAS    ERIS     OPER     JKOP   

              2       3        0.42       700     1000     2100   
                                         GEOM     BASIS     RHF  

 PROGRAMS   *        TOTAL       MP2       RHF       INT
 CPU TIMES  *         0.45      0.02      0.15      0.23
 REAL TIME  *         0.79 SEC
 DISK USED  *        31.94 MB      
 GA USED    *         0.00 MB       (max)       0.00 MB       (current)
 **********************************************************************************************************************************

        MP2             RHF-SCF 
   -132.62341314   -132.23171199
 **********************************************************************************************************************************
 Variable memory released
