
 Primary working directories    : /tmp/943420.157.gen4.q
 Secondary working directories  : /tmp/943420.157.gen4.q
 Wavefunction directory         : /home/vulcan/mel64643/wfu/
 Main file repository           : /tmp/943420.157.gen4.q/

 ARCHNAME  : Linux/x86_64
 FC        : /opt/intel/compilers_and_libraries_2016.1.150/linux/bin/intel64/ifort
 FCVERSION : 16.0.1
 BLASLIB   : -mkl
 id        : ccgc

 Nodes     nprocs
 n066         1
 ga_uses_ma=false, calling ma_init with nominal heap.
 GA-space will be limited to   8.0 MW (determined by -G option)

 Using customized tuning parameters: mindgm=10; mindgv=16; mindgc=4; mindgr=1; noblas=0; mincuda=1000; minvec=7
 default implementation of scratch files=df  

 ***,Optimization of nh3_nitrosmethane
 memory,1000,m
 gthresh,energy=1.0d-12,orbital=1.0d-10,oneint=1.0d-16,twoint=1.0d-16,optgrad=1.0d-6,compress=1.0d-13
 geomtyp=xyz
 
 bohr
 geometry = {
  N   -5.2211566968   -0.1889259507   -0.0000000000
  H   -6.2960664708    0.2246887009   -1.5342842208
  H   -3.7585635454    1.0562160824    0.0000000000
  H   -6.2960664708    0.2246887009    1.5342842208
  H   -0.9284427564   -2.3819690798   -0.0000000000
  H    1.8731918665   -3.4309759762   -1.6666900617
  H    1.8731918665   -3.4309759762    1.6666900617
  C    1.1316817562   -2.4628801242    0.0000000000
  N    2.2756109177    0.0989728009    0.0000000000
  O    0.7107380234    1.7682178309    0.0000000000
 }
 
 basis=aug-cc-pvdz, H=cc-pvdz
 {rhf;maxit,200}
 {ccsd(t);maxit,200}

 Variables initialized (661), CPU time= 0.00 sec
 Commands  initialized (458), CPU time= 0.00 sec, 486 directives.
 Default parameters read. Elapsed time= 0.05 sec

 Checking input...
 Passed
1


                                         ***  PROGRAM SYSTEM MOLPRO  ***
                         Copyright, University College Cardiff Consultants Limited, 2008

                                    Version 2010.1 linked May 16 2016 07:17:05


 **********************************************************************************************************************************
 LABEL *   Optimization of nh3_nitrosmethane                                             
 Linux-4.4.3/n066(x86_64) 64 bit mpp version                                             DATE: 26-Oct-23          TIME: 07:34:49  
 **********************************************************************************************************************************

 SHA1:             9e8077add272b0f3cad6f7df79ec5211205f459d
 **********************************************************************************************************************************

 THRESHOLDS:

 ZERO    =  1.00D-12  ONEINT  =  1.00D-16  TWOINT  =  1.00D-16  PREFAC  =  1.00D-14  LOCALI  =  1.00D-09  EORDER  =  1.00D-04
 ENERGY  =  1.00D-12  ETEST   =  0.00D+00  EDENS   =  0.00D+00  THRDEDEF=  1.00D-06  GRADIENT=  1.00D-02  STEP    =  1.00D-03
 ORBITAL =  1.00D-10  CIVEC   =  1.00D-05  COEFF   =  1.00D-04  PRINTCI =  5.00D-02  PUNCHCI =  9.90D+01  OPTGRAD =  1.00D-06
 OPTENERG=  1.00D-06  OPTSTEP =  3.00D-04  THRGRAD =  1.00D-10  COMPRESS=  1.00D-13  VARMIN  =  1.00D-07  VARMAX  =  1.00D-03
 THRDOUB =  0.00D+00  THRDIV  =  1.00D-05  THRRED  =  1.00D-07  THRPSP  =  1.00D+00  THRDC   =  1.00D-10  THRCS   =  1.00D-10
 THRNRM  =  1.00D-08  THREQ   =  0.00D+00  THRDE   =  1.00D+00  THRREF  =  1.00D-05  SPARFAC =  1.00D+00  THRDLP  =  1.00D-07
 THRDIA  =  1.00D-10  THRDLS  =  1.00D-07  THRGPS  =  0.00D+00  THRKEX  =  0.00D+00  THRDIS  =  2.00D-01  THRVAR  =  1.00D-10
 THRLOC  =  1.00D-06  THRGAP  =  1.00D-06  THRLOCT = -1.00D+00  THRGAPT = -1.00D+00  THRORB  =  1.00D-06  THRMLTP =  0.00D+00
 THRCPQCI=  1.00D-10  KEXTA   =  0.00D+00  THRCOARS=  0.00D+00  SYMTOL  =  1.00D-06  GRADTOL =  1.00D-06  THROVL  =  1.00D-08
 THRORTH =  1.00D-08  GRID    =  1.00D-06  GRIDMAX =  1.00D-03  DTMAX   =  0.00D+00

 SETTING GEOMTYP        =    XYZ
 ZUNIT=BOHR
 

 Variable memory set to 1000000000 words,  buffer space   230000 words

 SETTING BASIS          =    AUG-CC-PVDZ,H=CC-PVDZ


 Recomputing integrals since basis changed


 Using spherical harmonics

 Library entry N      S aug-cc-pVDZ          selected for orbital group  1
 Library entry N      P aug-cc-pVDZ          selected for orbital group  1
 Library entry N      D aug-cc-pVDZ          selected for orbital group  1
 Library entry H      S cc-pVDZ              selected for orbital group  2
 Library entry H      P cc-pVDZ              selected for orbital group  2
 Library entry C      S aug-cc-pVDZ          selected for orbital group  3
 Library entry C      P aug-cc-pVDZ          selected for orbital group  3
 Library entry C      D aug-cc-pVDZ          selected for orbital group  3
 Library entry O      S aug-cc-pVDZ          selected for orbital group  5
 Library entry O      P aug-cc-pVDZ          selected for orbital group  5
 Library entry O      D aug-cc-pVDZ          selected for orbital group  5

1PROGRAM * SEWARD (Integral evaluation for generally contracted gaussian basis sets)     Author: Roland Lindh, 1990

 Geometry written to block  1 of record 700


 Point group  Cs  



 ATOMIC COORDINATES

 NR  ATOM    CHARGE       X              Y              Z

   1  N       7.00   -5.221156697   -0.188925951    0.000000000
   2  H       1.00   -6.296066471    0.224688701   -1.534284221
   3  H       1.00   -6.296066471    0.224688701    1.534284221
   4  H       1.00   -3.758563545    1.056216082    0.000000000
   5  H       1.00   -0.928442756   -2.381969080    0.000000000
   6  H       1.00    1.873191867   -3.430975976   -1.666690062
   7  H       1.00    1.873191867   -3.430975976    1.666690062
   8  C       6.00    1.131681756   -2.462880124    0.000000000
   9  N       7.00    2.275610918    0.098972801    0.000000000
  10  O       8.00    0.710738023    1.768217831    0.000000000

 Bond lengths in Bohr (Angstrom)

 1-2  1.918472354  1-3  1.918472354  1-4  1.920822066  5-8  2.061712784  6-8  2.065164057
     ( 1.015211846)     ( 1.015211846)     ( 1.016455260)     ( 1.091011417)     ( 1.092837752)

  7- 8  2.065164057   8- 9  2.805648648   9-10  2.288057286
       ( 1.092837752)       ( 1.484685321)       ( 1.210787769)

 Bond angles

  2-1-3  106.21107415   2-1-4  106.67095380   3-1-4  106.67095380   5-8-6  112.15889897

  5-8-7  112.15889897   5-8-9  111.81278862   6-8-7  107.61734786   6-8-9  106.35838624

  7- 8- 9  106.35838624   8- 9-10  112.78650517

 NUCLEAR CHARGE:                   34
 NUMBER OF PRIMITIVE AOS:         190
 NUMBER OF SYMMETRY AOS:          182
 NUMBER OF CONTRACTIONS:          122   (  82A'  +  40A"  )
 NUMBER OF CORE ORBITALS:           4   (   4A'  +   0A"  )
 NUMBER OF VALENCE ORBITALS:       22   (  16A'  +   6A"  )


 NUCLEAR REPULSION ENERGY  117.58037963


 Eigenvalues of metric

         1 0.460E-03 0.141E-02 0.194E-02 0.430E-02 0.521E-02 0.751E-02 0.856E-02 0.125E-01
         2 0.799E-02 0.198E-01 0.245E-01 0.279E-01 0.308E-01 0.456E-01 0.612E-01 0.103E+00


 Contracted 2-electron integrals neglected if value below      1.0D-16
 AO integral compression algorithm  1   Integral accuracy      1.0D-16

     127.140 MB (compressed) written to integral file ( 92.6%)

     Node minimum: 127.140 MB, node maximum: 127.140 MB


 NUMBER OF SORTED TWO-ELECTRON INTEGRALS:   14499896.     BUFFER LENGTH:  32768
 NUMBER OF SEGMENTS:   1  SEGMENT LENGTH:   14499896      RECORD LENGTH: 524288

 Memory used in sort:      15.06 MW

 SORT1 READ    17174245. AND WROTE    14369721. INTEGRALS IN     42 RECORDS. CPU TIME:     0.18 SEC, REAL TIME:     0.26 SEC
 SORT2 READ    14369721. AND WROTE    14499896. INTEGRALS IN    485 RECORDS. CPU TIME:     0.17 SEC, REAL TIME:     0.22 SEC

 FILE SIZES:   FILE 1:   112.3 MBYTE,  FILE 4:   176.2 MBYTE,   TOTAL:    288.5 MBYTE

 OPERATOR DM      FOR CENTER  0  COORDINATES:    0.000000    0.000000    0.000000


 **********************************************************************************************************************************
 DATASETS  * FILE   NREC   LENGTH (MB)   RECORD NAMES
              1      19      112.43       500      610      700      900      950      970     1000      129      960     1100   
                                          VAR    BASINP    GEOM    SYMINP    ZMAT    AOBASIS   BASIS     P2S    ABASIS      S 
                                         1400     1410     1200     1210     1080     1600     1650     1300     1700   
                                           T        V       H0       H01     AOSYM     SMH    MOLCAS    ERIS     OPER   

 PROGRAMS   *        TOTAL       INT
 CPU TIMES  *         1.62      1.58
 REAL TIME  *         2.01 SEC
 DISK USED  *       416.46 MB      
 GA USED    *         0.00 MB       (max)       0.00 MB       (current)
 **********************************************************************************************************************************

1PROGRAM * RHF-SCF (CLOSED SHELL)       Authors: W. Meyer, H.-J. Werner


 NUMBER OF ELECTRONS:      17+   17-
 CONVERGENCE THRESHOLDS:    1.00E-10 (Density)    1.00E-13 (Energy)
 MAX. NUMBER OF ITERATIONS:      200
 INTERPOLATION TYPE:            DIIS
 INTERPOLATION STEPS:              2 (START)      1 (STEP)
 LEVEL SHIFTS:                  0.00 (CLOSED)  0.00 (OPEN) 



 Orbital guess generated from atomic densities. Full valence occupancy:   20   6

 Molecular orbital dump at record        2100.2

 Initial alpha occupancy:  14   3
 Initial beta  occupancy:  14   3
 Wave function symmetry:    1

 ITERATION    DDIFF          GRAD             ENERGY        2-EL.EN.            DIPOLE MOMENTS         DIIS
    1      0.000D+00      0.000D+00      -224.96630609    393.455673    0.06152   -0.54697    0.00000    0
    2      0.000D+00      0.943D-02      -225.02734913    393.081497   -0.58496   -0.36806    0.00000    1
    3      0.175D-01      0.653D-02      -225.06034497    393.626075   -0.24425   -0.53685    0.00000    2
    4      0.756D-02      0.131D-02      -225.06257220    393.459373   -0.32157   -0.44205    0.00000    3
    5      0.194D-02      0.520D-03      -225.06298834    393.472667   -0.31921   -0.47133    0.00000    4
    6      0.844D-03      0.126D-03      -225.06303018    393.499375   -0.32455   -0.46855    0.00000    5
    7      0.289D-03      0.483D-04      -225.06303618    393.483469   -0.32617   -0.46866    0.00000    6
    8      0.115D-03      0.195D-04      -225.06303715    393.489938   -0.32717   -0.46859    0.00000    7
    9      0.438D-04      0.826D-05      -225.06303735    393.488787   -0.32744   -0.46830    0.00000    8
   10      0.239D-04      0.249D-05      -225.06303737    393.488506   -0.32751   -0.46812    0.00000    8
   11      0.716D-05      0.840D-06      -225.06303737    393.488611   -0.32753   -0.46804    0.00000    8
   12      0.235D-05      0.256D-06      -225.06303737    393.488577   -0.32753   -0.46801    0.00000    8
   13      0.883D-06      0.786D-07      -225.06303737    393.488571   -0.32753   -0.46801    0.00000    8
   14      0.211D-06      0.401D-07      -225.06303737    393.488573   -0.32753   -0.46801    0.00000    9
   15      0.986D-07      0.383D-08      -225.06303737    393.488573   -0.32753   -0.46801    0.00000    8
   16      0.993D-08      0.106D-08      -225.06303737    393.488573   -0.32753   -0.46801    0.00000    7
   17      0.342D-08      0.224D-09      -225.06303737    393.488573   -0.32753   -0.46801    0.00000    7
   18      0.574D-09      0.765D-10      -225.06303737    393.488573   -0.32753   -0.46801    0.00000    7
   19      0.181D-09      0.249D-10      -225.06303737    393.488573   -0.32753   -0.46801    0.00000    7
   20      0.659D-10      0.730D-11      -225.06303737    393.488573   -0.32753   -0.46801    0.00000    6
   21      0.202D-10      0.205D-11      -225.06303737    393.488573   -0.32753   -0.46801    0.00000    7
   22      0.697D-11      0.553D-12      -225.06303737    393.488573   -0.32753   -0.46801    0.00000    7
   23      0.151D-11      0.353D-12      -225.06303737    393.488573   -0.32753   -0.46801    0.00000    8
   24      0.913D-12      0.723D-13      -225.06303737    393.488573   -0.32753   -0.46801    0.00000    8
   25      0.467D-12      0.572D-13      -225.06303737    393.488573   -0.32753   -0.46801    0.00000    8
   26      0.516D-12      0.288D-13      -225.06303737    393.488573   -0.32753   -0.46801    0.00000    0

 Final occupancy:  14   3

 !RHF STATE 1.1 Energy               -225.063037373575
 Nuclear energy                       117.58037963
 One-electron energy                 -539.38770370
 Two-electron energy                  196.74428669
 Virial quotient                       -1.00208657
 !RHF STATE 1.1 Dipole moment          -0.32752923    -0.46800832     0.00000000
 Dipole moment /Debye                  -0.83244175    -1.18948058     0.00000000

 Orbital energies:

         1.1          2.1          3.1          4.1          5.1          6.1          7.1          8.1          9.1         10.1
    -20.639997   -15.714077   -15.549082   -11.270186    -1.519876    -1.140252    -1.074922    -0.862335    -0.692945    -0.676626

        11.1         12.1         13.1         14.1         15.1         16.1
     -0.623617    -0.555291    -0.428288    -0.405322     0.077820     0.088873

         1.2          2.2          3.2          4.2          5.2
     -0.637267    -0.624076    -0.535407     0.085627     0.100588


 **********************************************************************************************************************************
 DATASETS  * FILE   NREC   LENGTH (MB)   RECORD NAMES
              1      19      112.43       500      610      700      900      950      970     1000      129      960     1100   
                                          VAR    BASINP    GEOM    SYMINP    ZMAT    AOBASIS   BASIS     P2S    ABASIS      S 
                                         1400     1410     1200     1210     1080     1600     1650     1300     1700   
                                           T        V       H0       H01     AOSYM     SMH    MOLCAS    ERIS     OPER   

              2       3        0.59       700     1000     2100   
                                         GEOM     BASIS     RHF  

 PROGRAMS   *        TOTAL       RHF       INT
 CPU TIMES  *         3.80      2.18      1.58
 REAL TIME  *         4.52 SEC
 DISK USED  *       416.46 MB      
 GA USED    *         0.00 MB       (max)       0.00 MB       (current)
 **********************************************************************************************************************************


1PROGRAM * CCSD (Closed-shell coupled cluster)     Authors: C. Hampel, H.-J. Werner, 1991, M. Deegan, P.J. Knowles, 1992


 Convergence thresholds:  THRVAR = 1.00D-08  THRDEN = 1.00D-12

 CCSD(T)     terms to be evaluated (factor= 1.000)


 Number of core orbitals:           4 (   4   0 )
 Number of closed-shell orbitals:  13 (  10   3 )
 Number of external orbitals:     105 (  68  37 )

 Molecular orbitals read from record     2100.2  Type=RHF/CANONICAL (state 1.1)

 Number of N-1 electron functions:              13
 Number of N-2 electron functions:              91
 Number of singly external CSFs:               791
 Number of doubly external CSFs:            478261
 Total number of CSFs:                      479053

 Length of J-op  integral file:               0.00 MB
 Length of K-op  integral file:               0.61 MB
 Length of 3-ext integral record:             0.00 MB

 Memory could be reduced to 10.60 Mwords without degradation in triples

 Integral transformation finished. Total CPU:   0.41 sec, npass=  1  Memory used:   4.15 MW

 Reference energy:                   -225.06303737

 MP2 singlet pair energy:              -0.44806381
 MP2 triplet pair energy:              -0.26425661
 MP2 correlation energy:               -0.71232042
 MP2 total energy:                   -225.77535779

 SCS-MP2 correlation energy:           -0.70210291   (PS=  1.200000  PT=  0.333333)
 SCS-MP2 total energy:               -225.76514028

 ITER.      SQ.NORM     CORR.ENERGY   TOTAL ENERGY   ENERGY CHANGE        DEN1      VAR(S)    VAR(P)  DIIS     TIME
   1      1.24102649    -0.74648896  -225.80952634    -0.03416854    -0.01062238  0.51D-02  0.49D-02  1  1     1.17
   2      1.26267967    -0.74961339  -225.81265077    -0.00312443    -0.02100043  0.16D-03  0.85D-03  2  2     1.96
   3      1.27251889    -0.75029928  -225.81333665    -0.00068588    -0.00455586  0.12D-03  0.60D-04  3  3     2.75
   4      1.27658355    -0.75026590  -225.81330327     0.00003338    -0.00135019  0.10D-04  0.11D-04  4  4     3.54
   5      1.27817952    -0.75028292  -225.81332029    -0.00001702    -0.00034964  0.18D-05  0.16D-05  5  5     4.33
   6      1.27862371    -0.75025322  -225.81329059     0.00002970    -0.00005325  0.14D-06  0.32D-06  6  6     5.12
   7      1.27872155    -0.75025042  -225.81328780     0.00000279    -0.00000366  0.32D-07  0.84D-07  6  2     5.91
   8      1.27874504    -0.75025115  -225.81328853    -0.00000073    -0.00000040  0.42D-08  0.19D-07  6  1     6.70
   9      1.27874521    -0.75025059  -225.81328796     0.00000056     0.00000427  0.25D-08  0.30D-08  6  4     7.49
  10      1.27874736    -0.75025136  -225.81328873    -0.00000077    -0.00000115  0.50D-09  0.41D-09  6  3     8.29
  11      1.27874530    -0.75025157  -225.81328894    -0.00000021     0.00000043  0.16D-09  0.73D-10  6  5     9.08
  12      1.27874382    -0.75025164  -225.81328901    -0.00000007     0.00000031  0.37D-10  0.16D-10  6  6     9.88
  13      1.27874226    -0.75025175  -225.81328913    -0.00000012     0.00000038  0.52D-11  0.37D-11  6  1    10.68
  14      1.27874160    -0.75025177  -225.81328914    -0.00000001     0.00000017  0.12D-11  0.52D-12  6  2    11.47
  15      1.27874136    -0.75025177  -225.81328915    -0.00000001     0.00000004  0.19D-12  0.81D-13  6  4    12.27
  16      1.27874130    -0.75025178  -225.81328915    -0.00000000     0.00000001  0.54D-13  0.21D-13  6  3    13.06
  17      1.27874128    -0.75025178  -225.81328915     0.00000000    -0.00000000  0.90D-14  0.46D-14  6  6    13.86
  18      1.27874128    -0.75025178  -225.81328915    -0.00000000    -0.00000000  0.13D-14  0.93D-15  6  5    14.66
  19      1.27874128    -0.75025178  -225.81328915     0.00000000    -0.00000000  0.17D-15  0.21D-15  6  1    15.45
  20      1.27874128    -0.75025178  -225.81328915     0.00000000    -0.00000000  0.48D-16  0.60D-16  6  2    16.25
  21      1.27874128    -0.75025178  -225.81328915     0.00000000     0.00000000  0.15D-16  0.14D-16  6  6    17.05
  22      1.27874128    -0.75025178  -225.81328915     0.00000000    -0.00000000  0.27D-17  0.35D-17  6  4    17.85
  23      1.27874128    -0.75025178  -225.81328915     0.00000000    -0.00000000  0.97D-18  0.66D-18  6  3    18.64
  24      1.27874128    -0.75025178  -225.81328915    -0.00000000    -0.00000000  0.21D-18  0.13D-18  6  5    19.44
  25      1.27874128    -0.75025178  -225.81328915     0.00000000    -0.00000000  0.68D-19  0.32D-19  6  1    20.23
  26      1.27874128    -0.75025178  -225.81328915     0.00000000    -0.00000000  0.11D-19  0.46D-20  6  2    21.03
  27      1.27874128    -0.75025178  -225.81328915     0.00000000    -0.00000000  0.28D-20  0.88D-21  6  6    21.82

 Norm of t1 vector:      0.11003054      S-energy:     0.00000000      T1 diagnostic:  0.01525849
                                                                       D1 diagnostic:  0.04840070

 Doubles amplitudes (print threshold =  0.500E-01):

         I         J         SYM. A    SYM. B    A         B      T(IJ, AB)

        13        13         2         2         1         1     -0.05285692


 Total CPU time for triples:     12.51 sec


 RESULTS
 =======

  Reference energy                   -225.063037373575
  CCSD singlet pair energy             -0.516310072475
  CCSD triplet pair energy             -0.233941703610
  CCSD correlation energy              -0.750251776085

  Triples (T) contribution             -0.026150968108
  Total correlation energy             -0.776402744192

  CCSD total energy                  -225.813289149660
  CCSD[T] energy                     -225.841014995575
  CCSD-T energy                      -225.838952389358
 !CCSD(T) total energy               -225.839440117768

 Timing summary (sec):

 STEP                 CPU(USER)    SYS     CPU(TOT)    WALL
 Transformation          0.43      0.07      0.50      0.50
 CCSD iterations        21.40      0.97     22.37     22.42
 Triples                12.51      0.37     12.88     12.89

 Program statistics:

 Available memory in ccsd:               999999224
 Min. memory needed in ccsd:               1317552
 Max. memory used in ccsd:                 1735628
 Max. memory used in cckext:               1789017 (27 integral passes)



 **********************************************************************************************************************************
 DATASETS  * FILE   NREC   LENGTH (MB)   RECORD NAMES
              1      20      152.03       500      610      700      900      950      970     1000      129      960     1100   
                                          VAR    BASINP    GEOM    SYMINP    ZMAT    AOBASIS   BASIS     P2S    ABASIS      S 
                                         1400     1410     1200     1210     1080     1600     1650     1300     1700     1380   
                                           T        V       H0       H01     AOSYM     SMH    MOLCAS    ERIS     OPER     JKOP   

              2       3        0.59       700     1000     2100   
                                         GEOM     BASIS     RHF  

 PROGRAMS   *        TOTAL   CCSD(T)       RHF       INT
 CPU TIMES  *        38.15     34.34      2.18      1.58
 REAL TIME  *        40.36 SEC
 DISK USED  *       416.46 MB      
 GA USED    *         0.00 MB       (max)       0.00 MB       (current)
 **********************************************************************************************************************************

        CCSD(T)         RHF-SCF 
   -225.83944012   -225.06303737
 **********************************************************************************************************************************
 Variable memory released
