
 Primary working directories    : /tmp/1011018.354.gen4.q
 Secondary working directories  : /tmp/1011018.354.gen4.q
 Wavefunction directory         : /home/vulcan/mel64643/wfu/
 Main file repository           : /tmp/1011018.354.gen4.q/

 ARCHNAME  : Linux/x86_64
 FC        : /opt/intel/compilers_and_libraries_2016.1.150/linux/bin/intel64/ifort
 FCVERSION : 16.0.1
 BLASLIB   : -mkl
 id        : ccgc

 Nodes     nprocs
 n065         1
 ga_uses_ma=false, calling ma_init with nominal heap.
 GA-space will be limited to   8.0 MW (determined by -G option)

 Using customized tuning parameters: mindgm=10; mindgv=16; mindgc=4; mindgr=1; noblas=0; mincuda=1000; minvec=7
 default implementation of scratch files=df  

 ***,Optimization of ethene_ethyne
 memory,1000,m
 gthresh,energy=1.0d-12,orbital=1.0d-10,oneint=1.0d-16,twoint=1.0d-16,optgrad=1.0d-6,compress=1.0d-13
 geomtyp=xyz
 
 
 
 bohr
 geometry = {
  C    0.0000000000   -1.2659989287   -3.9730575004
  C   -0.0000000000    1.2637568474   -3.9785880624
  H    1.7478767550   -2.3344413971   -3.9723897959
  H   -1.7478767550   -2.3344413971   -3.9723897959
  H   -1.7478767550    2.3321920221   -3.9825920082
  H    1.7478767550    2.3321920221   -3.9825920082
  C    0.0000000000    0.0032086479    5.4064040320
  C    0.0000000000    0.0143875886    3.1180389609
  H    0.0000000000    0.0099815708    1.1026653055
  H    0.0000000000   -0.0208369761    7.4174523235
  X    2.0000000000    0.0000000000    5.4004221540
  X    0.0000000000    2.0000000000    5.4004221540
  X    2.0000000000    0.0000000000    3.1120297780
  X    0.0000000000    2.0000000000    3.1120297780
 }
 
 basis=aug-cc-pvdz, H=cc-pvdz
 {rhf;maxit,200}
 {mp2}

 Variables initialized (661), CPU time= 0.01 sec
 Commands  initialized (458), CPU time= 0.00 sec, 486 directives.
 Default parameters read. Elapsed time= 0.05 sec

 Checking input...
 Passed
1


                                         ***  PROGRAM SYSTEM MOLPRO  ***
                         Copyright, University College Cardiff Consultants Limited, 2008

                                    Version 2010.1 linked May 16 2016 07:17:05


 **********************************************************************************************************************************
 LABEL *   Optimization of ethene_ethyne                                                 
 Linux-4.4.3/n065(x86_64) 64 bit mpp version                                             DATE: 25-Feb-24          TIME: 03:29:36  
 **********************************************************************************************************************************

 SHA1:             9e8077add272b0f3cad6f7df79ec5211205f459d
 **********************************************************************************************************************************

 THRESHOLDS:

 ZERO    =  1.00D-12  ONEINT  =  1.00D-16  TWOINT  =  1.00D-16  PREFAC  =  1.00D-14  LOCALI  =  1.00D-09  EORDER  =  1.00D-04
 ENERGY  =  1.00D-12  ETEST   =  0.00D+00  EDENS   =  0.00D+00  THRDEDEF=  1.00D-06  GRADIENT=  1.00D-02  STEP    =  1.00D-03
 ORBITAL =  1.00D-10  CIVEC   =  1.00D-05  COEFF   =  1.00D-04  PRINTCI =  5.00D-02  PUNCHCI =  9.90D+01  OPTGRAD =  1.00D-06
 OPTENERG=  1.00D-06  OPTSTEP =  3.00D-04  THRGRAD =  1.00D-10  COMPRESS=  1.00D-13  VARMIN  =  1.00D-07  VARMAX  =  1.00D-03
 THRDOUB =  0.00D+00  THRDIV  =  1.00D-05  THRRED  =  1.00D-07  THRPSP  =  1.00D+00  THRDC   =  1.00D-10  THRCS   =  1.00D-10
 THRNRM  =  1.00D-08  THREQ   =  0.00D+00  THRDE   =  1.00D+00  THRREF  =  1.00D-05  SPARFAC =  1.00D+00  THRDLP  =  1.00D-07
 THRDIA  =  1.00D-10  THRDLS  =  1.00D-07  THRGPS  =  0.00D+00  THRKEX  =  0.00D+00  THRDIS  =  2.00D-01  THRVAR  =  1.00D-10
 THRLOC  =  1.00D-06  THRGAP  =  1.00D-06  THRLOCT = -1.00D+00  THRGAPT = -1.00D+00  THRORB  =  1.00D-06  THRMLTP =  0.00D+00
 THRCPQCI=  1.00D-10  KEXTA   =  0.00D+00  THRCOARS=  0.00D+00  SYMTOL  =  1.00D-06  GRADTOL =  1.00D-06  THROVL  =  1.00D-08
 THRORTH =  1.00D-08  GRID    =  1.00D-06  GRIDMAX =  1.00D-03  DTMAX   =  0.00D+00

 SETTING GEOMTYP        =    XYZ
 ZUNIT=BOHR
 

 Variable memory set to 1000000000 words,  buffer space   230000 words

 SETTING BASIS          =    AUG-CC-PVDZ,H=CC-PVDZ


 Recomputing integrals since basis changed


 Using spherical harmonics

 Library entry C      S aug-cc-pVDZ          selected for orbital group  1
 Library entry C      P aug-cc-pVDZ          selected for orbital group  1
 Library entry C      D aug-cc-pVDZ          selected for orbital group  1
 Library entry H      S cc-pVDZ              selected for orbital group  2
 Library entry H      P cc-pVDZ              selected for orbital group  2

1PROGRAM * SEWARD (Integral evaluation for generally contracted gaussian basis sets)     Author: Roland Lindh, 1990

 Geometry written to block  1 of record 700


 Point group  Cs  



 ATOMIC COORDINATES

 NR  ATOM    CHARGE       X              Y              Z

   1  C       6.00    0.000000000   -1.265998929   -3.973057500
   2  C       6.00    0.000000000    1.263756847   -3.978588062
   3  H       1.00    1.747876755   -2.334441397   -3.972389796
   4  H       1.00   -1.747876755   -2.334441397   -3.972389796
   5  H       1.00   -1.747876755    2.332192022   -3.982592008
   6  H       1.00    1.747876755    2.332192022   -3.982592008
   7  C       6.00    0.000000000    0.003208648    5.406404032
   8  C       6.00    0.000000000    0.014387589    3.118038961
   9  H       1.00    0.000000000    0.009981571    1.102665305
  10  H       1.00    0.000000000   -0.020836976    7.417452324

 Bond lengths in Bohr (Angstrom)

 1-2  2.529761822  1-3  2.048570942  1-4  2.048570942  2-5  2.048570942  2-6  2.048570942
     ( 1.338692300)     ( 1.084057054)     ( 1.084057054)     ( 1.084057054)     ( 1.084057054)

  7- 8  2.288392376   7-10  2.011192040   8- 9  2.015378472
       ( 1.210965091)       ( 1.064276991)       ( 1.066492355)

 Bond angles

  1-2-5  121.43658155   1-2-6  121.43658155   2-1-3  121.43658155   2-1-4  121.43658155

  3- 1- 4  117.12675152   5- 2- 6  117.12675152   7- 8- 9  179.59484534   8- 7-10  179.59485530

 NUCLEAR CHARGE:                   30
 NUMBER OF PRIMITIVE AOS:         190
 NUMBER OF SYMMETRY AOS:          182
 NUMBER OF CONTRACTIONS:          122   (  82A'  +  40A"  )
 NUMBER OF CORE ORBITALS:           4   (   4A'  +   0A"  )
 NUMBER OF VALENCE ORBITALS:       22   (  16A'  +   6A"  )


 NUCLEAR REPULSION ENERGY   85.46031595


 Eigenvalues of metric

         1 0.820E-04 0.172E-03 0.227E-03 0.269E-03 0.293E-02 0.484E-02 0.499E-02 0.665E-02
         2 0.576E-02 0.682E-02 0.846E-02 0.963E-02 0.272E-01 0.382E-01 0.447E-01 0.625E-01


 Contracted 2-electron integrals neglected if value below      1.0D-16
 AO integral compression algorithm  1   Integral accuracy      1.0D-16

     118.227 MB (compressed) written to integral file ( 87.9%)

     Node minimum: 118.227 MB, node maximum: 118.227 MB


 NUMBER OF SORTED TWO-ELECTRON INTEGRALS:   14499896.     BUFFER LENGTH:  32768
 NUMBER OF SEGMENTS:   1  SEGMENT LENGTH:   14499896      RECORD LENGTH: 524288

 Memory used in sort:      15.06 MW

 SORT1 READ    16789938. AND WROTE    14104077. INTEGRALS IN     41 RECORDS. CPU TIME:     0.17 SEC, REAL TIME:     0.25 SEC
 SORT2 READ    14104077. AND WROTE    14499896. INTEGRALS IN    451 RECORDS. CPU TIME:     0.17 SEC, REAL TIME:     0.23 SEC

 FILE SIZES:   FILE 1:   106.7 MBYTE,  FILE 4:   172.0 MBYTE,   TOTAL:    278.7 MBYTE

 OPERATOR DM      FOR CENTER  0  COORDINATES:    0.000000    0.000000    0.000000


 **********************************************************************************************************************************
 DATASETS  * FILE   NREC   LENGTH (MB)   RECORD NAMES
              1      19      106.80       500      610      700      900      950      970     1000      129      960     1100   
                                          VAR    BASINP    GEOM    SYMINP    ZMAT    AOBASIS   BASIS     P2S    ABASIS      S 
                                         1400     1410     1200     1210     1080     1600     1650     1300     1700   
                                           T        V       H0       H01     AOSYM     SMH    MOLCAS    ERIS     OPER   

 PROGRAMS   *        TOTAL       INT
 CPU TIMES  *         1.60      1.55
 REAL TIME  *         1.96 SEC
 DISK USED  *       397.86 MB      
 GA USED    *         0.00 MB       (max)       0.00 MB       (current)
 **********************************************************************************************************************************

1PROGRAM * RHF-SCF (CLOSED SHELL)       Authors: W. Meyer, H.-J. Werner


 NUMBER OF ELECTRONS:      15+   15-
 CONVERGENCE THRESHOLDS:    1.00E-10 (Density)    1.00E-13 (Energy)
 MAX. NUMBER OF ITERATIONS:      200
 INTERPOLATION TYPE:            DIIS
 INTERPOLATION STEPS:              2 (START)      1 (STEP)
 LEVEL SHIFTS:                  0.00 (CLOSED)  0.00 (OPEN) 



 Orbital guess generated from atomic densities. Full valence occupancy:   20   6

 Molecular orbital dump at record        2100.2

 Initial alpha occupancy:  12   3
 Initial beta  occupancy:  12   3
 Wave function symmetry:    1

 ITERATION    DDIFF          GRAD             ENERGY        2-EL.EN.            DIPOLE MOMENTS         DIIS
    1      0.000D+00      0.000D+00      -154.83516369    273.313383    0.00000   -0.00522   -0.05840    0
    2      0.000D+00      0.461D-02      -154.86719259    270.963773    0.00000   -0.00618   -0.14566    1
    3      0.112D-01      0.144D-02      -154.87012618    271.861127    0.00000   -0.00666   -0.12194    2
    4      0.279D-02      0.415D-03      -154.87051674    271.649553    0.00000   -0.00675   -0.14171    3
    5      0.116D-02      0.856D-04      -154.87052900    271.666456    0.00000   -0.00684   -0.13453    4
    6      0.206D-03      0.385D-04      -154.87053104    271.666935    0.00000   -0.00683   -0.13956    5
    7      0.656D-04      0.848D-05      -154.87053119    271.666368    0.00000   -0.00684   -0.13928    6
    8      0.205D-04      0.195D-05      -154.87053120    271.666279    0.00000   -0.00684   -0.13949    7
    9      0.522D-05      0.474D-06      -154.87053120    271.666317    0.00000   -0.00684   -0.13953    7
   10      0.160D-05      0.680D-07      -154.87053120    271.666315    0.00000   -0.00684   -0.13953    7
   11      0.284D-06      0.165D-07      -154.87053120    271.666318    0.00000   -0.00684   -0.13954    6
   12      0.571D-07      0.728D-08      -154.87053120    271.666317    0.00000   -0.00684   -0.13954    6
   13      0.210D-07      0.417D-08      -154.87053120    271.666317    0.00000   -0.00684   -0.13954    7
   14      0.171D-07      0.185D-08      -154.87053120    271.666317    0.00000   -0.00684   -0.13954    7
   15      0.816D-08      0.610D-09      -154.87053120    271.666317    0.00000   -0.00684   -0.13954    8
   16      0.250D-08      0.140D-09      -154.87053120    271.666317    0.00000   -0.00684   -0.13954    8
   17      0.360D-09      0.389D-10      -154.87053120    271.666317    0.00000   -0.00684   -0.13954    8
   18      0.930D-10      0.149D-10      -154.87053120    271.666317    0.00000   -0.00684   -0.13954    9
   19      0.366D-10      0.320D-11      -154.87053120    271.666317    0.00000   -0.00684   -0.13954    9
   20      0.108D-10      0.815D-12      -154.87053120    271.666317    0.00000   -0.00684   -0.13954    0

 Final occupancy:  12   3

 !RHF STATE 1.1 Energy               -154.870531198439
 Nuclear energy                        85.46031595
 One-electron energy                 -376.16400572
 Two-electron energy                  135.83315857
 Virial quotient                       -1.00220822
 !RHF STATE 1.1 Dipole moment           0.00000000    -0.00684052    -0.13953571
 Dipole moment /Debye                   0.00000000    -0.01738573    -0.35464116

 Orbital energies:

         1.1          2.1          3.1          4.1          5.1          6.1          7.1          8.1          9.1         10.1
    -11.250372   -11.248757   -11.248348   -11.244709    -1.044506    -1.024327    -0.802708    -0.760459    -0.671764    -0.595047

        11.1         12.1         13.1         14.1
     -0.402085    -0.386452     0.065046     0.065188

         1.2          2.2          3.2          4.2          5.2
     -0.651401    -0.515827    -0.402083     0.092541     0.115807


 **********************************************************************************************************************************
 DATASETS  * FILE   NREC   LENGTH (MB)   RECORD NAMES
              1      19      106.80       500      610      700      900      950      970     1000      129      960     1100   
                                          VAR    BASINP    GEOM    SYMINP    ZMAT    AOBASIS   BASIS     P2S    ABASIS      S 
                                         1400     1410     1200     1210     1080     1600     1650     1300     1700   
                                           T        V       H0       H01     AOSYM     SMH    MOLCAS    ERIS     OPER   

              2       3        0.66       700     1000     2100   
                                         GEOM     BASIS     RHF  

 PROGRAMS   *        TOTAL       RHF       INT
 CPU TIMES  *         3.33      1.73      1.55
 REAL TIME  *         3.96 SEC
 DISK USED  *       397.86 MB      
 GA USED    *         0.00 MB       (max)       0.00 MB       (current)
 **********************************************************************************************************************************


1PROGRAM * MP2 (Closed-shell)     Authors: C. Hampel, H.-J. Werner, 1991, M. Deegan, P.J. Knowles, 1992


 Convergence thresholds:  THRVAR = 1.00D-08  THRDEN = 1.00D-12

 Number of core orbitals:           4 (   4   0 )
 Number of closed-shell orbitals:  11 (   8   3 )
 Number of external orbitals:     107 (  70  37 )

 Molecular orbitals read from record     2100.2  Type=RHF/CANONICAL (state 1.1)

 Number of N-1 electron functions:              11
 Number of N-2 electron functions:              66
 Number of singly external CSFs:               671
 Number of doubly external CSFs:            353727
 Total number of CSFs:                      354399

 Length of J-op  integral file:               0.00 MB
 Length of K-op  integral file:               0.61 MB

 Integral transformation finished. Total CPU:   0.19 sec, npass=  1  Memory used:   0.64 MW

 Memory needed for MP2:                      0.04 MW

 SCS-MP2 correlation energy:           -0.548005880135   (PS=  1.200000  PT=  0.333333)
 SCS-MP2 total energy:               -155.418537078574


  Reference energy                   -154.870531198439
  MP2 singlet pair energy              -0.357824028132
  MP2 triplet pair energy              -0.190634538819
  MP2 correlation energy               -0.548458566951

 !MP2 total energy                   -155.418989765390


 **********************************************************************************************************************************
 DATASETS  * FILE   NREC   LENGTH (MB)   RECORD NAMES
              1      20      113.14       500      610      700      900      950      970     1000      129      960     1100   
                                          VAR    BASINP    GEOM    SYMINP    ZMAT    AOBASIS   BASIS     P2S    ABASIS      S 
                                         1400     1410     1200     1210     1080     1600     1650     1300     1700     1380   
                                           T        V       H0       H01     AOSYM     SMH    MOLCAS    ERIS     OPER     JKOP   

              2       3        0.66       700     1000     2100   
                                         GEOM     BASIS     RHF  

 PROGRAMS   *        TOTAL       MP2       RHF       INT
 CPU TIMES  *         3.56      0.23      1.73      1.55
 REAL TIME  *         4.22 SEC
 DISK USED  *       397.86 MB      
 GA USED    *         0.00 MB       (max)       0.00 MB       (current)
 **********************************************************************************************************************************

        MP2             RHF-SCF 
   -155.41898977   -154.87053120
 **********************************************************************************************************************************
 Variable memory released
