
 Primary working directories    : /tmp/1047041.285.gen6.q
 Secondary working directories  : /tmp/1047041.285.gen6.q
 Wavefunction directory         : /home/vulcan/mel64643/wfu/
 Main file repository           : /tmp/1047041.285.gen6.q/

 ARCHNAME  : Linux/x86_64
 FC        : /opt/intel/compilers_and_libraries_2016.1.150/linux/bin/intel64/ifort
 FCVERSION : 16.0.1
 BLASLIB   : -mkl
 id        : ccgc

 Nodes     nprocs
 n083         1
 ga_uses_ma=false, calling ma_init with nominal heap.
 GA-space will be limited to   8.0 MW (determined by -G option)

 Using customized tuning parameters: mindgm=10; mindgv=16; mindgc=4; mindgr=1; noblas=0; mincuda=1000; minvec=7
 default implementation of scratch files=df  

 ***,Optimization of ben_hcn
 memory,1000,m
 gthresh,energy=1.0d-12,orbital=1.0d-10,oneint=1.0d-16,twoint=1.0d-16,optgrad=1.0d-6,compress=1.0d-13
 geomtyp=xyz
 
 
 
 bohr
 geometry = {
  C   -1.8842072518    1.3718069233    2.2871682026
  C   -1.8584837335    2.6875690549   -0.0055670196
  C   -1.8760111948    1.3650209359   -2.2886802491
  C   -1.9192043326   -1.2730909161   -2.2905097719
  C   -1.9450675239   -2.5986711995   -0.0036749501
  C   -1.9275536662   -1.2763207540    2.2908933344
  H   -1.8647631122    2.3991316530    4.0587227857
  H   -1.8192888337    4.7351738693   -0.0096627408
  H   -1.8500357597    2.3880470479   -4.0626314719
  H   -1.9262802236   -2.2948031721   -4.0653683069
  H   -1.9719415462   -4.6464272682   -0.0062698358
  H   -1.9411388744   -2.2995822326    4.0648262904
  N    6.6221707124   -0.2153499253    0.0169365948
  C    4.4336119477   -0.0735346416    0.0090309775
  H    2.4149946396    0.0575541730    0.0018866747
 }
 
 basis=aug-cc-pvdz, H=cc-pvdz
 {rhf;maxit,200}
 {ccsd(t)}

 Variables initialized (661), CPU time= 0.00 sec
 Commands  initialized (458), CPU time= 0.01 sec, 486 directives.
 Default parameters read. Elapsed time= 0.04 sec

 Checking input...
 Passed
1


                                         ***  PROGRAM SYSTEM MOLPRO  ***
                         Copyright, University College Cardiff Consultants Limited, 2008

                                    Version 2010.1 linked May 16 2016 07:17:05


 **********************************************************************************************************************************
 LABEL *   Optimization of ben_hcn                                                       
 Linux-4.4.3/n083(x86_64) 64 bit mpp version                                             DATE: 07-Mar-24          TIME: 00:54:21  
 **********************************************************************************************************************************

 SHA1:             9e8077add272b0f3cad6f7df79ec5211205f459d
 **********************************************************************************************************************************

 THRESHOLDS:

 ZERO    =  1.00D-12  ONEINT  =  1.00D-16  TWOINT  =  1.00D-16  PREFAC  =  1.00D-14  LOCALI  =  1.00D-09  EORDER  =  1.00D-04
 ENERGY  =  1.00D-12  ETEST   =  0.00D+00  EDENS   =  0.00D+00  THRDEDEF=  1.00D-06  GRADIENT=  1.00D-02  STEP    =  1.00D-03
 ORBITAL =  1.00D-10  CIVEC   =  1.00D-05  COEFF   =  1.00D-04  PRINTCI =  5.00D-02  PUNCHCI =  9.90D+01  OPTGRAD =  1.00D-06
 OPTENERG=  1.00D-06  OPTSTEP =  3.00D-04  THRGRAD =  1.00D-10  COMPRESS=  1.00D-13  VARMIN  =  1.00D-07  VARMAX  =  1.00D-03
 THRDOUB =  0.00D+00  THRDIV  =  1.00D-05  THRRED  =  1.00D-07  THRPSP  =  1.00D+00  THRDC   =  1.00D-10  THRCS   =  1.00D-10
 THRNRM  =  1.00D-08  THREQ   =  0.00D+00  THRDE   =  1.00D+00  THRREF  =  1.00D-05  SPARFAC =  1.00D+00  THRDLP  =  1.00D-07
 THRDIA  =  1.00D-10  THRDLS  =  1.00D-07  THRGPS  =  0.00D+00  THRKEX  =  0.00D+00  THRDIS  =  2.00D-01  THRVAR  =  1.00D-10
 THRLOC  =  1.00D-06  THRGAP  =  1.00D-06  THRLOCT = -1.00D+00  THRGAPT = -1.00D+00  THRORB  =  1.00D-06  THRMLTP =  0.00D+00
 THRCPQCI=  1.00D-10  KEXTA   =  0.00D+00  THRCOARS=  0.00D+00  SYMTOL  =  1.00D-06  GRADTOL =  1.00D-06  THROVL  =  1.00D-08
 THRORTH =  1.00D-08  GRID    =  1.00D-06  GRIDMAX =  1.00D-03  DTMAX   =  0.00D+00

 SETTING GEOMTYP        =    XYZ
 ZUNIT=BOHR
 

 Variable memory set to 1000000000 words,  buffer space   230000 words

 SETTING BASIS          =    AUG-CC-PVDZ,H=CC-PVDZ


 Recomputing integrals since basis changed


 Using spherical harmonics

 Library entry C      S aug-cc-pVDZ          selected for orbital group  1
 Library entry C      P aug-cc-pVDZ          selected for orbital group  1
 Library entry C      D aug-cc-pVDZ          selected for orbital group  1
 Library entry H      S cc-pVDZ              selected for orbital group  2
 Library entry H      P cc-pVDZ              selected for orbital group  2
 Library entry N      S aug-cc-pVDZ          selected for orbital group  3
 Library entry N      P aug-cc-pVDZ          selected for orbital group  3
 Library entry N      D aug-cc-pVDZ          selected for orbital group  3

1PROGRAM * SEWARD (Integral evaluation for generally contracted gaussian basis sets)     Author: Roland Lindh, 1990

 Geometry written to block  1 of record 700


 Point group  C1  



 ATOMIC COORDINATES

 NR  ATOM    CHARGE       X              Y              Z

   1  C       6.00   -1.884207252    1.371806923    2.287168203
   2  C       6.00   -1.858483733    2.687569055   -0.005567020
   3  C       6.00   -1.876011195    1.365020936   -2.288680249
   4  C       6.00   -1.919204333   -1.273090916   -2.290509772
   5  C       6.00   -1.945067524   -2.598671200   -0.003674950
   6  C       6.00   -1.927553666   -1.276320754    2.290893334
   7  H       1.00   -1.864763112    2.399131653    4.058722786
   8  H       1.00   -1.819288834    4.735173869   -0.009662741
   9  H       1.00   -1.850035760    2.388047048   -4.062631472
  10  H       1.00   -1.926280224   -2.294803172   -4.065368307
  11  H       1.00   -1.971941546   -4.646427268   -0.006269836
  12  H       1.00   -1.941138874   -2.299582233    4.064826290
  13  N       7.00    6.622170712   -0.215349925    0.016936595
  14  C       6.00    4.433611948   -0.073534642    0.009030978
  15  H       1.00    2.414994640    0.057554173    0.001886675

 Bond lengths in Bohr (Angstrom)

 1-2  2.643582131  1-6  2.648485036  1-7  2.047969681  2-3  2.638569074  2-8  2.047984007
     ( 1.398923414)     ( 1.401517919)     ( 1.083738880)     ( 1.396270618)     ( 1.083746461)

  3- 4  2.638466058   3- 9  2.047964865   4- 5  2.643377668   4-10  2.047942583   5- 6  2.648388387
       ( 1.396216104)       ( 1.083736332)       ( 1.398815217)       ( 1.083724540)       ( 1.401466775)

  5-11  2.047934048   6-12  2.047946958  13-14  2.193162908  14-15  2.022881893
       ( 1.083720024)       ( 1.083726856)       ( 1.160571826)       ( 1.070462995)

 Bond angles

  1- 2- 3  120.06003349   1- 2- 8  119.97009654   1- 6- 5  119.87609954   1- 6-12  120.06034313

  2-1-6  119.93593543   2-1-7  120.03058454   2-3-4  120.12434693   2-3-9  119.93668012

  3- 2- 8  119.96962002   3- 4- 5  120.06387270   3- 4-10  119.96609595   4- 3- 9  119.93868820

  4- 5- 6  119.93971189   4- 5-11  120.03049043   5- 4-10  119.96970612   5- 6-12  120.06323829

  6- 1- 7  120.03320817   6- 5-11  120.02944567  13-14-15  179.99091354

 NUCLEAR CHARGE:                   56
 NUMBER OF PRIMITIVE AOS:         345
 NUMBER OF SYMMETRY AOS:          329
 NUMBER OF CONTRACTIONS:          219   ( 219A   )
 NUMBER OF CORE ORBITALS:           8   (   8A   )
 NUMBER OF VALENCE ORBITALS:       39   (  39A   )


 NUCLEAR REPULSION ENERGY  303.40499773


 Eigenvalues of metric

         1 0.865E-05 0.186E-04 0.229E-04 0.534E-04 0.630E-04 0.631E-04 0.929E-04 0.929E-04


 Contracted 2-electron integrals neglected if value below      1.0D-16
 AO integral compression algorithm  1   Integral accuracy      1.0D-16

     2342.519 MB (compressed) written to integral file ( 91.3%)

     Node minimum: 2342.519 MB, node maximum: 2342.519 MB


 NUMBER OF SORTED TWO-ELECTRON INTEGRALS:  290176095.     BUFFER LENGTH:  32768
 NUMBER OF SEGMENTS:  19  SEGMENT LENGTH:   15999762      RECORD LENGTH: 524288

 Memory used in sort:      16.56 MW

 SORT1 READ   320642736. AND WROTE   287612051. INTEGRALS IN    832 RECORDS. CPU TIME:     2.89 SEC, REAL TIME:     4.52 SEC
 SORT2 READ   287612051. AND WROTE   290176095. INTEGRALS IN   8936 RECORDS. CPU TIME:     1.72 SEC, REAL TIME:     2.83 SEC

 FILE SIZES:   FILE 1:  2153.0 MBYTE,  FILE 4:  3489.7 MBYTE,   TOTAL:   5642.7 MBYTE

 OPERATOR DM      FOR CENTER  0  COORDINATES:    0.000000    0.000000    0.000000


 **********************************************************************************************************************************
 DATASETS  * FILE   NREC   LENGTH (MB)   RECORD NAMES
              1      19     2153.58       500      610      700      900      950      970     1000      129      960     1100   
                                          VAR    BASINP    GEOM    SYMINP    ZMAT    AOBASIS   BASIS     P2S    ABASIS      S 
                                         1400     1410     1200     1210     1080     1600     1650     1300     1700   
                                           T        V       H0       H01     AOSYM     SMH    MOLCAS    ERIS     OPER   

 PROGRAMS   *        TOTAL       INT
 CPU TIMES  *        15.31     15.27
 REAL TIME  *        19.23 SEC
 DISK USED  *         7.99 GB      
 GA USED    *         0.01 MB       (max)       0.00 MB       (current)
 **********************************************************************************************************************************

1PROGRAM * RHF-SCF (CLOSED SHELL)       Authors: W. Meyer, H.-J. Werner


 NUMBER OF ELECTRONS:      28+   28-    SPACE SYMMETRY=1    SPIN SYMMETRY: Singlet 
 CONVERGENCE THRESHOLDS:    1.00E-10 (Density)    1.00E-13 (Energy)
 MAX. NUMBER OF ITERATIONS:      200
 INTERPOLATION TYPE:            DIIS
 INTERPOLATION STEPS:              2 (START)      1 (STEP)
 LEVEL SHIFTS:                  0.00 (CLOSED)  0.00 (OPEN) 



 Orbital guess generated from atomic densities. Full valence occupancy:   47

 Molecular orbital dump at record        2100.2

 ITERATION    DDIFF          GRAD             ENERGY        2-EL.EN.            DIPOLE MOMENTS         DIIS
    1      0.000D+00      0.000D+00      -323.54135296    822.147362   -1.89808    0.11343    0.00084    0
    2      0.000D+00      0.292D-02      -323.59779381    819.126768   -1.36833    0.05879   -0.01039    1
    3      0.781D-02      0.179D-02      -323.61439038    820.271974   -1.72894    0.08846   -0.00394    2
    4      0.260D-02      0.576D-03      -323.61672664    820.473713   -1.63826    0.08040   -0.00434    3
    5      0.963D-03      0.133D-03      -323.61685600    820.213717   -1.66218    0.08163   -0.00519    4
    6      0.223D-03      0.229D-04      -323.61686213    820.240563   -1.66354    0.08132   -0.00476    5
    7      0.845D-04      0.437D-05      -323.61686233    820.235723   -1.66388    0.08143   -0.00510    6
    8      0.108D-04      0.129D-05      -323.61686234    820.236633   -1.66419    0.08135   -0.00485    7
    9      0.350D-05      0.364D-06      -323.61686234    820.236744   -1.66417    0.08139   -0.00500    7
   10      0.888D-06      0.168D-06      -323.61686234    820.236706   -1.66417    0.08137   -0.00494    7
   11      0.324D-06      0.252D-07      -323.61686234    820.236705   -1.66417    0.08138   -0.00495    7
   12      0.110D-06      0.574D-08      -323.61686234    820.236707   -1.66417    0.08138   -0.00495    7
   13      0.189D-07      0.195D-08      -323.61686234    820.236707   -1.66417    0.08138   -0.00495    7
   14      0.619D-08      0.615D-09      -323.61686234    820.236706   -1.66417    0.08138   -0.00495    7
   15      0.209D-08      0.245D-09      -323.61686234    820.236706   -1.66417    0.08138   -0.00495    7
   16      0.612D-09      0.905D-10      -323.61686234    820.236706   -1.66417    0.08138   -0.00495    7
   17      0.325D-09      0.474D-10      -323.61686234    820.236706   -1.66417    0.08138   -0.00495    7
   18      0.164D-09      0.264D-10      -323.61686234    820.236706   -1.66417    0.08138   -0.00495    8
   19      0.161D-09      0.975D-11      -323.61686234    820.236706   -1.66417    0.08138   -0.00495    8
   20      0.120D-09      0.389D-11      -323.61686234    820.236706   -1.66417    0.08138   -0.00495    9
   21      0.156D-09      0.124D-11      -323.61686234    820.236706   -1.66417    0.08138   -0.00495    9
   22      0.152D-09      0.699D-12      -323.61686234    820.236706   -1.66417    0.08138   -0.00495    9
   23      0.849D-10      0.664D-12      -323.61686234    820.236706   -1.66417    0.08138   -0.00495    9
   24      0.679D-10      0.545D-12      -323.61686234    820.236706   -1.66417    0.08138   -0.00495    9
   25      0.400D-10      0.456D-12      -323.61686234    820.236706   -1.66417    0.08138   -0.00495    9
   26      0.259D-10      0.553D-12      -323.61686234    820.236706   -1.66417    0.08138   -0.00495    9
   27      0.164D-10      0.433D-12      -323.61686234    820.236706   -1.66417    0.08138   -0.00495    9
   28      0.195D-10      0.398D-12      -323.61686234    820.236706   -1.66417    0.08138   -0.00495    9
   29      0.144D-10      0.461D-12      -323.61686234    820.236706   -1.66417    0.08138   -0.00495    9
   30      0.134D-10      0.546D-12      -323.61686234    820.236706   -1.66417    0.08138   -0.00495    0

 Final occupancy:  28

 !RHF STATE 1.1 Energy               -323.616862343920
 Nuclear energy                       303.40499773
 One-electron energy                -1037.14021318
 Two-electron energy                  410.11835310
 Virial quotient                       -1.00170953
 !RHF STATE 1.1 Dipole moment          -1.66416584     0.08137534    -0.00494659
 Dipole moment /Debye                  -4.22961062     0.20682193    -0.01257216

 Orbital energies:

         1.1          2.1          3.1          4.1          5.1          6.1          7.1          8.1          9.1         10.1
    -15.591640   -11.283857   -11.266493   -11.265777   -11.265534   -11.264679   -11.264430   -11.263668    -1.218328    -1.173924

        11.1         12.1         13.1         14.1         15.1         16.1         17.1         18.1         19.1         20.1
     -1.037786    -1.037778    -0.845720    -0.845714    -0.789908    -0.729360    -0.664874    -0.639189    -0.608558    -0.608556

        21.1         22.1         23.1         24.1         25.1         26.1         27.1         28.1         29.1         30.1
     -0.565223    -0.520375    -0.514848    -0.514847    -0.475684    -0.475678    -0.359667    -0.359658     0.055868     0.060085


 **********************************************************************************************************************************
 DATASETS  * FILE   NREC   LENGTH (MB)   RECORD NAMES
              1      19     2153.58       500      610      700      900      950      970     1000      129      960     1100   
                                          VAR    BASINP    GEOM    SYMINP    ZMAT    AOBASIS   BASIS     P2S    ABASIS      S 
                                         1400     1410     1200     1210     1080     1600     1650     1300     1700   
                                           T        V       H0       H01     AOSYM     SMH    MOLCAS    ERIS     OPER   

              2       3        1.49       700     1000     2100   
                                         GEOM     BASIS     RHF  

 PROGRAMS   *        TOTAL       RHF       INT
 CPU TIMES  *        67.94     52.63     15.27
 REAL TIME  *        77.73 SEC
 DISK USED  *         7.99 GB      
 GA USED    *         0.01 MB       (max)       0.00 MB       (current)
 **********************************************************************************************************************************


1PROGRAM * CCSD (Closed-shell coupled cluster)     Authors: C. Hampel, H.-J. Werner, 1991, M. Deegan, P.J. Knowles, 1992


 Convergence thresholds:  THRVAR = 1.00D-08  THRDEN = 1.00D-12

 CCSD(T)     terms to be evaluated (factor= 1.000)


 Number of core orbitals:           8 (   8 )
 Number of closed-shell orbitals:  20 (  20 )
 Number of external orbitals:     191 ( 191 )

 Molecular orbitals read from record     2100.2  Type=RHF/CANONICAL (state 1.1)

 Number of N-1 electron functions:              20
 Number of N-2 electron functions:             210
 Number of singly external CSFs:              3820
 Number of doubly external CSFs:           7298110
 Total number of CSFs:                     7301931

 Length of J-op  integral file:               0.00 MB
 Length of K-op  integral file:               3.32 MB
 Length of 3-ext integral record:             0.00 MB

 Memory could be reduced to 174.82 Mwords without degradation in triples

 Integral transformation finished. Total CPU:  13.93 sec, npass=  1  Memory used: 128.13 MW

 Reference energy:                   -323.61686234

 MP2 singlet pair energy:              -0.67334476
 MP2 triplet pair energy:              -0.43520157
 MP2 correlation energy:               -1.10854634
 MP2 total energy:                   -324.72540868

 SCS-MP2 correlation energy:           -1.07880581   (PS=  1.200000  PT=  0.333333)
 SCS-MP2 total energy:               -324.69566815

 ITER.      SQ.NORM     CORR.ENERGY   TOTAL ENERGY   ENERGY CHANGE        DEN1      VAR(S)    VAR(P)  DIIS     TIME
   1      1.42873391    -1.14462679  -324.76148913    -0.03608045    -0.00288787  0.51D-02  0.99D-02  1  1    59.17
   2      1.46305626    -1.15050011  -324.76736245    -0.00587332    -0.03103155  0.83D-04  0.13D-02  2  2   104.66
   3      1.47634797    -1.15094778  -324.76781012    -0.00044767    -0.00655950  0.40D-04  0.12D-03  3  3   150.18
   4      1.48204014    -1.15119746  -324.76805981    -0.00024968    -0.00178583  0.22D-05  0.15D-04  4  4   195.73
   5      1.48356951    -1.15123316  -324.76809551    -0.00003570    -0.00036587  0.25D-06  0.14D-05  5  5   241.32
   6      1.48387570    -1.15122465  -324.76808699     0.00000852    -0.00005025  0.24D-07  0.91D-07  6  6   286.89
   7      1.48391048    -1.15122806  -324.76809040    -0.00000341    -0.00000225  0.34D-08  0.80D-08  6  2   332.47
   8      1.48391516    -1.15122841  -324.76809076    -0.00000036    -0.00000042  0.41D-09  0.83D-09  6  1   378.06
   9      1.48391538    -1.15122858  -324.76809092    -0.00000017     0.00000079  0.63D-10  0.78D-10  6  3   423.66
  10      1.48391576    -1.15122864  -324.76809098    -0.00000006     0.00000002  0.10D-10  0.99D-11  6  4   469.27
  11      1.48391548    -1.15122868  -324.76809102    -0.00000004     0.00000022  0.17D-11  0.14D-11  6  5   514.83
  12      1.48391532    -1.15122869  -324.76809103    -0.00000001     0.00000008  0.25D-12  0.27D-12  6  6   560.41
  13      1.48391518    -1.15122869  -324.76809104    -0.00000000     0.00000005  0.14D-13  0.52D-13  6  2   606.01
  14      1.48391512    -1.15122869  -324.76809104    -0.00000000     0.00000002  0.22D-14  0.94D-14  6  1   651.59
  15      1.48391509    -1.15122869  -324.76809104     0.00000000     0.00000001  0.47D-15  0.13D-14  6  3   697.19
  16      1.48391508    -1.15122869  -324.76809104    -0.00000000     0.00000000  0.10D-15  0.19D-15  6  4   742.79
  17      1.48391508    -1.15122869  -324.76809104    -0.00000000     0.00000000  0.19D-16  0.28D-16  6  5   788.39
  18      1.48391508    -1.15122869  -324.76809104    -0.00000000     0.00000000  0.37D-17  0.36D-17  6  6   833.97
  19      1.48391508    -1.15122869  -324.76809104    -0.00000000     0.00000000  0.83D-18  0.61D-18  6  2   879.55
  20      1.48391508    -1.15122869  -324.76809104    -0.00000000     0.00000000  0.19D-18  0.14D-18  6  1   925.12
  21      1.48391508    -1.15122869  -324.76809104    -0.00000000     0.00000000  0.65D-19  0.40D-19  6  3   970.67
  22      1.48391508    -1.15122869  -324.76809104     0.00000000     0.00000000  0.29D-19  0.17D-19  6  4  1016.25

 Norm of t1 vector:      0.09773670      S-energy:     0.00000000      T1 diagnostic:  0.01092729
                                                                       D1 diagnostic:  0.02771831

 Doubles amplitudes (print threshold =  0.500E-01):

         I         J         SYM. A    SYM. B    A         B      T(IJ, AB)

        19        19         1         1         7         7     -0.06211225
        20        20         1         1         8         8     -0.06211600


 Total CPU time for triples:    959.26 sec


 RESULTS
 =======

  Reference energy                   -323.616862343920
  CCSD singlet pair energy             -0.770020905106
  CCSD triplet pair energy             -0.381207787163
  CCSD correlation energy              -1.151228692270

  Triples (T) contribution             -0.054016387829
  Total correlation energy             -1.205245080099

  CCSD total energy                  -324.768091036189
  CCSD[T] energy                     -324.823439759610
  CCSD-T energy                      -324.821501932180
 !CCSD(T) total energy               -324.822107424019

 Timing summary (sec):

 STEP                 CPU(USER)    SYS     CPU(TOT)    WALL
 Transformation         14.39      0.99     15.38     15.40
 CCSD iterations      1001.87     14.05   1015.92   1016.08
 Triples               959.26     14.39    973.65    973.76

 Program statistics:

 Available memory in ccsd:               999998300
 Min. memory needed in ccsd:              17709720
 Max. memory used in ccsd:                24415330
 Max. memory used in cckext:              20754978 (22 integral passes)



 **********************************************************************************************************************************
 DATASETS  * FILE   NREC   LENGTH (MB)   RECORD NAMES
              1      20     2835.75       500      610      700      900      950      970     1000      129      960     1100   
                                          VAR    BASINP    GEOM    SYMINP    ZMAT    AOBASIS   BASIS     P2S    ABASIS      S 
                                         1400     1410     1200     1210     1080     1600     1650     1300     1700     1380   
                                           T        V       H0       H01     AOSYM     SMH    MOLCAS    ERIS     OPER     JKOP   

              2       3        1.49       700     1000     2100   
                                         GEOM     BASIS     RHF  

 PROGRAMS   *        TOTAL   CCSD(T)       RHF       INT
 CPU TIMES  *      2043.47   1975.53     52.63     15.27
 REAL TIME  *      2083.10 SEC
 DISK USED  *         7.99 GB      
 GA USED    *         0.01 MB       (max)       0.00 MB       (current)
 **********************************************************************************************************************************

        CCSD(T)         RHF-SCF 
   -324.82210742   -323.61686234
 **********************************************************************************************************************************
 Variable memory released
