
 Primary working directories    : /tmp/1049102.273.gen4.q
 Secondary working directories  : /tmp/1049102.273.gen4.q
 Wavefunction directory         : /home/vulcan/mel64643/wfu/
 Main file repository           : /tmp/1049102.273.gen4.q/

 ARCHNAME  : Linux/x86_64
 FC        : /opt/intel/compilers_and_libraries_2016.1.150/linux/bin/intel64/ifort
 FCVERSION : 16.0.1
 BLASLIB   : -mkl
 id        : ccgc

 Nodes     nprocs
 n027         1
 ga_uses_ma=false, calling ma_init with nominal heap.
 GA-space will be limited to   8.0 MW (determined by -G option)

 Using customized tuning parameters: mindgm=10; mindgv=16; mindgc=4; mindgr=1; noblas=0; mincuda=1000; minvec=7
 default implementation of scratch files=df  

 ***,Optimization of h2o_3
 memory,1000,m
 gthresh,energy=1.0d-12,orbital=1.0d-10,oneint=1.0d-16,twoint=1.0d-16,optgrad=1.0d-6,compress=1.0d-13
 geomtyp=xyz
 
 
 
 bohr
 geometry = {
  C    0.9124737691    1.4082259012   -2.2735596925
  C    0.7378475578    2.7070848584    0.0208194845
  C    0.9964283210    1.4036670821    2.2990384467
  C    1.4282533443   -1.1986667511    2.2944145816
  C    1.6053517258   -2.5068989819    0.0058231015
  C    1.3466159974   -1.2032590728   -2.2837380715
  H    0.7024273685    2.4203380233   -4.0416467384
  H    0.3871364198    4.7246568120    0.0300484895
  H    0.8551631652    2.4136783023    4.0753714792
  H    1.6256754289   -2.2061037647    4.0670362420
  H    1.9386780636   -4.5279146864    0.0033164762
  H    1.4807878393   -2.2138855878   -4.0605572121
  N   -5.4352760252   -0.3566695119   -0.0709839732
  H   -5.5842642828   -1.5680235517   -1.5514291277
  H   -6.0618432663   -1.3147244434    1.4687188440
  H   -3.5545235593   -0.0732942257    0.1974053472
 }
 
 basis=aug-cc-pvdz, H=cc-pvdz
 {rhf;maxit,200}
 {ccsd(t)}

 Variables initialized (661), CPU time= 0.00 sec
 Commands  initialized (458), CPU time= 0.01 sec, 486 directives.
 Default parameters read. Elapsed time= 0.06 sec

 Checking input...
 Passed
1


                                         ***  PROGRAM SYSTEM MOLPRO  ***
                         Copyright, University College Cardiff Consultants Limited, 2008

                                    Version 2010.1 linked May 16 2016 07:17:05


 **********************************************************************************************************************************
 LABEL *   Optimization of h2o_3                                                         
 Linux-4.4.3/n027(x86_64) 64 bit mpp version                                             DATE: 18-Mar-24          TIME: 22:45:07  
 **********************************************************************************************************************************

 SHA1:             9e8077add272b0f3cad6f7df79ec5211205f459d
 **********************************************************************************************************************************

 THRESHOLDS:

 ZERO    =  1.00D-12  ONEINT  =  1.00D-16  TWOINT  =  1.00D-16  PREFAC  =  1.00D-14  LOCALI  =  1.00D-09  EORDER  =  1.00D-04
 ENERGY  =  1.00D-12  ETEST   =  0.00D+00  EDENS   =  0.00D+00  THRDEDEF=  1.00D-06  GRADIENT=  1.00D-02  STEP    =  1.00D-03
 ORBITAL =  1.00D-10  CIVEC   =  1.00D-05  COEFF   =  1.00D-04  PRINTCI =  5.00D-02  PUNCHCI =  9.90D+01  OPTGRAD =  1.00D-06
 OPTENERG=  1.00D-06  OPTSTEP =  3.00D-04  THRGRAD =  1.00D-10  COMPRESS=  1.00D-13  VARMIN  =  1.00D-07  VARMAX  =  1.00D-03
 THRDOUB =  0.00D+00  THRDIV  =  1.00D-05  THRRED  =  1.00D-07  THRPSP  =  1.00D+00  THRDC   =  1.00D-10  THRCS   =  1.00D-10
 THRNRM  =  1.00D-08  THREQ   =  0.00D+00  THRDE   =  1.00D+00  THRREF  =  1.00D-05  SPARFAC =  1.00D+00  THRDLP  =  1.00D-07
 THRDIA  =  1.00D-10  THRDLS  =  1.00D-07  THRGPS  =  0.00D+00  THRKEX  =  0.00D+00  THRDIS  =  2.00D-01  THRVAR  =  1.00D-10
 THRLOC  =  1.00D-06  THRGAP  =  1.00D-06  THRLOCT = -1.00D+00  THRGAPT = -1.00D+00  THRORB  =  1.00D-06  THRMLTP =  0.00D+00
 THRCPQCI=  1.00D-10  KEXTA   =  0.00D+00  THRCOARS=  0.00D+00  SYMTOL  =  1.00D-06  GRADTOL =  1.00D-06  THROVL  =  1.00D-08
 THRORTH =  1.00D-08  GRID    =  1.00D-06  GRIDMAX =  1.00D-03  DTMAX   =  0.00D+00

 SETTING GEOMTYP        =    XYZ
 ZUNIT=BOHR
 

 Variable memory set to 1000000000 words,  buffer space   230000 words

 SETTING BASIS          =    AUG-CC-PVDZ,H=CC-PVDZ


 Recomputing integrals since basis changed


 Using spherical harmonics

 Library entry C      S aug-cc-pVDZ          selected for orbital group  1
 Library entry C      P aug-cc-pVDZ          selected for orbital group  1
 Library entry C      D aug-cc-pVDZ          selected for orbital group  1
 Library entry H      S cc-pVDZ              selected for orbital group  2
 Library entry H      P cc-pVDZ              selected for orbital group  2
 Library entry N      S aug-cc-pVDZ          selected for orbital group  3
 Library entry N      P aug-cc-pVDZ          selected for orbital group  3
 Library entry N      D aug-cc-pVDZ          selected for orbital group  3

1PROGRAM * SEWARD (Integral evaluation for generally contracted gaussian basis sets)     Author: Roland Lindh, 1990

 Geometry written to block  1 of record 700


 Point group  C1  



 ATOMIC COORDINATES

 NR  ATOM    CHARGE       X              Y              Z

   1  C       6.00    0.912473769    1.408225901   -2.273559693
   2  C       6.00    0.737847558    2.707084858    0.020819484
   3  C       6.00    0.996428321    1.403667082    2.299038447
   4  C       6.00    1.428253344   -1.198666751    2.294414582
   5  C       6.00    1.605351726   -2.506898982    0.005823102
   6  C       6.00    1.346615997   -1.203259073   -2.283738072
   7  H       1.00    0.702427368    2.420338023   -4.041646738
   8  H       1.00    0.387136420    4.724656812    0.030048490
   9  H       1.00    0.855163165    2.413678302    4.075371479
  10  H       1.00    1.625675429   -2.206103765    4.067036242
  11  H       1.00    1.938678064   -4.527914686    0.003316476
  12  H       1.00    1.480787839   -2.213885588   -4.060557212
  13  N       7.00   -5.435276025   -0.356669512   -0.070983973
  14  H       1.00   -5.584264283   -1.568023552   -1.551429128
  15  H       1.00   -6.061843266   -1.314724443    1.468718844
  16  H       1.00   -3.554523559   -0.073294226    0.197405347

 Bond lengths in Bohr (Angstrom)

 1-2  2.642291565  1-6  2.647345244  1-7  2.048077694  2-3  2.637431241  2-8  2.047847666
     ( 1.398240476)     ( 1.400914768)     ( 1.083796038)     ( 1.395668503)     ( 1.083674313)

  3- 4  2.637922594   3- 9  2.048276727   4- 5  2.642061008   4-10  2.048436566   5- 6  2.647359355
       ( 1.395928516)       ( 1.083901362)       ( 1.398118470)       ( 1.083985945)       ( 1.400922235)

  5-11  2.048320582   6-12  2.048524907  13-14  1.918669843  13-15  1.918629856  13-16  1.920823838
       ( 1.083924569)       ( 1.084032693)       ( 1.015316352)       ( 1.015295192)       ( 1.016456198)

 Bond angles

  1- 2- 3  120.04326367   1- 2- 8  119.96887894   1- 6- 5  119.89831815   1- 6-12  120.04874174

  2-1-6  119.93936719   2-1-7  119.99489468   2-3-4  120.13689461   2-3-9  119.91169156

  3- 2- 8  119.98618250   3- 4- 5  120.06398618   3- 4-10  119.96247213   4- 3- 9  119.95108294

  4- 5- 6  119.91814229   4- 5-11  120.03462876   5- 4-10  119.97353698   5- 6-12  120.05292553

  6- 1- 7  120.06499730   6- 5-11  120.04711480  14-13-15  106.17607584  14-13-16  106.08043224

 15-13-16  106.33745550

 NUCLEAR CHARGE:                   52
 NUMBER OF PRIMITIVE AOS:         322
 NUMBER OF SYMMETRY AOS:          308
 NUMBER OF CONTRACTIONS:          206   ( 206A   )
 NUMBER OF CORE ORBITALS:           7   (   7A   )
 NUMBER OF VALENCE ORBITALS:       37   (  37A   )


 NUCLEAR REPULSION ENERGY  273.78604423


 Eigenvalues of metric

         1 0.862E-05 0.184E-04 0.228E-04 0.531E-04 0.642E-04 0.644E-04 0.107E-03 0.107E-03


 Contracted 2-electron integrals neglected if value below      1.0D-16
 AO integral compression algorithm  1   Integral accuracy      1.0D-16

     1893.728 MB (compressed) written to integral file ( 94.6%)

     Node minimum: 1893.728 MB, node maximum: 1893.728 MB


 NUMBER OF SORTED TWO-ELECTRON INTEGRALS:  227303181.     BUFFER LENGTH:  32768
 NUMBER OF SEGMENTS:  15  SEGMENT LENGTH:   15999503      RECORD LENGTH: 524288

 Memory used in sort:      16.56 MW

 SORT1 READ   250230670. AND WROTE   226416023. INTEGRALS IN    654 RECORDS. CPU TIME:     2.63 SEC, REAL TIME:     6.17 SEC
 SORT2 READ   226416023. AND WROTE   227303181. INTEGRALS IN   7224 RECORDS. CPU TIME:     1.56 SEC, REAL TIME:     2.50 SEC

 FILE SIZES:   FILE 1:  1744.3 MBYTE,  FILE 4:  2743.1 MBYTE,   TOTAL:   4487.4 MBYTE

 OPERATOR DM      FOR CENTER  0  COORDINATES:    0.000000    0.000000    0.000000


 **********************************************************************************************************************************
 DATASETS  * FILE   NREC   LENGTH (MB)   RECORD NAMES
              1      19     1744.84       500      610      700      900      950      970     1000      129      960     1100   
                                          VAR    BASINP    GEOM    SYMINP    ZMAT    AOBASIS   BASIS     P2S    ABASIS      S 
                                         1400     1410     1200     1210     1080     1600     1650     1300     1700   
                                           T        V       H0       H01     AOSYM     SMH    MOLCAS    ERIS     OPER   

 PROGRAMS   *        TOTAL       INT
 CPU TIMES  *        15.75     15.69
 REAL TIME  *        21.98 SEC
 DISK USED  *         6.38 GB      
 GA USED    *         0.01 MB       (max)       0.00 MB       (current)
 **********************************************************************************************************************************

1PROGRAM * RHF-SCF (CLOSED SHELL)       Authors: W. Meyer, H.-J. Werner


 NUMBER OF ELECTRONS:      26+   26-    SPACE SYMMETRY=1    SPIN SYMMETRY: Singlet 
 CONVERGENCE THRESHOLDS:    1.00E-10 (Density)    1.00E-13 (Energy)
 MAX. NUMBER OF ITERATIONS:      200
 INTERPOLATION TYPE:            DIIS
 INTERPOLATION STEPS:              2 (START)      1 (STEP)
 LEVEL SHIFTS:                  0.00 (CLOSED)  0.00 (OPEN) 



 Orbital guess generated from atomic densities. Full valence occupancy:   44

 Molecular orbital dump at record        2100.2

 ITERATION    DDIFF          GRAD             ENERGY        2-EL.EN.            DIPOLE MOMENTS         DIIS
    1      0.000D+00      0.000D+00      -286.85318031    741.033790    0.52046   -0.77214    0.12878    0
    2      0.000D+00      0.322D-02      -286.92073717    735.244375    0.43490   -0.38001    0.06928    1
    3      0.826D-02      0.133D-02      -286.93006777    737.875804    0.45214   -0.52432    0.08953    2
    4      0.218D-02      0.381D-03      -286.93128636    737.356353    0.45031   -0.49497    0.08622    3
    5      0.784D-03      0.530D-04      -286.93131034    737.344854    0.45631   -0.50641    0.08783    4
    6      0.136D-03      0.181D-04      -286.93131286    737.359695    0.45510   -0.50030    0.08698    5
    7      0.514D-04      0.558D-05      -286.93131315    737.356786    0.45576   -0.50265    0.08733    6
    8      0.152D-04      0.130D-05      -286.93131317    737.355737    0.45591   -0.50228    0.08727    7
    9      0.419D-05      0.540D-06      -286.93131317    737.356200    0.45594   -0.50237    0.08728    7
   10      0.149D-05      0.143D-06      -286.93131317    737.356149    0.45595   -0.50238    0.08728    7
   11      0.516D-06      0.409D-07      -286.93131317    737.356134    0.45596   -0.50237    0.08728    7
   12      0.141D-06      0.173D-07      -286.93131317    737.356148    0.45595   -0.50238    0.08728    8
   13      0.606D-07      0.754D-08      -286.93131317    737.356143    0.45595   -0.50238    0.08728    8
   14      0.331D-07      0.360D-08      -286.93131317    737.356145    0.45595   -0.50238    0.08728    8
   15      0.198D-07      0.138D-08      -286.93131317    737.356144    0.45595   -0.50238    0.08728    8
   16      0.710D-08      0.460D-09      -286.93131317    737.356144    0.45595   -0.50238    0.08728    9
   17      0.216D-08      0.128D-09      -286.93131317    737.356144    0.45595   -0.50238    0.08728    9
   18      0.444D-09      0.388D-10      -286.93131317    737.356144    0.45595   -0.50238    0.08728    9
   19      0.235D-09      0.159D-10      -286.93131317    737.356144    0.45595   -0.50238    0.08728    9
   20      0.157D-09      0.844D-11      -286.93131317    737.356144    0.45595   -0.50238    0.08728    9
   21      0.118D-09      0.421D-11      -286.93131317    737.356144    0.45595   -0.50238    0.08728    9
   22      0.255D-09      0.128D-11      -286.93131317    737.356144    0.45595   -0.50238    0.08728    9
   23      0.140D-09      0.725D-12      -286.93131317    737.356144    0.45595   -0.50238    0.08728    9
   24      0.832D-10      0.550D-12      -286.93131317    737.356144    0.45595   -0.50238    0.08728    9
   25      0.608D-10      0.555D-12      -286.93131317    737.356144    0.45595   -0.50238    0.08728    9
   26      0.292D-10      0.661D-12      -286.93131317    737.356144    0.45595   -0.50238    0.08728    9
   27      0.289D-10      0.451D-12      -286.93131317    737.356144    0.45595   -0.50238    0.08728    0

 Final occupancy:  26

 !RHF STATE 1.1 Energy               -286.931313169157
 Nuclear energy                       273.78604423
 One-electron energy                 -929.39542956
 Two-electron energy                  368.67807217
 Virial quotient                       -1.00146376
 !RHF STATE 1.1 Dipole moment           0.45595324    -0.50237560     0.08728154
 Dipole moment /Debye                   1.15884163    -1.27682778     0.22183302

 Orbital energies:

         1.1          2.1          3.1          4.1          5.1          6.1          7.1          8.1          9.1         10.1
    -15.534933   -11.250933   -11.250120   -11.249576   -11.248977   -11.248501   -11.247563    -1.157533    -1.125500    -1.022062

        11.1         12.1         13.1         14.1         15.1         16.1         17.1         18.1         19.1         20.1
     -1.021963    -0.830645    -0.830551    -0.714516    -0.650461    -0.623929    -0.611677    -0.609768    -0.593588    -0.593465

        21.1         22.1         23.1         24.1         25.1         26.1         27.1         28.1
     -0.504876    -0.500106    -0.500026    -0.413385    -0.342990    -0.341997     0.063893     0.066419


 **********************************************************************************************************************************
 DATASETS  * FILE   NREC   LENGTH (MB)   RECORD NAMES
              1      19     1744.84       500      610      700      900      950      970     1000      129      960     1100   
                                          VAR    BASINP    GEOM    SYMINP    ZMAT    AOBASIS   BASIS     P2S    ABASIS      S 
                                         1400     1410     1200     1210     1080     1600     1650     1300     1700   
                                           T        V       H0       H01     AOSYM     SMH    MOLCAS    ERIS     OPER   

              2       3        1.40       700     1000     2100   
                                         GEOM     BASIS     RHF  

 PROGRAMS   *        TOTAL       RHF       INT
 CPU TIMES  *        64.46     48.71     15.69
 REAL TIME  *        76.51 SEC
 DISK USED  *         6.38 GB      
 GA USED    *         0.01 MB       (max)       0.00 MB       (current)
 **********************************************************************************************************************************


1PROGRAM * CCSD (Closed-shell coupled cluster)     Authors: C. Hampel, H.-J. Werner, 1991, M. Deegan, P.J. Knowles, 1992


 Convergence thresholds:  THRVAR = 1.00D-08  THRDEN = 1.00D-12

 CCSD(T)     terms to be evaluated (factor= 1.000)


 Number of core orbitals:           7 (   7 )
 Number of closed-shell orbitals:  19 (  19 )
 Number of external orbitals:     180 ( 180 )

 Molecular orbitals read from record     2100.2  Type=RHF/CANONICAL (state 1.1)

 Number of N-1 electron functions:              19
 Number of N-2 electron functions:             190
 Number of singly external CSFs:              3420
 Number of doubly external CSFs:           5849910
 Total number of CSFs:                     5853331

 Length of J-op  integral file:               0.00 MB
 Length of K-op  integral file:               2.96 MB
 Length of 3-ext integral record:             0.00 MB

 Memory could be reduced to 140.12 Mwords without degradation in triples

 Integral transformation finished. Total CPU:  16.85 sec, npass=  1  Memory used: 101.90 MW

 Reference energy:                   -286.93131317

 MP2 singlet pair energy:              -0.62064463
 MP2 triplet pair energy:              -0.38986113
 MP2 correlation energy:               -1.01050576
 MP2 total energy:                   -287.94181893

 SCS-MP2 correlation energy:           -0.98735382   (PS=  1.200000  PT=  0.333333)
 SCS-MP2 total energy:               -287.91866699

 ITER.      SQ.NORM     CORR.ENERGY   TOTAL ENERGY   ENERGY CHANGE        DEN1      VAR(S)    VAR(P)  DIIS     TIME
   1      1.38488649    -1.05478879  -287.98610195    -0.04428302    -0.01720312  0.36D-02  0.80D-02  1  1    69.24
   2      1.41439908    -1.06065081  -287.99196398    -0.00586202    -0.02705327  0.63D-04  0.10D-02  2  2   122.05
   3      1.42353036    -1.06074646  -287.99205963    -0.00009565    -0.00464364  0.27D-04  0.84D-04  3  3   174.89
   4      1.42746763    -1.06091516  -287.99222833    -0.00016869    -0.00121416  0.22D-05  0.11D-04  4  4   227.76
   5      1.42868124    -1.06094611  -287.99225928    -0.00003096    -0.00027321  0.27D-06  0.13D-05  5  5   280.62
   6      1.42898382    -1.06093588  -287.99224905     0.00001024    -0.00004348  0.23D-07  0.79D-07  6  6   333.53
   7      1.42902457    -1.06093751  -287.99225068    -0.00000163    -0.00000103  0.35D-08  0.82D-08  6  2   386.41
   8      1.42903376    -1.06093737  -287.99225054     0.00000014    -0.00000117  0.76D-09  0.76D-09  6  1   439.28
   9      1.42903359    -1.06093750  -287.99225067    -0.00000014     0.00000123  0.21D-09  0.92D-10  6  4   492.22
  10      1.42903478    -1.06093751  -287.99225068    -0.00000001    -0.00000018  0.57D-10  0.15D-10  6  3   545.12
  11      1.42903473    -1.06093753  -287.99225070    -0.00000002     0.00000013  0.14D-10  0.37D-11  6  5   598.00
  12      1.42903469    -1.06093753  -287.99225070    -0.00000000     0.00000003  0.15D-11  0.10D-11  6  6   650.88
  13      1.42903451    -1.06093754  -287.99225070    -0.00000000     0.00000006  0.69D-13  0.20D-12  6  2   703.79
  14      1.42903441    -1.06093754  -287.99225071    -0.00000000     0.00000002  0.81D-14  0.40D-13  6  1   756.72
  15      1.42903435    -1.06093754  -287.99225071    -0.00000000     0.00000001  0.89D-15  0.53D-14  6  3   809.64
  16      1.42903433    -1.06093754  -287.99225071    -0.00000000     0.00000000  0.12D-15  0.37D-15  6  4   862.54
  17      1.42903433    -1.06093754  -287.99225071    -0.00000000     0.00000000  0.31D-16  0.44D-16  6  5   915.44
  18      1.42903433    -1.06093754  -287.99225071    -0.00000000     0.00000000  0.82D-17  0.71D-17  6  6   968.37
  19      1.42903432    -1.06093754  -287.99225071    -0.00000000     0.00000000  0.24D-17  0.77D-18  6  2  1021.30
  20      1.42903432    -1.06093754  -287.99225071    -0.00000000     0.00000000  0.79D-18  0.19D-18  6  1  1074.16
  21      1.42903432    -1.06093754  -287.99225071    -0.00000000     0.00000000  0.34D-18  0.83D-19  6  2  1127.05
  22      1.42903432    -1.06093754  -287.99225071    -0.00000000     0.00000000  0.14D-18  0.39D-19  6  3  1179.93
  23      1.42903432    -1.06093754  -287.99225071    -0.00000000     0.00000000  0.52D-19  0.19D-19  6  4  1232.86

 Norm of t1 vector:      0.08385988      S-energy:    -0.00000000      T1 diagnostic:  0.00961939
                                                                       D1 diagnostic:  0.02621165

 Doubles amplitudes (print threshold =  0.500E-01):

         I         J         SYM. A    SYM. B    A         B      T(IJ, AB)

        18        18         1         1         6         6     -0.05104858
        19        19         1         1         7         7     -0.05450762


 Total CPU time for triples:   1025.62 sec


 RESULTS
 =======

  Reference energy                   -286.931313169158
  CCSD singlet pair energy             -0.711163971980
  CCSD triplet pair energy             -0.349773565028
  CCSD correlation energy              -1.060937537008

  Triples (T) contribution             -0.045607964533
  Total correlation energy             -1.106545501541

  CCSD total energy                  -287.992250706166
  CCSD[T] energy                     -288.038729049995
  CCSD-T energy                      -288.037470018819
 !CCSD(T) total energy               -288.037858670698

 Timing summary (sec):

 STEP                 CPU(USER)    SYS     CPU(TOT)    WALL
 Transformation         17.47      0.97     18.44     18.44
 CCSD iterations      1215.41     12.68   1228.09   1228.23
 Triples              1025.62     11.41   1037.03   1037.09

 Program statistics:

 Available memory in ccsd:               999998456
 Min. memory needed in ccsd:              14392275
 Max. memory used in ccsd:                19775697
 Max. memory used in cckext:              16737545 (23 integral passes)



 **********************************************************************************************************************************
 DATASETS  * FILE   NREC   LENGTH (MB)   RECORD NAMES
              1      20     2288.44       500      610      700      900      950      970     1000      129      960     1100   
                                          VAR    BASINP    GEOM    SYMINP    ZMAT    AOBASIS   BASIS     P2S    ABASIS      S 
                                         1400     1410     1200     1210     1080     1600     1650     1300     1700     1380   
                                           T        V       H0       H01     AOSYM     SMH    MOLCAS    ERIS     OPER     JKOP   

              2       3        1.40       700     1000     2100   
                                         GEOM     BASIS     RHF  

 PROGRAMS   *        TOTAL   CCSD(T)       RHF       INT
 CPU TIMES  *      2322.98   2258.51     48.71     15.69
 REAL TIME  *      2360.39 SEC
 DISK USED  *         6.38 GB      
 GA USED    *         0.01 MB       (max)       0.00 MB       (current)
 **********************************************************************************************************************************

        CCSD(T)         RHF-SCF 
   -288.03785867   -286.93131317
 **********************************************************************************************************************************
 Variable memory released
