
    -----------------------------------------------------------------------
          Psi4: An Open-Source Ab Initio Electronic Structure Package
                               Psi4 1.4a2.dev629 

                         Git: Rev {master} 2938fc2 dirty


    D. G. A. Smith, L. A. Burns, A. C. Simmonett, R. M. Parrish,
    M. C. Schieber, R. Galvelis, P. Kraus, H. Kruse, R. Di Remigio,
    A. Alenaizan, A. M. James, S. Lehtola, J. P. Misiewicz, M. Scheurer,
    R. A. Shaw, J. B. Schriber, Y. Xie, Z. L. Glick, D. A. Sirianni,
    J. S. O'Brien, J. M. Waldrop, A. Kumar, E. G. Hohenstein,
    B. P. Pritchard, B. R. Brooks, H. F. Schaefer III, A. Yu. Sokolov,
    K. Patkowski, A. E. DePrince III, U. Bozkaya, R. A. King,
    F. A. Evangelista, J. M. Turney, T. D. Crawford, C. D. Sherrill,
    J. Chem. Phys. 152(18) 184108 (2020). https://doi.org/10.1063/5.0006002

                            Additional Code Authors
    E. T. Seidl, C. L. Janssen, E. F. Valeev, M. L. Leininger,
    J. F. Gonthier, R. M. Richard, H. R. McAlexander, M. Saitow, X. Wang,
    P. Verma, and M. H. Lechner

             Previous Authors, Complete List of Code Contributors,
                       and Citations for Specific Modules
    https://github.com/psi4/psi4/blob/master/codemeta.json
    https://github.com/psi4/psi4/graphs/contributors
    http://psicode.org/psi4manual/master/introduction.html#citing-psifour

    -----------------------------------------------------------------------


    Psi4 started on: Wednesday, 05 January 2022 04:09PM

    Process ID: 23371
    Host:       n081
    PSIDATADIR: /opt/psi/4/master/share/psi4
    Memory:     500.0 MiB
    Threads:    4
    
  ==> Input File <==

--------------------------------------------------------------------------
import os
memory 14 GB 
 
molecule {
 C   -1.2572334517    0.9628194597   -0.0013683647
 Cl    1.8287827142   -0.1574852895    0.0002362902
 H   -1.3777147426    2.9968344375    0.0003876719
 C   -3.2657402984   -0.5570391875    0.0017202239
 H   -3.0757524774   -2.5955665923   -0.0004918909
 H   -5.1349321496    0.2581177774   -0.0004839304
units bohr
}

basis {

assign 6-31g_2dfp_

[ 6-31g_2dfp_ ]

spherical

!----------------------------------------------------------------------
! Basis Set Exchange
! Version v0.8.13
! https://www.basissetexchange.org
!----------------------------------------------------------------------
!   Basis set: 6-31G(2df,p)
! Description: 6-31G(2df,p)
!        Role: orbital
!     Version: 0  (Data from the original Basis Set Exchange)
!----------------------------------------------------------------------


****
H     0
S    3   1.00
     18.7311370              0.03349460
      2.8253937              0.23472695
      0.6401217              0.81375733
S    1   1.00
      0.1612778              1.00000000
P    1   1.00
      1.5000000              1.0000000
P    1   1.00
      0.3750000              1.0000000
****
B     0
S    6   1.00
   2068.8823000              0.0018663
    310.6495700              0.0142515
     70.6830330              0.0695516
     19.8610800              0.2325729
      6.2993048              0.4670787
      2.1270270              0.3634314
SP   3   1.00
      4.7279710             -0.1303938              0.0745976
      1.1903377             -0.1307889              0.3078467
      0.3594117              1.1309444              0.7434568
SP   1   1.00
      0.1267512              1.0000000              1.0000000
D    1   1.00
      0.8020000              1.0000000
D    1   1.00
      0.2005000              1.0000000
F    1   1.00
      0.5000000              1.0000000
****
C     0
S    6   1.00
   3047.5249000              0.0018347
    457.3695100              0.0140373
    103.9486900              0.0688426
     29.2101550              0.2321844
      9.2866630              0.4679413
      3.1639270              0.3623120
SP   3   1.00
      7.8682724             -0.1193324              0.0689991
      1.8812885             -0.1608542              0.3164240
      0.5442493              1.1434564              0.7443083
SP   1   1.00
      0.1687144              1.0000000              1.0000000
D    1   1.00
      1.2520000              1.0000000
D    1   1.00
      0.3130000              1.0000000
F    1   1.00
      0.8000000              1.0000000
****
N     0
S    6   1.00
   4173.5110000              0.0018348
    627.4579000              0.0139950
    142.9021000              0.0685870
     40.2343300              0.2322410
     12.8202100              0.4690700
      4.3904370              0.3604550
SP   3   1.00
     11.6263580             -0.1149610              0.0675800
      2.7162800             -0.1691180              0.3239070
      0.7722180              1.1458520              0.7408950
SP   1   1.00
      0.2120313              1.0000000              1.0000000
D    1   1.00
      1.8260000              1.0000000
D    1   1.00
      0.4565000              1.0000000
F    1   1.00
      1.0000000              1.0000000
****
O     0
S    6   1.00
   5484.6717000              0.0018311
    825.2349500              0.0139501
    188.0469600              0.0684451
     52.9645000              0.2327143
     16.8975700              0.4701930
      5.7996353              0.3585209
SP   3   1.00
     15.5396160             -0.1107775              0.0708743
      3.5999336             -0.1480263              0.3397528
      1.0137618              1.1307670              0.7271586
SP   1   1.00
      0.2700058              1.0000000              1.0000000
D    1   1.00
      2.5840000              1.0000000
D    1   1.00
      0.6460000              1.0000000
F    1   1.00
      1.4000000              1.0000000
****
F     0
S    6   1.00
   7001.7130900              0.0018196169
   1051.3660900              0.0139160796
    239.2856900              0.0684053245
     67.3974453              0.233185760
     21.5199573              0.471267439
      7.40310130             0.356618546
SP   3   1.00
     20.8479528             -0.108506975            0.0716287243
      4.80830834            -0.146451658            0.3459121030
      1.34406986             1.128688580            0.7224699570
SP   1   1.00
      0.358151393            1.0000000              1.0000000
D    1   1.00
      3.5000000              1.0000000
D    1   1.00
      0.8750000              1.0000000
F    1   1.00
      1.8500000              1.0000000
****
Al     0
S    6   1.00
  13983.1000000              0.00194267
   2098.7500000              0.0148599
    477.7050000              0.0728494
    134.3600000              0.2468300
     42.8709000              0.4872580
     14.5189000              0.3234960
SP   6   1.00
    239.6680000             -0.00292619             0.00460285
     57.4419000             -0.0374080              0.0331990
     18.2859000             -0.1144870              0.1362820
      6.5991400              0.1156350              0.3304760
      2.4904900              0.6125950              0.4491460
      0.9445400              0.3937990              0.2657040
SP   3   1.00
      1.2779000             -0.2276060             -0.0175130
      0.3975900              0.00144583             0.2445330
      0.1600950              1.0927900              0.8049340
SP   1   1.00
      0.0556577              1.0000000              1.0000000
D    1   1.00
      0.6500000              1.0000000
D    1   1.00
      0.1625000              1.0000000
F    1   1.00
      0.2500000              1.0000000
****
Si     0
S    6   1.00
  16115.9000000              0.00195948
   2425.5800000              0.01492880
    553.8670000              0.07284780
    156.3400000              0.24613000
     50.0683000              0.48591400
     17.0178000              0.32500200
SP   6   1.00
    292.7180000             -0.00278094             0.00443826
     69.8731000             -0.03571460             0.03266790
     22.3363000             -0.11498500             0.13472100
      8.1503900              0.09356340             0.32867800
      3.1345800              0.60301700             0.44964000
      1.2254300              0.41895900             0.26137200
SP   3   1.00
      1.7273800             -0.24463000            -0.01779510
      0.5729220              0.00431572             0.25353900
      0.2221920              1.09818000             0.80066900
SP   1   1.00
      0.0778369              1.00000000             1.00000000
D    1   1.00
      0.9000000              1.0000000
D    1   1.00
      0.2250000              1.0000000
F    1   1.00
      0.3200000              1.0000000
****
P     0
S    6   1.00
  19413.3000000              0.0018516
   2909.4200000              0.0142062
    661.3640000              0.0699995
    185.7590000              0.2400790
     59.1943000              0.4847620
     20.0310000              0.3352000
SP   6   1.00
    339.4780000             -0.00278217             0.00456462
     81.0101000             -0.0360499              0.03369360
     25.8780000             -0.1166310              0.13975500
      9.4522100              0.0968328              0.33936200
      3.6656600              0.6144180              0.45092100
      1.4674600              0.4037980              0.23858600
SP   3   1.00
      2.1562300             -0.2529230             -0.01776530
      0.7489970              0.0328517              0.27405800
      0.2831450              1.0812500              0.78542100
SP   1   1.00
      0.0998317              1.0000000              1.00000000
D    1   1.00
      1.1000000              1.0000000
D    1   1.00
      0.2750000              1.0000000
F    1   1.00
      0.4500000              1.0000000
****
S     0
S    6   1.00
  21917.1000000              0.0018690
   3301.4900000              0.0142300
    754.1460000              0.0696960
    212.7110000              0.2384870
     67.9896000              0.4833070
     23.0515000              0.3380740
SP   6   1.00
    423.7350000             -0.0023767              0.0040610
    100.7100000             -0.0316930              0.0306810
     32.1599000             -0.1133170              0.1304520
     11.8079000              0.0560900              0.3272050
      4.6311000              0.5922550              0.4528510
      1.8702500              0.4550060              0.2560420
SP   3   1.00
      2.6158400             -0.2503740             -0.0145110
      0.9221670              0.0669570              0.3102630
      0.3412870              1.0545100              0.7544830
SP   1   1.00
      0.1171670              1.0000000              1.0000000
D    1   1.00
      1.3000000              1.0000000
D    1   1.00
      0.3250000              1.0000000
F    1   1.00
      0.5500000              1.0000000
****
Cl     0
S    6   1.00
  25180.1000000              0.0018330
   3780.3500000              0.0140340
    860.4740000              0.0690970
    242.1450000              0.2374520
     77.3349000              0.4830340
     26.2470000              0.3398560
SP   6   1.00
    491.7650000             -0.0022974              0.0039894
    116.9840000             -0.0307140              0.0303180
     37.4153000             -0.1125280              0.1298800
     13.7834000              0.0450160              0.3279510
      5.4521500              0.5893530              0.4535270
      2.2258800              0.4652060              0.2521540
SP   3   1.00
      3.1864900             -0.2518300             -0.0142990
      1.1442700              0.0615890              0.3235720
      0.4203770              1.0601800              0.7435070
SP   1   1.00
      0.1426570              1.0000000              1.0000000
D    1   1.00
      1.5000000              1.0000000
D    1   1.00
      0.3750000              1.0000000
F    1   1.00
      0.7000000              1.0000000
****
}


set {
reference rhf                          
freeze_core true
e_convergence 10                       
d_convergence 10                      
dft_spherical_points 1202
dft_radial_points 99
}

e = energy('b3lyp')

print_out('Grab this energy {0}'.format(e))
--------------------------------------------------------------------------

  Memory set to  13.039 GiB by Python driver.

Scratch directory: /tmp/

*** tstart() called on n081
*** at Wed Jan  5 16:09:47 2022

   => Loading Basis Set <=

    Name: ANONYMOUS1C5746C8
    Role: ORBITAL
    Keyword: BASIS
    atoms 1, 4   entry C          line    48 inputblock 6-31g_2dfp_ 
    atoms 2      entry CL         line   244 inputblock 6-31g_2dfp_ 
    atoms 3, 5-6 entry H          line    15 inputblock 6-31g_2dfp_ 


         ---------------------------------------------------------
                                   SCF
               by Justin Turney, Rob Parrish, Andy Simmonett
                          and Daniel G. A. Smith
                              RKS Reference
                        4 Threads,  13351 MiB Core
         ---------------------------------------------------------

  ==> Geometry <==

    Molecular point group: c1
    Full point group: C1

    Geometry (in Bohr), charge = 0, multiplicity = 1:

       Center              X                  Y                   Z               Mass       
    ------------   -----------------  -----------------  -----------------  -----------------
         C           -1.257416045510     0.962386684942    -0.001560200631    12.000000000000
         CL           1.828600120390    -0.157918064258     0.000044454269    34.968852682000
         H           -1.377897336410     2.996401662742     0.000195835969     1.007825032230
         C           -3.265922892210    -0.557471962258     0.001528387969    12.000000000000
         H           -3.075935071210    -2.595999367058    -0.000683726831     1.007825032230
         H           -5.135114743410     0.257685002642    -0.000675766331     1.007825032230

  Running in c1 symmetry.

  Rotational constants: A =      1.90367  B =      0.19939  C =      0.18048 [cm^-1]
  Rotational constants: A =  57070.44969  B =   5977.52610  C =   5410.80292 [MHz]
  Nuclear repulsion =   88.644424455232482

  Charge       = 0
  Multiplicity = 1
  Electrons    = 32
  Nalpha       = 16
  Nbeta        = 16

  ==> Algorithm <==

  SCF Algorithm Type is DF.
  DIIS enabled.
  MOM disabled.
  Fractional occupation disabled.
  Guess Type is SAD.
  Energy threshold   = 1.00e-10
  Density threshold  = 1.00e-10
  Integral threshold = 0.00e+00

  ==> Primary Basis <==

  Basis Set: ANONYMOUS1C5746C8
    Blend: 6-31G_2DFP_
    Number of shells: 38
    Number of basis function: 106
    Number of Cartesian functions: 121
    Spherical Harmonics?: true
    Max angular momentum: 3

  ==> DFT Potential <==

   => Composite Functional: B3LYP <= 

    B3LYP Hyb-GGA Exchange-Correlation Functional

    P. J. Stephens, F. J. Devlin, C. F. Chabalowski, and M. J. Frisch, J. Phys. Chem. 98, 11623 (1994)

    Deriv               =              1
    GGA                 =           TRUE
    Meta                =          FALSE

    Exchange Hybrid     =           TRUE
    MP2 Hybrid          =          FALSE

   => Exchange Functionals <=

    0.0800   Slater exchange
    0.7200         Becke 88

   => Exact (HF) Exchange <=

    0.2000               HF 

   => Correlation Functionals <=

    0.1900   Vosko, Wilk & Nusair (VWN5_RPA)
    0.8100   Lee, Yang & Parr

   => Molecular Quadrature <=

    Radial Scheme          =       TREUTLER
    Pruning Scheme         =           NONE
    Nuclear Scheme         =       TREUTLER

    BS radius alpha        =              1
    Pruning alpha          =              1
    Radial Points          =             99
    Spherical Points       =           1202
    Total Points           =         670224
    Total Blocks           =           4721
    Max Points             =            256
    Max Functions          =            105
    Weights Tolerance      =       1.00E-15

   => Loading Basis Set <=

    Name: (ANONYMOUS1C5746C8 AUX)
    Role: JKFIT
    Keyword: DF_BASIS_SCF
    atoms 1, 4   entry C          line   198 file /opt/psi/4/master/share/psi4/basis/def2-universal-jkfit.gbs 
    atoms 2      entry CL         line   986 file /opt/psi/4/master/share/psi4/basis/def2-universal-jkfit.gbs 
    atoms 3, 5-6 entry H          line    18 file /opt/psi/4/master/share/psi4/basis/def2-universal-jkfit.gbs 

  ==> Integral Setup <==

  DFHelper Memory: AOs need 0.031 GiB; user supplied 8.034 GiB. Using in-core AOs.

  ==> MemDFJK: Density-Fitted J/K Matrices <==

    J tasked:                   Yes
    K tasked:                   Yes
    wK tasked:                   No
    OpenMP threads:               4
    Memory [MiB]:              8227
    Algorithm:                 Core
    Schwarz Cutoff:           1E-12
    Mask sparsity (%):       0.8010
    Fitting Condition:        1E-10

   => Auxiliary Basis Set <=

  Basis Set: (ANONYMOUS1C5746C8 AUX)
    Blend: DEF2-UNIVERSAL-JKFIT
    Number of shells: 106
    Number of basis function: 332
    Number of Cartesian functions: 393
    Spherical Harmonics?: true
    Max angular momentum: 4

  Cached 100.0% of DFT collocation blocks in 1.744 [GiB].

  Minimum eigenvalue in the overlap matrix is 1.1649972831E-03.
  Reciprocal condition number of the overlap matrix is 2.3390148261E-04.
    Using symmetric orthogonalization.

  ==> Pre-Iterations <==

  SCF Guess: Superposition of Atomic Densities via on-the-fly atomic UHF (no occupation information).

   -------------------------
    Irrep   Nso     Nmo    
   -------------------------
     A        106     106 
   -------------------------
    Total     106     106
   -------------------------

  ==> Iterations <==

                           Total Energy        Delta E     RMS |[F,P]|

   @DF-RKS iter SAD:  -537.81660685359645   -5.37817e+02   0.00000e+00 
   @DF-RKS iter   1:  -538.02233865949620   -2.05732e-01   5.23163e-03 DIIS
   @DF-RKS iter   2:  -537.94349363629499    7.88450e-02   6.10006e-03 DIIS
   @DF-RKS iter   3:  -538.18757609142313   -2.44082e-01   8.64265e-04 DIIS
   @DF-RKS iter   4:  -538.19172277941686   -4.14669e-03   4.32927e-04 DIIS
   @DF-RKS iter   5:  -538.19269496276456   -9.72183e-04   1.79258e-04 DIIS
   @DF-RKS iter   6:  -538.19288148421151   -1.86521e-04   1.51363e-05 DIIS
   @DF-RKS iter   7:  -538.19288278054682   -1.29634e-06   4.10019e-06 DIIS
   @DF-RKS iter   8:  -538.19288287900122   -9.84544e-08   8.37913e-07 DIIS
   @DF-RKS iter   9:  -538.19288288323855   -4.23734e-09   1.35689e-07 DIIS
   @DF-RKS iter  10:  -538.19288288334167   -1.03114e-10   4.14885e-08 DIIS
   @DF-RKS iter  11:  -538.19288288335235   -1.06866e-11   4.75961e-09 DIIS
   @DF-RKS iter  12:  -538.19288288335213    2.27374e-13   7.46147e-10 DIIS
   @DF-RKS iter  13:  -538.19288288335292   -7.95808e-13   1.54264e-10 DIIS
   @DF-RKS iter  14:  -538.19288288335258    3.41061e-13   2.47177e-11 DIIS
  Energy and wave function converged.


  ==> Post-Iterations <==

    Orbital Energies [Eh]
    ---------------------

    Doubly Occupied:                                                      

       1A   -101.535412     2A    -10.245599     3A    -10.194104  
       4A     -9.463682     5A     -7.226297     6A     -7.218085  
       7A     -7.217506     8A     -0.870719     9A     -0.747998  
      10A     -0.584342    11A     -0.486706    12A     -0.447319  
      13A     -0.385352    14A     -0.365380    15A     -0.312059  
      16A     -0.260982  

    Virtual:                                                              

      17A     -0.004658    18A      0.040417    19A      0.101613  
      20A      0.124532    21A      0.200574    22A      0.261040  
      23A      0.331985    24A      0.372581    25A      0.392607  
      26A      0.401309    27A      0.401385    28A      0.433131  
      29A      0.435272    30A      0.451545    31A      0.465746  
      32A      0.502561    33A      0.508144    34A      0.575067  
      35A      0.609832    36A      0.610061    37A      0.633972  
      38A      0.660364    39A      0.667178    40A      0.689226  
      41A      0.763326    42A      0.840253    43A      0.904554  
      44A      0.911915    45A      0.970746    46A      0.989803  
      47A      1.020038    48A      1.058029    49A      1.090923  
      50A      1.167451    51A      1.193329    52A      1.234077  
      53A      1.314784    54A      1.337487    55A      1.487878  
      56A      1.545707    57A      1.637151    58A      1.686101  
      59A      1.814323    60A      2.056312    61A      2.071118  
      62A      2.088211    63A      2.098293    64A      2.112566  
      65A      2.158692    66A      2.211067    67A      2.249858  
      68A      2.355069    69A      2.379354    70A      2.458626  
      71A      2.513099    72A      2.631806    73A      2.701483  
      74A      2.715519    75A      2.827138    76A      2.883209  
      77A      2.973816    78A      3.019406    79A      3.097551  
      80A      3.102614    81A      3.135355    82A      3.136327  
      83A      3.158398    84A      3.193371    85A      3.277811  
      86A      3.352866    87A      3.368193    88A      3.377295  
      89A      3.492357    90A      3.620179    91A      3.626051  
      92A      3.730029    93A      3.955750    94A      4.006058  
      95A      4.048142    96A      4.101589    97A      4.194921  
      98A      4.252508    99A      4.382253   100A      4.415859  
     101A      4.455507   102A      4.574049   103A      4.809714  
     104A      5.094763   105A      5.270493   106A      5.478265  

    Final Occupation by Irrep:
              A 
    DOCC [    16 ]

  @DF-RKS Final Energy:  -538.19288288335258

   => Energetics <=

    Nuclear Repulsion Energy =             88.6444244552324818
    One-Electron Energy =                -915.4281422708154423
    Two-Electron Energy =                 321.0154049059686940
    DFT Exchange-Correlation Energy =     -32.4245699737383717
    Empirical Dispersion Energy =           0.0000000000000000
    VV10 Nonlocal Energy =                  0.0000000000000000
    Total Energy =                       -538.1928828833525813

Computation Completed


Properties will be evaluated at   0.000000,   0.000000,   0.000000 [a0]

Properties computed using the SCF density matrix

  Nuclear Dipole Moment: [e a0]
     X:    -5.6428      Y:     0.4030      Z:    -0.0006

  Electronic Dipole Moment: [e a0]
     X:     5.0857      Y:    -0.2350      Z:     0.0003

  Dipole Moment: [e a0]
     X:    -0.5571      Y:     0.1680      Z:    -0.0003     Total:     0.5818

  Dipole Moment: [D]
     X:    -1.4159      Y:     0.4270      Z:    -0.0008     Total:     1.4789


*** tstop() called on n081 at Wed Jan  5 16:09:55 2022
Module time:
	user time   =      32.33 seconds =       0.54 minutes
	system time =       0.54 seconds =       0.01 minutes
	total time  =          8 seconds =       0.13 minutes
Total time:
	user time   =      32.33 seconds =       0.54 minutes
	system time =       0.54 seconds =       0.01 minutes
	total time  =          8 seconds =       0.13 minutes
Grab this energy -538.1928828833526
    Psi4 stopped on: Wednesday, 05 January 2022 04:09PM
    Psi4 wall time for execution: 0:00:08.51

*** Psi4 exiting successfully. Buy a developer a beer!
