
    -----------------------------------------------------------------------
          Psi4: An Open-Source Ab Initio Electronic Structure Package
                               Psi4 1.4a2.dev629 

                         Git: Rev {master} 2938fc2 dirty


    D. G. A. Smith, L. A. Burns, A. C. Simmonett, R. M. Parrish,
    M. C. Schieber, R. Galvelis, P. Kraus, H. Kruse, R. Di Remigio,
    A. Alenaizan, A. M. James, S. Lehtola, J. P. Misiewicz, M. Scheurer,
    R. A. Shaw, J. B. Schriber, Y. Xie, Z. L. Glick, D. A. Sirianni,
    J. S. O'Brien, J. M. Waldrop, A. Kumar, E. G. Hohenstein,
    B. P. Pritchard, B. R. Brooks, H. F. Schaefer III, A. Yu. Sokolov,
    K. Patkowski, A. E. DePrince III, U. Bozkaya, R. A. King,
    F. A. Evangelista, J. M. Turney, T. D. Crawford, C. D. Sherrill,
    J. Chem. Phys. 152(18) 184108 (2020). https://doi.org/10.1063/5.0006002

                            Additional Code Authors
    E. T. Seidl, C. L. Janssen, E. F. Valeev, M. L. Leininger,
    J. F. Gonthier, R. M. Richard, H. R. McAlexander, M. Saitow, X. Wang,
    P. Verma, and M. H. Lechner

             Previous Authors, Complete List of Code Contributors,
                       and Citations for Specific Modules
    https://github.com/psi4/psi4/blob/master/codemeta.json
    https://github.com/psi4/psi4/graphs/contributors
    http://psicode.org/psi4manual/master/introduction.html#citing-psifour

    -----------------------------------------------------------------------


    Psi4 started on: Wednesday, 05 January 2022 04:12PM

    Process ID: 523
    Host:       n041
    PSIDATADIR: /opt/psi/4/master/share/psi4
    Memory:     500.0 MiB
    Threads:    4
    
  ==> Input File <==

--------------------------------------------------------------------------
import os
memory 14 GB 
 
molecule {
 C   -1.2543713108    0.9681139105   -0.0000000000
 Cl    1.8160874612   -0.1683260329    0.0000000000
 H   -1.3766288097    3.0015427451    0.0000000000
 C   -3.2601739122   -0.5541845030    0.0000000000
 H   -3.0656687157   -2.5912821153   -0.0000000000
 H   -5.1418351183    0.2518166008    0.0000000000
units bohr
}

basis {

assign 6-31g_2dfp_

[ 6-31g_2dfp_ ]

spherical

!----------------------------------------------------------------------
! Basis Set Exchange
! Version v0.8.13
! https://www.basissetexchange.org
!----------------------------------------------------------------------
!   Basis set: 6-31G(2df,p)
! Description: 6-31G(2df,p)
!        Role: orbital
!     Version: 0  (Data from the original Basis Set Exchange)
!----------------------------------------------------------------------


****
H     0
S    3   1.00
     18.7311370              0.03349460
      2.8253937              0.23472695
      0.6401217              0.81375733
S    1   1.00
      0.1612778              1.00000000
P    1   1.00
      1.5000000              1.0000000
P    1   1.00
      0.3750000              1.0000000
****
B     0
S    6   1.00
   2068.8823000              0.0018663
    310.6495700              0.0142515
     70.6830330              0.0695516
     19.8610800              0.2325729
      6.2993048              0.4670787
      2.1270270              0.3634314
SP   3   1.00
      4.7279710             -0.1303938              0.0745976
      1.1903377             -0.1307889              0.3078467
      0.3594117              1.1309444              0.7434568
SP   1   1.00
      0.1267512              1.0000000              1.0000000
D    1   1.00
      0.8020000              1.0000000
D    1   1.00
      0.2005000              1.0000000
F    1   1.00
      0.5000000              1.0000000
****
C     0
S    6   1.00
   3047.5249000              0.0018347
    457.3695100              0.0140373
    103.9486900              0.0688426
     29.2101550              0.2321844
      9.2866630              0.4679413
      3.1639270              0.3623120
SP   3   1.00
      7.8682724             -0.1193324              0.0689991
      1.8812885             -0.1608542              0.3164240
      0.5442493              1.1434564              0.7443083
SP   1   1.00
      0.1687144              1.0000000              1.0000000
D    1   1.00
      1.2520000              1.0000000
D    1   1.00
      0.3130000              1.0000000
F    1   1.00
      0.8000000              1.0000000
****
N     0
S    6   1.00
   4173.5110000              0.0018348
    627.4579000              0.0139950
    142.9021000              0.0685870
     40.2343300              0.2322410
     12.8202100              0.4690700
      4.3904370              0.3604550
SP   3   1.00
     11.6263580             -0.1149610              0.0675800
      2.7162800             -0.1691180              0.3239070
      0.7722180              1.1458520              0.7408950
SP   1   1.00
      0.2120313              1.0000000              1.0000000
D    1   1.00
      1.8260000              1.0000000
D    1   1.00
      0.4565000              1.0000000
F    1   1.00
      1.0000000              1.0000000
****
O     0
S    6   1.00
   5484.6717000              0.0018311
    825.2349500              0.0139501
    188.0469600              0.0684451
     52.9645000              0.2327143
     16.8975700              0.4701930
      5.7996353              0.3585209
SP   3   1.00
     15.5396160             -0.1107775              0.0708743
      3.5999336             -0.1480263              0.3397528
      1.0137618              1.1307670              0.7271586
SP   1   1.00
      0.2700058              1.0000000              1.0000000
D    1   1.00
      2.5840000              1.0000000
D    1   1.00
      0.6460000              1.0000000
F    1   1.00
      1.4000000              1.0000000
****
F     0
S    6   1.00
   7001.7130900              0.0018196169
   1051.3660900              0.0139160796
    239.2856900              0.0684053245
     67.3974453              0.233185760
     21.5199573              0.471267439
      7.40310130             0.356618546
SP   3   1.00
     20.8479528             -0.108506975            0.0716287243
      4.80830834            -0.146451658            0.3459121030
      1.34406986             1.128688580            0.7224699570
SP   1   1.00
      0.358151393            1.0000000              1.0000000
D    1   1.00
      3.5000000              1.0000000
D    1   1.00
      0.8750000              1.0000000
F    1   1.00
      1.8500000              1.0000000
****
Al     0
S    6   1.00
  13983.1000000              0.00194267
   2098.7500000              0.0148599
    477.7050000              0.0728494
    134.3600000              0.2468300
     42.8709000              0.4872580
     14.5189000              0.3234960
SP   6   1.00
    239.6680000             -0.00292619             0.00460285
     57.4419000             -0.0374080              0.0331990
     18.2859000             -0.1144870              0.1362820
      6.5991400              0.1156350              0.3304760
      2.4904900              0.6125950              0.4491460
      0.9445400              0.3937990              0.2657040
SP   3   1.00
      1.2779000             -0.2276060             -0.0175130
      0.3975900              0.00144583             0.2445330
      0.1600950              1.0927900              0.8049340
SP   1   1.00
      0.0556577              1.0000000              1.0000000
D    1   1.00
      0.6500000              1.0000000
D    1   1.00
      0.1625000              1.0000000
F    1   1.00
      0.2500000              1.0000000
****
Si     0
S    6   1.00
  16115.9000000              0.00195948
   2425.5800000              0.01492880
    553.8670000              0.07284780
    156.3400000              0.24613000
     50.0683000              0.48591400
     17.0178000              0.32500200
SP   6   1.00
    292.7180000             -0.00278094             0.00443826
     69.8731000             -0.03571460             0.03266790
     22.3363000             -0.11498500             0.13472100
      8.1503900              0.09356340             0.32867800
      3.1345800              0.60301700             0.44964000
      1.2254300              0.41895900             0.26137200
SP   3   1.00
      1.7273800             -0.24463000            -0.01779510
      0.5729220              0.00431572             0.25353900
      0.2221920              1.09818000             0.80066900
SP   1   1.00
      0.0778369              1.00000000             1.00000000
D    1   1.00
      0.9000000              1.0000000
D    1   1.00
      0.2250000              1.0000000
F    1   1.00
      0.3200000              1.0000000
****
P     0
S    6   1.00
  19413.3000000              0.0018516
   2909.4200000              0.0142062
    661.3640000              0.0699995
    185.7590000              0.2400790
     59.1943000              0.4847620
     20.0310000              0.3352000
SP   6   1.00
    339.4780000             -0.00278217             0.00456462
     81.0101000             -0.0360499              0.03369360
     25.8780000             -0.1166310              0.13975500
      9.4522100              0.0968328              0.33936200
      3.6656600              0.6144180              0.45092100
      1.4674600              0.4037980              0.23858600
SP   3   1.00
      2.1562300             -0.2529230             -0.01776530
      0.7489970              0.0328517              0.27405800
      0.2831450              1.0812500              0.78542100
SP   1   1.00
      0.0998317              1.0000000              1.00000000
D    1   1.00
      1.1000000              1.0000000
D    1   1.00
      0.2750000              1.0000000
F    1   1.00
      0.4500000              1.0000000
****
S     0
S    6   1.00
  21917.1000000              0.0018690
   3301.4900000              0.0142300
    754.1460000              0.0696960
    212.7110000              0.2384870
     67.9896000              0.4833070
     23.0515000              0.3380740
SP   6   1.00
    423.7350000             -0.0023767              0.0040610
    100.7100000             -0.0316930              0.0306810
     32.1599000             -0.1133170              0.1304520
     11.8079000              0.0560900              0.3272050
      4.6311000              0.5922550              0.4528510
      1.8702500              0.4550060              0.2560420
SP   3   1.00
      2.6158400             -0.2503740             -0.0145110
      0.9221670              0.0669570              0.3102630
      0.3412870              1.0545100              0.7544830
SP   1   1.00
      0.1171670              1.0000000              1.0000000
D    1   1.00
      1.3000000              1.0000000
D    1   1.00
      0.3250000              1.0000000
F    1   1.00
      0.5500000              1.0000000
****
Cl     0
S    6   1.00
  25180.1000000              0.0018330
   3780.3500000              0.0140340
    860.4740000              0.0690970
    242.1450000              0.2374520
     77.3349000              0.4830340
     26.2470000              0.3398560
SP   6   1.00
    491.7650000             -0.0022974              0.0039894
    116.9840000             -0.0307140              0.0303180
     37.4153000             -0.1125280              0.1298800
     13.7834000              0.0450160              0.3279510
      5.4521500              0.5893530              0.4535270
      2.2258800              0.4652060              0.2521540
SP   3   1.00
      3.1864900             -0.2518300             -0.0142990
      1.1442700              0.0615890              0.3235720
      0.4203770              1.0601800              0.7435070
SP   1   1.00
      0.1426570              1.0000000              1.0000000
D    1   1.00
      1.5000000              1.0000000
D    1   1.00
      0.3750000              1.0000000
F    1   1.00
      0.7000000              1.0000000
****
}


set {
reference rhf                          
freeze_core true
e_convergence 10                       
d_convergence 10                      
dft_spherical_points 1202
dft_radial_points 99
}

e = energy('b3lyp')

print_out('Grab this energy {0}'.format(e))
--------------------------------------------------------------------------

  Memory set to  13.039 GiB by Python driver.

Scratch directory: /tmp/

*** tstart() called on n041
*** at Wed Jan  5 16:12:49 2022

   => Loading Basis Set <=

    Name: ANONYMOUSDD91F503
    Role: ORBITAL
    Keyword: BASIS
    atoms 1, 4   entry C          line    48 inputblock 6-31g_2dfp_ 
    atoms 2      entry CL         line   244 inputblock 6-31g_2dfp_ 
    atoms 3, 5-6 entry H          line    15 inputblock 6-31g_2dfp_ 


         ---------------------------------------------------------
                                   SCF
               by Justin Turney, Rob Parrish, Andy Simmonett
                          and Daniel G. A. Smith
                              RKS Reference
                        4 Threads,  13351 MiB Core
         ---------------------------------------------------------

  ==> Geometry <==

    Molecular point group: cs
    Full point group: Cs

    Geometry (in Bohr), charge = 0, multiplicity = 1:

       Center              X                  Y                   Z               Mass       
    ------------   -----------------  -----------------  -----------------  -----------------
         C           -1.249093616125     0.972175015475     0.000000000000    12.000000000000
         CL           1.821365155875    -0.164264927925     0.000000000000    34.968852682000
         H           -1.371351115025     3.005603850075     0.000000000000     1.007825032230
         C           -3.254896217525    -0.550123398025     0.000000000000    12.000000000000
         H           -3.060391021025    -2.587221010325     0.000000000000     1.007825032230
         H           -5.136557423625     0.255877705775     0.000000000000     1.007825032230

  Running in cs symmetry.

  Rotational constants: A =      1.89135  B =      0.20081  C =      0.18153 [cm^-1]
  Rotational constants: A =  56701.12137  B =   6020.03743  C =   5442.22842 [MHz]
  Nuclear repulsion =   88.812987485131515

  Charge       = 0
  Multiplicity = 1
  Electrons    = 32
  Nalpha       = 16
  Nbeta        = 16

  ==> Algorithm <==

  SCF Algorithm Type is DF.
  DIIS enabled.
  MOM disabled.
  Fractional occupation disabled.
  Guess Type is SAD.
  Energy threshold   = 1.00e-10
  Density threshold  = 1.00e-10
  Integral threshold = 0.00e+00

  ==> Primary Basis <==

  Basis Set: ANONYMOUSDD91F503
    Blend: 6-31G_2DFP_
    Number of shells: 38
    Number of basis function: 106
    Number of Cartesian functions: 121
    Spherical Harmonics?: true
    Max angular momentum: 3

  ==> DFT Potential <==

   => Composite Functional: B3LYP <= 

    B3LYP Hyb-GGA Exchange-Correlation Functional

    P. J. Stephens, F. J. Devlin, C. F. Chabalowski, and M. J. Frisch, J. Phys. Chem. 98, 11623 (1994)

    Deriv               =              1
    GGA                 =           TRUE
    Meta                =          FALSE

    Exchange Hybrid     =           TRUE
    MP2 Hybrid          =          FALSE

   => Exchange Functionals <=

    0.0800   Slater exchange
    0.7200         Becke 88

   => Exact (HF) Exchange <=

    0.2000               HF 

   => Correlation Functionals <=

    0.1900   Vosko, Wilk & Nusair (VWN5_RPA)
    0.8100   Lee, Yang & Parr

   => Molecular Quadrature <=

    Radial Scheme          =       TREUTLER
    Pruning Scheme         =           NONE
    Nuclear Scheme         =       TREUTLER

    BS radius alpha        =              1
    Pruning alpha          =              1
    Radial Points          =             99
    Spherical Points       =           1202
    Total Points           =         670268
    Total Blocks           =           4720
    Max Points             =            256
    Max Functions          =            105
    Weights Tolerance      =       1.00E-15

   => Loading Basis Set <=

    Name: (ANONYMOUSDD91F503 AUX)
    Role: JKFIT
    Keyword: DF_BASIS_SCF
    atoms 1, 4   entry C          line   198 file /opt/psi/4/master/share/psi4/basis/def2-universal-jkfit.gbs 
    atoms 2      entry CL         line   986 file /opt/psi/4/master/share/psi4/basis/def2-universal-jkfit.gbs 
    atoms 3, 5-6 entry H          line    18 file /opt/psi/4/master/share/psi4/basis/def2-universal-jkfit.gbs 

  ==> Integral Setup <==

  DFHelper Memory: AOs need 0.031 GiB; user supplied 8.034 GiB. Using in-core AOs.

  ==> MemDFJK: Density-Fitted J/K Matrices <==

    J tasked:                   Yes
    K tasked:                   Yes
    wK tasked:                   No
    OpenMP threads:               4
    Memory [MiB]:              8226
    Algorithm:                 Core
    Schwarz Cutoff:           1E-12
    Mask sparsity (%):       0.8010
    Fitting Condition:        1E-10

   => Auxiliary Basis Set <=

  Basis Set: (ANONYMOUSDD91F503 AUX)
    Blend: DEF2-UNIVERSAL-JKFIT
    Number of shells: 106
    Number of basis function: 332
    Number of Cartesian functions: 393
    Spherical Harmonics?: true
    Max angular momentum: 4

  Cached 100.0% of DFT collocation blocks in 1.745 [GiB].

  Minimum eigenvalue in the overlap matrix is 1.1650023526E-03.
  Reciprocal condition number of the overlap matrix is 2.3387382208E-04.
    Using symmetric orthogonalization.

  ==> Pre-Iterations <==

  SCF Guess: Superposition of Atomic Densities via on-the-fly atomic UHF (no occupation information).

   -------------------------
    Irrep   Nso     Nmo    
   -------------------------
     A'        72      72 
     A"        34      34 
   -------------------------
    Total     106     106
   -------------------------

  ==> Iterations <==

                           Total Energy        Delta E     RMS |[F,P]|

   @DF-RKS iter SAD:  -537.82193145898304   -5.37822e+02   0.00000e+00 
   @DF-RKS iter   1:  -538.02184774212469   -1.99916e-01   6.97378e-03 DIIS
   @DF-RKS iter   2:  -537.94246642425742    7.93813e-02   8.13929e-03 DIIS
   @DF-RKS iter   3:  -538.18760313485848   -2.45137e-01   1.14367e-03 DIIS
   @DF-RKS iter   4:  -538.19167447871109   -4.07134e-03   5.78231e-04 DIIS
   @DF-RKS iter   5:  -538.19265720459669   -9.82726e-04   2.37472e-04 DIIS
   @DF-RKS iter   6:  -538.19284156794970   -1.84363e-04   2.01715e-05 DIIS
   @DF-RKS iter   7:  -538.19284286596553   -1.29802e-06   5.48353e-06 DIIS
   @DF-RKS iter   8:  -538.19284296520982   -9.92443e-08   1.11575e-06 DIIS
   @DF-RKS iter   9:  -538.19284296944966   -4.23984e-09   1.82981e-07 DIIS
   @DF-RKS iter  10:  -538.19284296955607   -1.06411e-10   5.55831e-08 DIIS
   @DF-RKS iter  11:  -538.19284296956653   -1.04592e-11   6.34150e-09 DIIS
   @DF-RKS iter  12:  -538.19284296956698   -4.54747e-13   9.85461e-10 DIIS
   @DF-RKS iter  13:  -538.19284296956675    2.27374e-13   2.04651e-10 DIIS
   @DF-RKS iter  14:  -538.19284296956664    1.13687e-13   3.28352e-11 DIIS
  Energy and wave function converged.


  ==> Post-Iterations <==

    Orbital Energies [Eh]
    ---------------------

    Doubly Occupied:                                                      

       1Ap  -101.535449     2Ap   -10.245127     3Ap   -10.193957  
       4Ap    -9.463783     5Ap    -7.226386     1App   -7.218183  
       6Ap    -7.217604     7Ap    -0.871964     8Ap    -0.747342  
       9Ap    -0.584273    10Ap    -0.486630    11Ap    -0.447316  
      12Ap    -0.385155     2App   -0.366051    13Ap    -0.312120  
       3App   -0.260521  

    Virtual:                                                              

       4App   -0.004453    14Ap     0.041758    15Ap     0.101563  
      16Ap     0.124644    17Ap     0.200625    18Ap     0.260374  
      19Ap     0.332354    20Ap     0.372863    21Ap     0.392849  
      22Ap     0.400664     5App    0.400897     6App    0.432691  
      23Ap     0.435367     7App    0.451823    24Ap     0.465749  
       8App    0.502531    25Ap     0.508803     9App    0.576428  
      26Ap     0.609442    10App    0.609471    27Ap     0.633671  
      28Ap     0.660732    29Ap     0.667386    11App    0.689730  
      30Ap     0.764569    31Ap     0.842200    32Ap     0.905381  
      12App    0.912120    33Ap     0.971437    13App    0.990425  
      14App    1.019950    34Ap     1.059450    35Ap     1.091267  
      36Ap     1.167110    15App    1.193272    37Ap     1.232908  
      38Ap     1.313729    16App    1.338109    39Ap     1.488297  
      40Ap     1.545344    41Ap     1.635445    42Ap     1.687334  
      43Ap     1.813239    44Ap     2.056572    17App    2.070888  
      18App    2.088528    45Ap     2.100456    19App    2.112325  
      46Ap     2.159262    47Ap     2.209255    48Ap     2.251515  
      20App    2.355218    49Ap     2.380802    50Ap     2.460781  
      21App    2.515246    51Ap     2.632038    22App    2.702358  
      52Ap     2.717618    23App    2.826984    53Ap     2.882213  
      24App    2.973642    54Ap     3.020317    25App    3.099254  
      55Ap     3.101344    26App    3.135978    56Ap     3.138082  
      57Ap     3.160053    27App    3.194423    58Ap     3.277346  
      59Ap     3.355206    60Ap     3.367768    28App    3.381699  
      61Ap     3.494123    29App    3.620416    62Ap     3.628701  
      30App    3.730237    63Ap     3.956901    64Ap     4.008800  
      31App    4.047483    32App    4.099636    65Ap     4.192811  
      33App    4.254040    34App    4.381179    66Ap     4.417175  
      67Ap     4.455460    68Ap     4.574934    69Ap     4.807442  
      70Ap     5.090408    71Ap     5.273096    72Ap     5.475281  

    Final Occupation by Irrep:
             Ap   App 
    DOCC [    13,    3 ]

  @DF-RKS Final Energy:  -538.19284296956664

   => Energetics <=

    Nuclear Repulsion Energy =             88.8129874851315151
    One-Electron Energy =                -915.7640285666919908
    Two-Electron Energy =                 321.1835932664294546
    DFT Exchange-Correlation Energy =     -32.4253951544356624
    Empirical Dispersion Energy =           0.0000000000000000
    VV10 Nonlocal Energy =                  0.0000000000000000
    Total Energy =                       -538.1928429695666409

Computation Completed


Properties will be evaluated at   0.000000,   0.000000,   0.000000 [a0]

Properties computed using the SCF density matrix

  Nuclear Dipole Moment: [e a0]
     X:    -5.6290      Y:     0.4141      Z:     0.0000

  Electronic Dipole Moment: [e a0]
     X:     5.0788      Y:    -0.2447      Z:     0.0000

  Dipole Moment: [e a0]
     X:    -0.5503      Y:     0.1694      Z:     0.0000     Total:     0.5757

  Dipole Moment: [D]
     X:    -1.3986      Y:     0.4305      Z:     0.0000     Total:     1.4634


*** tstop() called on n041 at Wed Jan  5 16:13:00 2022
Module time:
	user time   =      43.24 seconds =       0.72 minutes
	system time =       0.47 seconds =       0.01 minutes
	total time  =         11 seconds =       0.18 minutes
Total time:
	user time   =      43.24 seconds =       0.72 minutes
	system time =       0.47 seconds =       0.01 minutes
	total time  =         11 seconds =       0.18 minutes
Grab this energy -538.1928429695666
    Psi4 stopped on: Wednesday, 05 January 2022 04:13PM
    Psi4 wall time for execution: 0:00:11.35

*** Psi4 exiting successfully. Buy a developer a beer!
