[Molden Format]                                                                 
[ATOMS] AU                                                                      
C        1    6       -0.3029578685        0.0000000026        0.0000000000     
F        2    9        1.1587368997       -2.0057707383        0.0000000000     
F        3    9        1.1587369328        2.0057707193        0.0000000000     
O        4    8       -2.5253531410        0.0000000206       -0.0000000000     
[Molden Format]                                                                 
[GTO]                                                                           
  1 0
s  10 1.00
   8236.00000000000       5.310000000000000E-004                                
   1235.00000000000       4.108000000000000E-003                                
   280.800000000000       2.108700000000000E-002                                
   79.2700000000000       8.185300000000000E-002                                
   25.5900000000000       0.234817000000000                                     
   8.99700000000000       0.434401000000000                                     
   3.31900000000000       0.346129000000000                                     
  0.905900000000000       3.937800000000000E-002                                
  0.364300000000000      -8.983000000000000E-003                                
  0.128500000000000       2.385000000000000E-003                                
s  10 1.00
   8236.00000000000      -1.130000000000000E-004                                
   1235.00000000000      -8.780000000000000E-004                                
   280.800000000000      -4.540000000000000E-003                                
   79.2700000000000      -1.813300000000000E-002                                
   25.5900000000000      -5.576000000000000E-002                                
   8.99700000000000      -0.126895000000000                                     
   3.31900000000000      -0.170352000000000                                     
  0.905900000000000       0.140382000000000                                     
  0.364300000000000       0.598684000000000                                     
  0.128500000000000       0.395389000000000                                     
s  10 1.00
   8236.00000000000       0.000000000000000E+000                                
   1235.00000000000       0.000000000000000E+000                                
   280.800000000000       0.000000000000000E+000                                
   79.2700000000000       0.000000000000000E+000                                
   25.5900000000000       0.000000000000000E+000                                
   8.99700000000000       0.000000000000000E+000                                
   3.31900000000000       0.000000000000000E+000                                
  0.905900000000000        1.00000000000000                                     
  0.364300000000000       0.000000000000000E+000                                
  0.128500000000000       0.000000000000000E+000                                
s  10 1.00
   8236.00000000000       0.000000000000000E+000                                
   1235.00000000000       0.000000000000000E+000                                
   280.800000000000       0.000000000000000E+000                                
   79.2700000000000       0.000000000000000E+000                                
   25.5900000000000       0.000000000000000E+000                                
   8.99700000000000       0.000000000000000E+000                                
   3.31900000000000       0.000000000000000E+000                                
  0.905900000000000       0.000000000000000E+000                                
  0.364300000000000       0.000000000000000E+000                                
  0.128500000000000        1.00000000000000                                     
p   5 1.00
   18.7100000000000       1.403100000000000E-002                                
   4.13300000000000       8.686600000000000E-002                                
   1.20000000000000       0.290216000000000                                     
  0.382700000000000       0.501008000000000                                     
  0.120900000000000       0.343406000000000                                     
p   5 1.00
   18.7100000000000       0.000000000000000E+000                                
   4.13300000000000       0.000000000000000E+000                                
   1.20000000000000       0.000000000000000E+000                                
  0.382700000000000        1.00000000000000                                     
  0.120900000000000       0.000000000000000E+000                                
p   5 1.00
   18.7100000000000       0.000000000000000E+000                                
   4.13300000000000       0.000000000000000E+000                                
   1.20000000000000       0.000000000000000E+000                                
  0.382700000000000       0.000000000000000E+000                                
  0.120900000000000        1.00000000000000                                     
d   2 1.00
   1.09700000000000        1.00000000000000                                     
  0.318000000000000       0.000000000000000E+000                                
d   2 1.00
   1.09700000000000       0.000000000000000E+000                                
  0.318000000000000        1.00000000000000                                     
f   1 1.00
  0.761000000000000        1.00000000000000                                     
 
  2 0
s  10 1.00
   19500.0000000000       5.070000000000000E-004                                
   2923.00000000000       3.923000000000000E-003                                
   664.500000000000       2.020000000000000E-002                                
   187.500000000000       7.901000000000000E-002                                
   60.6200000000000       0.230439000000000                                     
   21.4200000000000       0.432872000000000                                     
   7.95000000000000       0.349964000000000                                     
   2.25700000000000       4.323300000000000E-002                                
  0.881500000000000      -7.892000000000000E-003                                
  0.304100000000000       2.384000000000000E-003                                
s  10 1.00
   19500.0000000000      -1.170000000000000E-004                                
   2923.00000000000      -9.120000000000001E-004                                
   664.500000000000      -4.717000000000000E-003                                
   187.500000000000      -1.908600000000000E-002                                
   60.6200000000000      -5.965500000000000E-002                                
   21.4200000000000      -0.140010000000000                                     
   7.95000000000000      -0.176782000000000                                     
   2.25700000000000       0.171625000000000                                     
  0.881500000000000       0.605043000000000                                     
  0.304100000000000       0.369512000000000                                     
s  10 1.00
   19500.0000000000       0.000000000000000E+000                                
   2923.00000000000       0.000000000000000E+000                                
   664.500000000000       0.000000000000000E+000                                
   187.500000000000       0.000000000000000E+000                                
   60.6200000000000       0.000000000000000E+000                                
   21.4200000000000       0.000000000000000E+000                                
   7.95000000000000       0.000000000000000E+000                                
   2.25700000000000        1.00000000000000                                     
  0.881500000000000       0.000000000000000E+000                                
  0.304100000000000       0.000000000000000E+000                                
s  10 1.00
   19500.0000000000       0.000000000000000E+000                                
   2923.00000000000       0.000000000000000E+000                                
   664.500000000000       0.000000000000000E+000                                
   187.500000000000       0.000000000000000E+000                                
   60.6200000000000       0.000000000000000E+000                                
   21.4200000000000       0.000000000000000E+000                                
   7.95000000000000       0.000000000000000E+000                                
   2.25700000000000       0.000000000000000E+000                                
  0.881500000000000       0.000000000000000E+000                                
  0.304100000000000        1.00000000000000                                     
p   5 1.00
   43.8800000000000       1.666500000000000E-002                                
   9.92600000000000       0.104472000000000                                     
   2.93000000000000       0.317260000000000                                     
  0.913200000000000       0.487343000000000                                     
  0.267200000000000       0.334604000000000                                     
p   5 1.00
   43.8800000000000       0.000000000000000E+000                                
   9.92600000000000       0.000000000000000E+000                                
   2.93000000000000       0.000000000000000E+000                                
  0.913200000000000        1.00000000000000                                     
  0.267200000000000       0.000000000000000E+000                                
p   5 1.00
   43.8800000000000       0.000000000000000E+000                                
   9.92600000000000       0.000000000000000E+000                                
   2.93000000000000       0.000000000000000E+000                                
  0.913200000000000       0.000000000000000E+000                                
  0.267200000000000        1.00000000000000                                     
d   2 1.00
   3.10700000000000        1.00000000000000                                     
  0.855000000000000       0.000000000000000E+000                                
d   2 1.00
   3.10700000000000       0.000000000000000E+000                                
  0.855000000000000        1.00000000000000                                     
f   1 1.00
   1.91700000000000        1.00000000000000                                     
 
  3 0
s  10 1.00
   19500.0000000000       5.070000000000000E-004                                
   2923.00000000000       3.923000000000000E-003                                
   664.500000000000       2.020000000000000E-002                                
   187.500000000000       7.901000000000000E-002                                
   60.6200000000000       0.230439000000000                                     
   21.4200000000000       0.432872000000000                                     
   7.95000000000000       0.349964000000000                                     
   2.25700000000000       4.323300000000000E-002                                
  0.881500000000000      -7.892000000000000E-003                                
  0.304100000000000       2.384000000000000E-003                                
s  10 1.00
   19500.0000000000      -1.170000000000000E-004                                
   2923.00000000000      -9.120000000000001E-004                                
   664.500000000000      -4.717000000000000E-003                                
   187.500000000000      -1.908600000000000E-002                                
   60.6200000000000      -5.965500000000000E-002                                
   21.4200000000000      -0.140010000000000                                     
   7.95000000000000      -0.176782000000000                                     
   2.25700000000000       0.171625000000000                                     
  0.881500000000000       0.605043000000000                                     
  0.304100000000000       0.369512000000000                                     
s  10 1.00
   19500.0000000000       0.000000000000000E+000                                
   2923.00000000000       0.000000000000000E+000                                
   664.500000000000       0.000000000000000E+000                                
   187.500000000000       0.000000000000000E+000                                
   60.6200000000000       0.000000000000000E+000                                
   21.4200000000000       0.000000000000000E+000                                
   7.95000000000000       0.000000000000000E+000                                
   2.25700000000000        1.00000000000000                                     
  0.881500000000000       0.000000000000000E+000                                
  0.304100000000000       0.000000000000000E+000                                
s  10 1.00
   19500.0000000000       0.000000000000000E+000                                
   2923.00000000000       0.000000000000000E+000                                
   664.500000000000       0.000000000000000E+000                                
   187.500000000000       0.000000000000000E+000                                
   60.6200000000000       0.000000000000000E+000                                
   21.4200000000000       0.000000000000000E+000                                
   7.95000000000000       0.000000000000000E+000                                
   2.25700000000000       0.000000000000000E+000                                
  0.881500000000000       0.000000000000000E+000                                
  0.304100000000000        1.00000000000000                                     
p   5 1.00
   43.8800000000000       1.666500000000000E-002                                
   9.92600000000000       0.104472000000000                                     
   2.93000000000000       0.317260000000000                                     
  0.913200000000000       0.487343000000000                                     
  0.267200000000000       0.334604000000000                                     
p   5 1.00
   43.8800000000000       0.000000000000000E+000                                
   9.92600000000000       0.000000000000000E+000                                
   2.93000000000000       0.000000000000000E+000                                
  0.913200000000000        1.00000000000000                                     
  0.267200000000000       0.000000000000000E+000                                
p   5 1.00
   43.8800000000000       0.000000000000000E+000                                
   9.92600000000000       0.000000000000000E+000                                
   2.93000000000000       0.000000000000000E+000                                
  0.913200000000000       0.000000000000000E+000                                
  0.267200000000000        1.00000000000000                                     
d   2 1.00
   3.10700000000000        1.00000000000000                                     
  0.855000000000000       0.000000000000000E+000                                
d   2 1.00
   3.10700000000000       0.000000000000000E+000                                
  0.855000000000000        1.00000000000000                                     
f   1 1.00
   1.91700000000000        1.00000000000000                                     
 
                                                                                
  4 0                                                                           
s  10 1.00                                                                      
   15330.0000000000       5.080000000000000E-004                                
   2299.00000000000       3.929000000000000E-003                                
   522.400000000000       2.024300000000000E-002                                
   147.300000000000       7.918100000000000E-002                                
   47.5500000000000       0.230687000000000                                     
   16.7600000000000       0.433118000000000                                     
   6.20700000000000       0.350260000000000                                     
   1.75200000000000       4.272800000000000E-002                                
  0.688200000000000      -8.154000000000000E-003                                
  0.238400000000000       2.381000000000000E-003                                
s  10 1.00                                                                      
   15330.0000000000      -1.150000000000000E-004                                
   2299.00000000000      -8.950000000000000E-004                                
   522.400000000000      -4.636000000000000E-003                                
   147.300000000000      -1.872400000000000E-002                                
   47.5500000000000      -5.846300000000000E-002                                
   16.7600000000000      -0.136463000000000                                     
   6.20700000000000      -0.175740000000000                                     
   1.75200000000000       0.160934000000000                                     
  0.688200000000000       0.603418000000000                                     
  0.238400000000000       0.378765000000000                                     
s  10 1.00                                                                      
   15330.0000000000       0.000000000000000E+000                                
   2299.00000000000       0.000000000000000E+000                                
   522.400000000000       0.000000000000000E+000                                
   147.300000000000       0.000000000000000E+000                                
   47.5500000000000       0.000000000000000E+000                                
   16.7600000000000       0.000000000000000E+000                                
   6.20700000000000       0.000000000000000E+000                                
   1.75200000000000        1.00000000000000                                     
  0.688200000000000       0.000000000000000E+000                                
  0.238400000000000       0.000000000000000E+000                                
s  10 1.00                                                                      
   15330.0000000000       0.000000000000000E+000                                
   2299.00000000000       0.000000000000000E+000                                
   522.400000000000       0.000000000000000E+000                                
   147.300000000000       0.000000000000000E+000                                
   47.5500000000000       0.000000000000000E+000                                
   16.7600000000000       0.000000000000000E+000                                
   6.20700000000000       0.000000000000000E+000                                
   1.75200000000000       0.000000000000000E+000                                
  0.688200000000000       0.000000000000000E+000                                
  0.238400000000000        1.00000000000000                                     
p   5 1.00                                                                      
   34.4600000000000       1.592800000000000E-002                                
   7.74900000000000       9.974000000000000E-002                                
   2.28000000000000       0.310492000000000                                     
  0.715600000000000       0.491026000000000                                     
  0.214000000000000       0.336337000000000                                     
p   5 1.00                                                                      
   34.4600000000000       0.000000000000000E+000                                
   7.74900000000000       0.000000000000000E+000                                
   2.28000000000000       0.000000000000000E+000                                
  0.715600000000000        1.00000000000000                                     
  0.214000000000000       0.000000000000000E+000                                
p   5 1.00                                                                      
   34.4600000000000       0.000000000000000E+000                                
   7.74900000000000       0.000000000000000E+000                                
   2.28000000000000       0.000000000000000E+000                                
  0.715600000000000       0.000000000000000E+000                                
  0.214000000000000        1.00000000000000                                     
d   2 1.00                                                                      
   2.31400000000000        1.00000000000000                                     
  0.645000000000000       0.000000000000000E+000                                
d   2 1.00                                                                      
   2.31400000000000       0.000000000000000E+000                                
  0.645000000000000        1.00000000000000                                     
f   1 1.00                                                                      
   1.42800000000000        1.00000000000000                                     
                                                                                
[MO]                                                                            
 Sym= A                                                                         
 Ene=  -26.3900412631600                                                        
 Spin= Alpha                                                                    
 Occup= 1.0                                                                     
  1       -0.0000000002                                                         
  2       -0.0000000008                                                         
  3        0.0000000003                                                         
  4        0.0000000009                                                         
  5        0.0000000001                                                         
  6        0.0002590814                                                         
  7        0.0000000000                                                         
  8       -0.0000000005                                                         
  9       -0.0014727770                                                         
 10        0.0000000000                                                         
 11        0.0000000002                                                         
 12        0.0007522102                                                         
 13        0.0000000000                                                         
 14       -0.0000000000                                                         
 15       -0.0000000001                                                         
 16        0.0000000001                                                         
 17       -0.0004123429                                                         
 18        0.0000000000                                                         
 19        0.0000000000                                                         
 20        0.0000000001                                                         
 21       -0.0000000001                                                         
 22        0.0000000000                                                         
 23       -0.0012015816                                                         
 24        0.0000000000                                                         
 25        0.0000000000                                                         
 26        0.0000000000                                                         
 27       -0.0000157441                                                         
 28        0.0000000000                                                         
 29       -0.0000000001                                                         
 30       -0.0001685131                                                         
 31        0.0000000000                                                         
 32        0.0000000001                                                         
 33        0.0002157454                                                         
 34        0.0000000000                                                         
 35        0.0000000000                                                         
 36        0.7065084980                                                         
 37       -0.0014349552                                                         
 38        0.0006527513                                                         
 39        0.0005642030                                                         
 40       -0.0014648359                                                         
 41        0.0020671793                                                         
 42        0.0000000000                                                         
 43        0.0013085404                                                         
 44       -0.0018196034                                                         
 45        0.0000000000                                                         
 46        0.0003007044                                                         
 47       -0.0006879864                                                         
 48        0.0000000000                                                         
 49       -0.0000023904                                                         
 50       -0.0000011560                                                         
 51        0.0000035464                                                         
 52        0.0000006646                                                         
 53        0.0000000000                                                         
 54        0.0000000000                                                         
 55        0.0000294054                                                         
 56       -0.0000839333                                                         
 57        0.0000545279                                                         
 58        0.0002681970                                                         
 59        0.0000000000                                                         
 60        0.0000000000                                                         
 61       -0.0000054232                                                         
 62       -0.0000019318                                                         
 63        0.0000000000                                                         
 64        0.0000258042                                                         
 65       -0.0000043122                                                         
 66        0.0000000000                                                         
 67       -0.0000095347                                                         
 68        0.0000101077                                                         
 69        0.0000000000                                                         
 70        0.0000000000                                                         
 71       -0.7065090468                                                         
 72        0.0014349562                                                         
 73       -0.0006527517                                                         
 74       -0.0005642037                                                         
 75        0.0014648371                                                         
 76        0.0020671808                                                         
 77        0.0000000000                                                         
 78       -0.0013085414                                                         
 79       -0.0018196047                                                         
 80        0.0000000000                                                         
 81       -0.0003007048                                                         
 82       -0.0006879867                                                         
 83        0.0000000000                                                         
 84        0.0000023904                                                         
 85        0.0000011560                                                         
 86       -0.0000035464                                                         
 87        0.0000006646                                                         
 88        0.0000000000                                                         
 89        0.0000000000                                                         
 90       -0.0000294054                                                         
 91        0.0000839334                                                         
 92       -0.0000545280                                                         
 93        0.0002681972                                                         
 94        0.0000000000                                                         
 95        0.0000000000                                                         
 96        0.0000054232                                                         
 97       -0.0000019318                                                         
 98        0.0000000000                                                         
 99       -0.0000258042                                                         
100       -0.0000043122                                                         