
 Primary working directories    : /tmp/1065196.117.gen4.q
 Secondary working directories  : /tmp/1065196.117.gen4.q
 Wavefunction directory         : /home/vulcan/jj04645/wfu/
 Main file repository           : /tmp/1065196.117.gen4.q/

 ARCHNAME  : Linux/x86_64
 FC        : /opt/intel/compilers_and_libraries_2016.1.150/linux/bin/intel64/ifort
 FCVERSION : 16.0.1
 BLASLIB   : -mkl
 id        : ccgc

 Nodes     nprocs
 n054         1
 ga_uses_ma=false, calling ma_init with nominal heap.
 GA-space will be limited to   8.0 MW (determined by -G option)

 Using customized tuning parameters: mindgm=10; mindgv=16; mindgc=4; mindgr=1; noblas=0; mincuda=1000; minvec=7
 default implementation of scratch files=df  

 ***,Optimization of t-butanol
 memory,1000,m
 gthresh,energy=1.0d-12,orbital=1.0d-10,oneint=1.0d-16,twoint=1.0d-16,optgrad=1.0d-6,compress=1.0d-13
 geomtyp=xyz
 
 bohr
 geometry = {
  C    0.0046994396   -0.0574811955    0.0000000106
  O   -0.0240978227    2.6552684505    0.0000000166
  C   -2.7619679222   -0.8324079870    0.0000000229
  C    1.3341919896   -1.0142764393   -2.3726048635
  C    1.3341920136   -1.0142764496    2.3726048671
  H    1.7136566055    3.1933981344    0.0000000090
  H   -2.9389096935   -2.8885807428    0.0000000112
  H   -3.7053067548   -0.0827057655   -1.6741167297
  H   -3.7053068741   -0.0827056543    1.6741166584
  H    1.3118778443   -3.0777304586   -2.4545466206
  H    3.3079456332   -0.3967726766   -2.3950732346
  H    0.3994072679   -0.2711724205   -4.0544181390
  H    1.3118778691   -3.0777304692    2.4545466155
  H    3.3079456574   -0.3967726869    2.3950732209
  H    0.3994073088   -0.2711724380    4.0544181553
 }
 
 basis=VDZ
 {rhf;maxit,200}
 {ccsd(t);maxit,200}

 Variables initialized (661), CPU time= 0.00 sec
 Commands  initialized (458), CPU time= 0.00 sec, 486 directives.
 Default parameters read. Elapsed time= 0.05 sec

 Checking input...
 Passed
1


                                         ***  PROGRAM SYSTEM MOLPRO  ***
                         Copyright, University College Cardiff Consultants Limited, 2008

                                    Version 2010.1 linked May 16 2016 07:17:05


 **********************************************************************************************************************************
 LABEL *   Optimization of t-butanol                                                     
 Linux-4.4.3/n054(x86_64) 64 bit mpp version                                             DATE: 20-May-24          TIME: 10:33:05  
 **********************************************************************************************************************************

 SHA1:             9e8077add272b0f3cad6f7df79ec5211205f459d
 **********************************************************************************************************************************

 THRESHOLDS:

 ZERO    =  1.00D-12  ONEINT  =  1.00D-16  TWOINT  =  1.00D-16  PREFAC  =  1.00D-14  LOCALI  =  1.00D-09  EORDER  =  1.00D-04
 ENERGY  =  1.00D-12  ETEST   =  0.00D+00  EDENS   =  0.00D+00  THRDEDEF=  1.00D-06  GRADIENT=  1.00D-02  STEP    =  1.00D-03
 ORBITAL =  1.00D-10  CIVEC   =  1.00D-05  COEFF   =  1.00D-04  PRINTCI =  5.00D-02  PUNCHCI =  9.90D+01  OPTGRAD =  1.00D-06
 OPTENERG=  1.00D-06  OPTSTEP =  3.00D-04  THRGRAD =  1.00D-10  COMPRESS=  1.00D-13  VARMIN  =  1.00D-07  VARMAX  =  1.00D-03
 THRDOUB =  0.00D+00  THRDIV  =  1.00D-05  THRRED  =  1.00D-07  THRPSP  =  1.00D+00  THRDC   =  1.00D-10  THRCS   =  1.00D-10
 THRNRM  =  1.00D-08  THREQ   =  0.00D+00  THRDE   =  1.00D+00  THRREF  =  1.00D-05  SPARFAC =  1.00D+00  THRDLP  =  1.00D-07
 THRDIA  =  1.00D-10  THRDLS  =  1.00D-07  THRGPS  =  0.00D+00  THRKEX  =  0.00D+00  THRDIS  =  2.00D-01  THRVAR  =  1.00D-10
 THRLOC  =  1.00D-06  THRGAP  =  1.00D-06  THRLOCT = -1.00D+00  THRGAPT = -1.00D+00  THRORB  =  1.00D-06  THRMLTP =  0.00D+00
 THRCPQCI=  1.00D-10  KEXTA   =  0.00D+00  THRCOARS=  0.00D+00  SYMTOL  =  1.00D-06  GRADTOL =  1.00D-06  THROVL  =  1.00D-08
 THRORTH =  1.00D-08  GRID    =  1.00D-06  GRIDMAX =  1.00D-03  DTMAX   =  0.00D+00

 SETTING GEOMTYP        =    XYZ
 ZUNIT=BOHR
 

 Variable memory set to 1000000000 words,  buffer space   230000 words

 SETTING BASIS          =    VDZ


 Recomputing integrals since basis changed


 Using spherical harmonics

 Library entry C      S cc-pVDZ              selected for orbital group  1
 Library entry C      P cc-pVDZ              selected for orbital group  1
 Library entry C      D cc-pVDZ              selected for orbital group  1
 Library entry O      S cc-pVDZ              selected for orbital group  2
 Library entry O      P cc-pVDZ              selected for orbital group  2
 Library entry O      D cc-pVDZ              selected for orbital group  2
 Library entry H      S cc-pVDZ              selected for orbital group  4
 Library entry H      P cc-pVDZ              selected for orbital group  4

1PROGRAM * SEWARD (Integral evaluation for generally contracted gaussian basis sets)     Author: Roland Lindh, 1990

 Geometry written to block  1 of record 700


 Point group  Cs  



 ATOMIC COORDINATES

 NR  ATOM    CHARGE       X              Y              Z

   1  C       6.00    0.004699440   -0.057481195    0.000000000
   2  O       8.00   -0.024097823    2.655268450    0.000000000
   3  C       6.00   -2.761967922   -0.832407987    0.000000000
   4  C       6.00    1.334192002   -1.014276444   -2.372604865
   5  C       6.00    1.334192002   -1.014276444    2.372604865
   6  H       1.00    1.713656605    3.193398134    0.000000000
   7  H       1.00   -2.938909693   -2.888580743    0.000000000
   8  H       1.00   -3.705306814   -0.082705710   -1.674116694
   9  H       1.00   -3.705306814   -0.082705710    1.674116694
  10  H       1.00    1.311877857   -3.077730464   -2.454546618
  11  H       1.00    1.311877857   -3.077730464    2.454546618
  12  H       1.00    3.307945645   -0.396772682   -2.395073228
  13  H       1.00    3.307945645   -0.396772682    2.395073228
  14  H       1.00    0.399407288   -0.271172429   -4.054418147
  15  H       1.00    0.399407288   -0.271172429    4.054418147

 Bond lengths in Bohr (Angstrom)

 1-2  2.712902491  1-3  2.873144588  1-4  2.883099282  1-5  2.883099282  2-6  1.819168494
     ( 1.435606168)     ( 1.520402634)     ( 1.525670431)     ( 1.525670431)     ( 0.962662506)

  3- 7  2.063771982   3- 8  2.062670229   3- 9  2.062670229   4-10  2.065200925   4-12  2.068216422
       ( 1.092101097)       ( 1.091518075)       ( 1.091518075)       ( 1.092857262)       ( 1.094452994)

  4-14  2.062649256   5-11  2.065200925   5-13  2.068216422   5-15  2.062649256
       ( 1.091506976)       ( 1.092857262)       ( 1.094452994)       ( 1.091506976)

 Bond angles

  1-2-6  106.59796078   1-3-7  110.56564880   1-3-8  110.02067633   1-3-9  110.02067633

  1- 4-10  111.05427714   1- 4-12  110.48289438   1- 4-14  110.02622476   1- 5-11  111.05427714

  1- 5-13  110.48289438   1- 5-15  110.02622476   2- 1- 3  105.03903602   2- 1- 4  109.67835923

  2-1-5  109.67835923   3-1-4  110.76498583   3-1-5  110.76498583   4-1-5  110.75948302

  7- 3- 8  108.83917005   7- 3- 9  108.83917005   8- 3- 9  108.51019427  10- 4-12  107.95054633

 10- 4-14  108.82712171  11- 5-13  107.95054633  11- 5-15  108.82712171  12- 4-14  108.42572371

 13- 5-15  108.42572371

 NUCLEAR CHARGE:                   42
 NUMBER OF PRIMITIVE AOS:         205
 NUMBER OF SYMMETRY AOS:          200
 NUMBER OF CONTRACTIONS:          120   (  72A'  +  48A"  )
 NUMBER OF CORE ORBITALS:           5   (   4A'  +   1A"  )
 NUMBER OF VALENCE ORBITALS:       30   (  19A'  +  11A"  )


 NUCLEAR REPULSION ENERGY  199.89215067


 Eigenvalues of metric

         1 0.259E-02 0.486E-02 0.831E-02 0.169E-01 0.191E-01 0.250E-01 0.299E-01 0.337E-01
         2 0.485E-02 0.190E-01 0.239E-01 0.303E-01 0.343E-01 0.351E-01 0.374E-01 0.443E-01


 Contracted 2-electron integrals neglected if value below      1.0D-16
 AO integral compression algorithm  1   Integral accuracy      1.0D-16

     119.538 MB (compressed) written to integral file ( 98.3%)

     Node minimum: 119.538 MB, node maximum: 119.538 MB


 NUMBER OF SORTED TWO-ELECTRON INTEGRALS:   13418166.     BUFFER LENGTH:  32768
 NUMBER OF SEGMENTS:   1  SEGMENT LENGTH:   13418166      RECORD LENGTH: 524288

 Memory used in sort:      13.98 MW

 SORT1 READ    15222547. AND WROTE    13374807. INTEGRALS IN     39 RECORDS. CPU TIME:     0.16 SEC, REAL TIME:     0.25 SEC
 SORT2 READ    13374807. AND WROTE    13418166. INTEGRALS IN    456 RECORDS. CPU TIME:     0.16 SEC, REAL TIME:     0.21 SEC

 FILE SIZES:   FILE 1:   109.5 MBYTE,  FILE 4:   163.6 MBYTE,   TOTAL:    273.1 MBYTE

 OPERATOR DM      FOR CENTER  0  COORDINATES:    0.000000    0.000000    0.000000


 **********************************************************************************************************************************
 DATASETS  * FILE   NREC   LENGTH (MB)   RECORD NAMES
              1      19      109.57       500      610      700      900      950      970     1000      129      960     1100   
                                          VAR    BASINP    GEOM    SYMINP    ZMAT    AOBASIS   BASIS     P2S    ABASIS      S 
                                         1400     1410     1200     1210     1080     1600     1650     1300     1700   
                                           T        V       H0       H01     AOSYM     SMH    MOLCAS    ERIS     OPER   

 PROGRAMS   *        TOTAL       INT
 CPU TIMES  *         2.36      2.32
 REAL TIME  *         2.74 SEC
 DISK USED  *       393.59 MB      
 GA USED    *         0.00 MB       (max)       0.00 MB       (current)
 **********************************************************************************************************************************

1PROGRAM * RHF-SCF (CLOSED SHELL)       Authors: W. Meyer, H.-J. Werner


 NUMBER OF ELECTRONS:      21+   21-
 CONVERGENCE THRESHOLDS:    1.00E-10 (Density)    1.00E-13 (Energy)
 MAX. NUMBER OF ITERATIONS:      200
 INTERPOLATION TYPE:            DIIS
 INTERPOLATION STEPS:              2 (START)      1 (STEP)
 LEVEL SHIFTS:                  0.00 (CLOSED)  0.00 (OPEN) 



 Orbital guess generated from atomic densities. Full valence occupancy:   23  12

 Molecular orbital dump at record        2100.2

 Initial alpha occupancy:  14   7
 Initial beta  occupancy:  14   7
 Wave function symmetry:    1

 ITERATION    DDIFF          GRAD             ENERGY        2-EL.EN.            DIPOLE MOMENTS         DIIS
    1      0.000D+00      0.000D+00      -232.08658202    561.612725    0.89208   -0.63566    0.00000    0
    2      0.000D+00      0.852D-02      -232.16296397    556.341819    0.40829   -0.33027    0.00000    1
    3      0.169D-01      0.366D-02      -232.17365887    558.361595    0.53095   -0.43710    0.00000    2
    4      0.538D-02      0.101D-02      -232.17496018    558.128855    0.50372   -0.40056    0.00000    3
    5      0.195D-02      0.265D-03      -232.17503738    558.066024    0.50308   -0.41281    0.00000    4
    6      0.425D-03      0.496D-04      -232.17504044    558.086508    0.50247   -0.41114    0.00000    5
    7      0.124D-03      0.926D-05      -232.17504059    558.080692    0.50241   -0.41130    0.00000    6
    8      0.257D-04      0.299D-05      -232.17504060    558.082297    0.50242   -0.41140    0.00000    7
    9      0.561D-05      0.943D-06      -232.17504060    558.081963    0.50239   -0.41141    0.00000    7
   10      0.216D-05      0.262D-06      -232.17504060    558.082015    0.50239   -0.41143    0.00000    7
   11      0.697D-06      0.539D-07      -232.17504060    558.082003    0.50239   -0.41143    0.00000    7
   12      0.170D-06      0.166D-07      -232.17504060    558.082012    0.50239   -0.41143    0.00000    7
   13      0.336D-07      0.720D-08      -232.17504060    558.082009    0.50239   -0.41143    0.00000    7
   14      0.141D-07      0.235D-08      -232.17504060    558.082009    0.50239   -0.41143    0.00000    8
   15      0.420D-08      0.617D-09      -232.17504060    558.082009    0.50239   -0.41143    0.00000    8
   16      0.148D-08      0.153D-09      -232.17504060    558.082009    0.50239   -0.41143    0.00000    7
   17      0.355D-09      0.420D-10      -232.17504060    558.082009    0.50239   -0.41143    0.00000    7
   18      0.110D-09      0.118D-10      -232.17504060    558.082009    0.50239   -0.41143    0.00000    8
   19      0.241D-10      0.319D-11      -232.17504060    558.082009    0.50239   -0.41143    0.00000    8
   20      0.877D-11      0.104D-11      -232.17504060    558.082009    0.50239   -0.41143    0.00000    7
   21      0.251D-11      0.347D-12      -232.17504060    558.082009    0.50239   -0.41143    0.00000    7
   22      0.828D-12      0.124D-12      -232.17504060    558.082009    0.50239   -0.41143    0.00000    7
   23      0.345D-12      0.457D-13      -232.17504060    558.082009    0.50239   -0.41143    0.00000    8
   24      0.187D-12      0.346D-13      -232.17504060    558.082009    0.50239   -0.41143    0.00000    8
   25      0.110D-12      0.235D-13      -232.17504060    558.082009    0.50239   -0.41143    0.00000    9
   26      0.991D-13      0.260D-13      -232.17504060    558.082009    0.50239   -0.41143    0.00000    9
   27      0.598D-13      0.190D-13      -232.17504060    558.082009    0.50239   -0.41143    0.00000    0

 Final occupancy:  14   7

 !RHF STATE 1.1 Energy               -232.175040602688
 Nuclear energy                       199.89215067
 One-electron energy                 -711.10819581
 Two-electron energy                  279.04100453
 Virial quotient                       -1.00080444
 !RHF STATE 1.1 Dipole moment           0.50239132    -0.41143014     0.00000000
 Dipole moment /Debye                   1.27686773    -1.04568261     0.00000000

 Orbital energies:

         1.1          2.1          3.1          4.1          5.1          6.1          7.1          8.1          9.1         10.1
    -20.545293   -11.281241   -11.220316   -11.214127    -1.352726    -1.065510    -0.938579    -0.766248    -0.666046    -0.621532

        11.1         12.1         13.1         14.1         15.1         16.1
     -0.573866    -0.527636    -0.505424    -0.458881     0.166777     0.220173

         1.2          2.2          3.2          4.2          5.2          6.2          7.2          8.2          9.2
    -11.220335    -0.940435    -0.618813    -0.554196    -0.514345    -0.500172    -0.427371     0.241173     0.255092


 **********************************************************************************************************************************
 DATASETS  * FILE   NREC   LENGTH (MB)   RECORD NAMES
              1      19      109.57       500      610      700      900      950      970     1000      129      960     1100   
                                          VAR    BASINP    GEOM    SYMINP    ZMAT    AOBASIS   BASIS     P2S    ABASIS      S 
                                         1400     1410     1200     1210     1080     1600     1650     1300     1700   
                                           T        V       H0       H01     AOSYM     SMH    MOLCAS    ERIS     OPER   

              2       3        0.66       700     1000     2100   
                                         GEOM     BASIS     RHF  

 PROGRAMS   *        TOTAL       RHF       INT
 CPU TIMES  *         4.15      1.79      2.32
 REAL TIME  *         4.87 SEC
 DISK USED  *       393.59 MB      
 GA USED    *         0.00 MB       (max)       0.00 MB       (current)
 **********************************************************************************************************************************


1PROGRAM * CCSD (Closed-shell coupled cluster)     Authors: C. Hampel, H.-J. Werner, 1991, M. Deegan, P.J. Knowles, 1992


 Convergence thresholds:  THRVAR = 1.00D-08  THRDEN = 1.00D-12

 CCSD(T)     terms to be evaluated (factor= 1.000)


 Number of core orbitals:           5 (   4   1 )
 Number of closed-shell orbitals:  16 (  10   6 )
 Number of external orbitals:      99 (  58  41 )

 Molecular orbitals read from record     2100.2  Type=RHF/CANONICAL (state 1.1)

 Number of N-1 electron functions:              16
 Number of N-2 electron functions:             136
 Number of singly external CSFs:               826
 Number of doubly external CSFs:            629212
 Total number of CSFs:                      630039

 Length of J-op  integral file:               0.00 MB
 Length of K-op  integral file:               0.55 MB
 Length of 3-ext integral record:             0.00 MB

 Memory could be reduced to 10.83 Mwords without degradation in triples

 Integral transformation finished. Total CPU:   0.49 sec, npass=  1  Memory used:   6.19 MW

 Reference energy:                   -232.17504060

 MP2 singlet pair energy:              -0.49753632
 MP2 triplet pair energy:              -0.27487924
 MP2 correlation energy:               -0.77241556
 MP2 total energy:                   -232.94745616

 SCS-MP2 correlation energy:           -0.76807956   (PS=  1.200000  PT=  0.333333)
 SCS-MP2 total energy:               -232.94312016

 ITER.      SQ.NORM     CORR.ENERGY   TOTAL ENERGY   ENERGY CHANGE        DEN1      VAR(S)    VAR(P)  DIIS     TIME
   1      1.27346648    -0.82955772  -233.00459832    -0.05714216    -0.03601052  0.25D-02  0.44D-02  1  1     1.46
   2      1.29462613    -0.83387056  -233.00891117    -0.00431284    -0.02219154  0.67D-04  0.42D-03  2  2     2.48
   3      1.29914745    -0.83407969  -233.00912030    -0.00020913    -0.00277505  0.25D-04  0.24D-04  3  3     3.49
   4      1.30041375    -0.83408535  -233.00912595    -0.00000565    -0.00060256  0.64D-06  0.21D-05  4  4     4.50
   5      1.30064477    -0.83409428  -233.00913488    -0.00000893    -0.00008087  0.19D-06  0.15D-06  5  5     5.52
   6      1.30068585    -0.83409102  -233.00913162     0.00000326    -0.00001317  0.25D-07  0.14D-07  6  6     6.54
   7      1.30069278    -0.83408980  -233.00913040     0.00000122    -0.00000072  0.38D-08  0.17D-08  6  1     7.56
   8      1.30069634    -0.83408981  -233.00913042    -0.00000001    -0.00000042  0.67D-09  0.21D-09  6  2     8.56
   9      1.30069692    -0.83408975  -233.00913035     0.00000006     0.00000056  0.62D-10  0.39D-10  6  4     9.58
  10      1.30069750    -0.83408974  -233.00913034     0.00000001    -0.00000001  0.50D-11  0.37D-11  6  3    10.60
  11      1.30069748    -0.83408974  -233.00913034    -0.00000000     0.00000005  0.77D-12  0.46D-12  6  5    11.62
  12      1.30069742    -0.83408974  -233.00913034    -0.00000000     0.00000003  0.14D-12  0.65D-13  6  6    12.63
  13      1.30069736    -0.83408974  -233.00913035    -0.00000000     0.00000003  0.11D-13  0.10D-13  6  2    13.65
  14      1.30069735    -0.83408974  -233.00913035    -0.00000000     0.00000001  0.17D-14  0.60D-15  6  1    14.65
  15      1.30069735    -0.83408974  -233.00913035    -0.00000000     0.00000000  0.22D-15  0.13D-15  6  4    15.67
  16      1.30069735    -0.83408974  -233.00913035     0.00000000    -0.00000000  0.34D-16  0.20D-16  6  3    16.69
  17      1.30069735    -0.83408974  -233.00913035     0.00000000    -0.00000000  0.33D-17  0.25D-17  6  5    17.70
  18      1.30069735    -0.83408974  -233.00913035    -0.00000000    -0.00000000  0.86D-18  0.34D-18  6  6    18.72
  19      1.30069735    -0.83408974  -233.00913035    -0.00000000    -0.00000000  0.21D-18  0.62D-19  6  2    19.73
  20      1.30069735    -0.83408974  -233.00913035    -0.00000000     0.00000000  0.31D-19  0.12D-19  6  1    20.74
  21      1.30069735    -0.83408974  -233.00913035    -0.00000000     0.00000000  0.39D-20  0.20D-20  6  4    21.76
  22      1.30069735    -0.83408974  -233.00913035     0.00000000    -0.00000000  0.67D-21  0.31D-21  6  3    22.78

 Norm of t1 vector:      0.06609529      S-energy:    -0.00000000      T1 diagnostic:  0.00826191
                                                                       D1 diagnostic:  0.02161218


 Total CPU time for triples:     17.53 sec


 RESULTS
 =======

  Reference energy                   -232.175040602688
  CCSD singlet pair energy             -0.580889583725
  CCSD triplet pair energy             -0.253200159707
  CCSD correlation energy              -0.834089743432

  Triples (T) contribution             -0.023250892258
  Total correlation energy             -0.857340635691

  CCSD total energy                  -233.009130346120
  CCSD[T] energy                     -233.033078216503
  CCSD-T energy                      -233.032045687126
 !CCSD(T) total energy               -233.032381238378

 Timing summary (sec):

 STEP                 CPU(USER)    SYS     CPU(TOT)    WALL
 Transformation          0.51      0.07      0.58      0.58
 CCSD iterations        22.27      0.92     23.19     23.23
 Triples                17.53      0.56     18.09     18.10

 Program statistics:

 Available memory in ccsd:               999998876
 Min. memory needed in ccsd:               1681381
 Max. memory used in ccsd:                 2239583
 Max. memory used in cckext:               2333618 (22 integral passes)



 **********************************************************************************************************************************
 DATASETS  * FILE   NREC   LENGTH (MB)   RECORD NAMES
              1      20      153.14       500      610      700      900      950      970     1000      129      960     1100   
                                          VAR    BASINP    GEOM    SYMINP    ZMAT    AOBASIS   BASIS     P2S    ABASIS      S 
                                         1400     1410     1200     1210     1080     1600     1650     1300     1700     1380   
                                           T        V       H0       H01     AOSYM     SMH    MOLCAS    ERIS     OPER     JKOP   

              2       3        0.66       700     1000     2100   
                                         GEOM     BASIS     RHF  

 PROGRAMS   *        TOTAL   CCSD(T)       RHF       INT
 CPU TIMES  *        44.47     40.32      1.79      2.32
 REAL TIME  *        46.81 SEC
 DISK USED  *       393.59 MB      
 GA USED    *         0.00 MB       (max)       0.00 MB       (current)
 **********************************************************************************************************************************

        CCSD(T)         RHF-SCF 
   -233.03238124   -232.17504060
 **********************************************************************************************************************************
 Variable memory released
