
 Primary working directories    : /tmp/943419.489.gen4.q
 Secondary working directories  : /tmp/943419.489.gen4.q
 Wavefunction directory         : /home/vulcan/mel64643/wfu/
 Main file repository           : /tmp/943419.489.gen4.q/

 ARCHNAME  : Linux/x86_64
 FC        : /opt/intel/compilers_and_libraries_2016.1.150/linux/bin/intel64/ifort
 FCVERSION : 16.0.1
 BLASLIB   : -mkl
 id        : ccgc

 Nodes     nprocs
 n062         1
 ga_uses_ma=false, calling ma_init with nominal heap.
 GA-space will be limited to   8.0 MW (determined by -G option)

 Using customized tuning parameters: mindgm=10; mindgv=16; mindgc=4; mindgr=1; noblas=0; mincuda=1000; minvec=7
 default implementation of scratch files=df  

 ***,Optimization of nh3_nitrosmethane
 memory,1000,m
 gthresh,energy=1.0d-12,orbital=1.0d-10,oneint=1.0d-16,twoint=1.0d-16,optgrad=1.0d-6,compress=1.0d-13
 geomtyp=xyz
 
 bohr
 geometry = {
  N   -5.2248227197   -0.1837361607   -0.0041599681
  H   -6.2970531679    0.2427582420   -1.5367918753
  H   -3.7606823807    1.0595337708    0.0072573201
  H   -6.3013784023    0.2196731878    1.5316866819
  H   -0.9267640144   -2.3986492868    0.0075988344
  H    1.8825586097   -3.4392661289   -1.6607864384
  H    1.8923604740   -3.4343583459    1.6624493730
  C    1.1337239160   -2.4694547772    0.0016260040
  N    2.2647606300    0.0981062219   -0.0055017776
  O    0.7014155453    1.7824502860   -0.0033781541
 }
 
 basis=aug-cc-pvtz
 {rhf;maxit,200}
 {mp2}

 Variables initialized (661), CPU time= 0.01 sec
 Commands  initialized (458), CPU time= 0.00 sec, 486 directives.
 Default parameters read. Elapsed time= 0.04 sec

 Checking input...
 Passed
1


                                         ***  PROGRAM SYSTEM MOLPRO  ***
                         Copyright, University College Cardiff Consultants Limited, 2008

                                    Version 2010.1 linked May 16 2016 07:17:05


 **********************************************************************************************************************************
 LABEL *   Optimization of nh3_nitrosmethane                                             
 Linux-4.4.3/n062(x86_64) 64 bit mpp version                                             DATE: 26-Oct-23          TIME: 03:29:18  
 **********************************************************************************************************************************

 SHA1:             9e8077add272b0f3cad6f7df79ec5211205f459d
 **********************************************************************************************************************************

 THRESHOLDS:

 ZERO    =  1.00D-12  ONEINT  =  1.00D-16  TWOINT  =  1.00D-16  PREFAC  =  1.00D-14  LOCALI  =  1.00D-09  EORDER  =  1.00D-04
 ENERGY  =  1.00D-12  ETEST   =  0.00D+00  EDENS   =  0.00D+00  THRDEDEF=  1.00D-06  GRADIENT=  1.00D-02  STEP    =  1.00D-03
 ORBITAL =  1.00D-10  CIVEC   =  1.00D-05  COEFF   =  1.00D-04  PRINTCI =  5.00D-02  PUNCHCI =  9.90D+01  OPTGRAD =  1.00D-06
 OPTENERG=  1.00D-06  OPTSTEP =  3.00D-04  THRGRAD =  1.00D-10  COMPRESS=  1.00D-13  VARMIN  =  1.00D-07  VARMAX  =  1.00D-03
 THRDOUB =  0.00D+00  THRDIV  =  1.00D-05  THRRED  =  1.00D-07  THRPSP  =  1.00D+00  THRDC   =  1.00D-10  THRCS   =  1.00D-10
 THRNRM  =  1.00D-08  THREQ   =  0.00D+00  THRDE   =  1.00D+00  THRREF  =  1.00D-05  SPARFAC =  1.00D+00  THRDLP  =  1.00D-07
 THRDIA  =  1.00D-10  THRDLS  =  1.00D-07  THRGPS  =  0.00D+00  THRKEX  =  0.00D+00  THRDIS  =  2.00D-01  THRVAR  =  1.00D-10
 THRLOC  =  1.00D-06  THRGAP  =  1.00D-06  THRLOCT = -1.00D+00  THRGAPT = -1.00D+00  THRORB  =  1.00D-06  THRMLTP =  0.00D+00
 THRCPQCI=  1.00D-10  KEXTA   =  0.00D+00  THRCOARS=  0.00D+00  SYMTOL  =  1.00D-06  GRADTOL =  1.00D-06  THROVL  =  1.00D-08
 THRORTH =  1.00D-08  GRID    =  1.00D-06  GRIDMAX =  1.00D-03  DTMAX   =  0.00D+00

 SETTING GEOMTYP        =    XYZ
 ZUNIT=BOHR
 

 Variable memory set to 1000000000 words,  buffer space   230000 words

 SETTING BASIS          =    AUG-CC-PVTZ


 Recomputing integrals since basis changed


 Using spherical harmonics

 Library entry N      S aug-cc-pVTZ          selected for orbital group  1
 Library entry N      P aug-cc-pVTZ          selected for orbital group  1
 Library entry N      D aug-cc-pVTZ          selected for orbital group  1
 Library entry N      F aug-cc-pVTZ          selected for orbital group  1
 Library entry H      S aug-cc-pVTZ          selected for orbital group  2
 Library entry H      P aug-cc-pVTZ          selected for orbital group  2
 Library entry H      D aug-cc-pVTZ          selected for orbital group  2
 Library entry C      S aug-cc-pVTZ          selected for orbital group  3
 Library entry C      P aug-cc-pVTZ          selected for orbital group  3
 Library entry C      D aug-cc-pVTZ          selected for orbital group  3
 Library entry C      F aug-cc-pVTZ          selected for orbital group  3
 Library entry O      S aug-cc-pVTZ          selected for orbital group  5
 Library entry O      P aug-cc-pVTZ          selected for orbital group  5
 Library entry O      D aug-cc-pVTZ          selected for orbital group  5
 Library entry O      F aug-cc-pVTZ          selected for orbital group  5

1PROGRAM * SEWARD (Integral evaluation for generally contracted gaussian basis sets)     Author: Roland Lindh, 1990

 Geometry written to block  1 of record 700


 Point group  C1  



 ATOMIC COORDINATES

 NR  ATOM    CHARGE       X              Y              Z

   1  N       7.00   -5.224822720   -0.183736161   -0.004159968
   2  H       1.00   -6.297053168    0.242758242   -1.536791875
   3  H       1.00   -3.760682381    1.059533771    0.007257320
   4  H       1.00   -6.301378402    0.219673188    1.531686682
   5  H       1.00   -0.926764014   -2.398649287    0.007598834
   6  H       1.00    1.882558610   -3.439266129   -1.660786438
   7  H       1.00    1.892360474   -3.434358346    1.662449373
   8  C       6.00    1.133723916   -2.469454777    0.001626004
   9  N       7.00    2.264760630    0.098106222   -0.005501778
  10  O       8.00    0.701415545    1.782450286   -0.003378154

 Bond lengths in Bohr (Angstrom)

 1-2  1.918472354  1-3  1.920822066  1-4  1.918472354  5-8  2.061712784  6-8  2.065164058
     ( 1.015211846)     ( 1.016455260)     ( 1.015211846)     ( 1.091011417)     ( 1.092837752)

  7- 8  2.065164058   8- 9  2.805648648   9-10  2.298057286
       ( 1.092837752)       ( 1.484685321)       ( 1.216079541)

 Bond angles

  2-1-3  106.67095379   2-1-4  106.21107417   3-1-4  106.67095379   5-8-6  112.38617564

  5-8-7  112.38617565   5-8-9  111.80615632   6-8-7  107.14290661   6-8-9  106.35175774

  7- 8- 9  106.35175772   8- 9-10  113.35946297

 NUCLEAR CHARGE:                   34
 NUMBER OF PRIMITIVE AOS:         430
 NUMBER OF SYMMETRY AOS:          382
 NUMBER OF CONTRACTIONS:          322   ( 322A   )
 NUMBER OF CORE ORBITALS:           4   (   4A   )
 NUMBER OF VALENCE ORBITALS:       22   (  22A   )


 NUCLEAR REPULSION ENERGY  117.38796514


 Eigenvalues of metric

         1 0.333E-04 0.531E-04 0.819E-04 0.106E-03 0.118E-03 0.170E-03 0.233E-03 0.237E-03


 Contracted 2-electron integrals neglected if value below      1.0D-16
 AO integral compression algorithm  1   Integral accuracy      1.0D-16

     9751.757 MB (compressed) written to integral file ( 80.9%)

     Node minimum: 9751.757 MB, node maximum: 9751.757 MB


 NUMBER OF SORTED TWO-ELECTRON INTEGRALS: 1352182006.     BUFFER LENGTH:  32768
 NUMBER OF SEGMENTS:  43  SEGMENT LENGTH:   31998710      RECORD LENGTH: 524288

 Memory used in sort:      32.56 MW

 SORT1 READ  1506454996. AND WROTE  1291699650. INTEGRALS IN   3718 RECORDS. CPU TIME:    17.99 SEC, REAL TIME:    86.17 SEC
 SORT2 READ  1291699650. AND WROTE  1352182006. INTEGRALS IN  37200 RECORDS. CPU TIME:     9.51 SEC, REAL TIME:    54.08 SEC

 FILE SIZES:   FILE 1:  8855.2 MBYTE,  FILE 4: 15594.5 MBYTE,   TOTAL:  24449.7 MBYTE

 OPERATOR DM      FOR CENTER  0  COORDINATES:    0.000000    0.000000    0.000000


 **********************************************************************************************************************************
 DATASETS  * FILE   NREC   LENGTH (MB)   RECORD NAMES
              1      19     8856.49       500      610      700      900      950      970     1000      129      960     1100   
                                          VAR    BASINP    GEOM    SYMINP    ZMAT    AOBASIS   BASIS     P2S    ABASIS      S 
                                         1400     1410     1200     1210     1080     1600     1650     1300     1700   
                                           T        V       H0       H01     AOSYM     SMH    MOLCAS    ERIS     OPER   

 PROGRAMS   *        TOTAL       INT
 CPU TIMES  *        67.59     67.54
 REAL TIME  *       189.74 SEC
 DISK USED  *        34.20 GB      
 GA USED    *         0.00 MB       (max)       0.00 MB       (current)
 **********************************************************************************************************************************

1PROGRAM * RHF-SCF (CLOSED SHELL)       Authors: W. Meyer, H.-J. Werner


 NUMBER OF ELECTRONS:      17+   17-    SPACE SYMMETRY=1    SPIN SYMMETRY: Singlet 
 CONVERGENCE THRESHOLDS:    1.00E-10 (Density)    1.00E-13 (Energy)
 MAX. NUMBER OF ITERATIONS:      200
 INTERPOLATION TYPE:            DIIS
 INTERPOLATION STEPS:              2 (START)      1 (STEP)
 LEVEL SHIFTS:                  0.00 (CLOSED)  0.00 (OPEN) 



 Orbital guess generated from atomic densities. Full valence occupancy:   26

 Molecular orbital dump at record        2100.2

 ITERATION    DDIFF          GRAD             ENERGY        2-EL.EN.            DIPOLE MOMENTS         DIIS
    1      0.000D+00      0.000D+00      -225.01765164    393.497886    0.07385   -0.61088    0.00704    0
    2      0.000D+00      0.279D-02      -225.07804558    392.918444   -0.57572   -0.38255    0.00563    1
    3      0.488D-02      0.202D-02      -225.11359324    393.525374   -0.23152   -0.56249    0.00548    2
    4      0.205D-02      0.389D-03      -225.11585510    393.382855   -0.30749   -0.46465    0.00575    3
    5      0.554D-03      0.159D-03      -225.11629586    393.391830   -0.30441   -0.49298    0.00572    4
    6      0.234D-03      0.389D-04      -225.11634387    393.417103   -0.31032   -0.48923    0.00575    5
    7      0.832D-04      0.148D-04      -225.11635082    393.401405   -0.31217   -0.48922    0.00575    6
    8      0.341D-04      0.605D-05      -225.11635194    393.408130   -0.31323   -0.48908    0.00576    7
    9      0.133D-04      0.267D-05      -225.11635220    393.406643   -0.31355   -0.48876    0.00576    8
   10      0.734D-05      0.821D-06      -225.11635223    393.406345   -0.31367   -0.48855    0.00576    8
   11      0.241D-05      0.270D-06      -225.11635223    393.406466   -0.31368   -0.48845    0.00576    8
   12      0.748D-06      0.871D-07      -225.11635223    393.406416   -0.31369   -0.48842    0.00576    8
   13      0.293D-06      0.298D-07      -225.11635223    393.406410   -0.31369   -0.48842    0.00576    8
   14      0.734D-07      0.144D-07      -225.11635223    393.406413   -0.31369   -0.48842    0.00576    9
   15      0.319D-07      0.195D-08      -225.11635223    393.406413   -0.31369   -0.48842    0.00576    8
   16      0.500D-08      0.110D-08      -225.11635223    393.406413   -0.31369   -0.48842    0.00576    7
   17      0.344D-08      0.794D-09      -225.11635223    393.406413   -0.31369   -0.48842    0.00576    7
   18      0.402D-08      0.505D-09      -225.11635223    393.406413   -0.31369   -0.48842    0.00576    8
   19      0.458D-08      0.162D-09      -225.11635223    393.406413   -0.31369   -0.48842    0.00576    9
   20      0.140D-08      0.360D-10      -225.11635223    393.406413   -0.31369   -0.48842    0.00576    9
   21      0.187D-09      0.117D-10      -225.11635223    393.406413   -0.31369   -0.48842    0.00576    9
   22      0.337D-10      0.433D-11      -225.11635223    393.406413   -0.31369   -0.48842    0.00576    9
   23      0.177D-10      0.146D-11      -225.11635223    393.406413   -0.31369   -0.48842    0.00576    9
   24      0.148D-10      0.551D-12      -225.11635223    393.406413   -0.31369   -0.48842    0.00576    9
   25      0.934D-11      0.281D-12      -225.11635223    393.406413   -0.31369   -0.48842    0.00576    9
   26      0.129D-10      0.169D-12      -225.11635223    393.406413   -0.31369   -0.48842    0.00576    9
   27      0.682D-11      0.175D-12      -225.11635223    393.406413   -0.31369   -0.48842    0.00576    9
   28      0.499D-11      0.203D-12      -225.11635223    393.406413   -0.31369   -0.48842    0.00576    9
   29      0.331D-11      0.142D-12      -225.11635223    393.406413   -0.31369   -0.48842    0.00576    9
   30      0.272D-11      0.202D-12      -225.11635223    393.406413   -0.31369   -0.48842    0.00576    0

 Final occupancy:  17

 !RHF STATE 1.1 Energy               -225.116352231279
 Nuclear energy                       117.38796514
 One-electron energy                 -539.20752370
 Two-electron energy                  196.70320633
 Virial quotient                       -1.00202975
 !RHF STATE 1.1 Dipole moment          -0.31368841    -0.48841720     0.00575744
 Dipole moment /Debye                  -0.79726419    -1.24135137     0.01463300

 Orbital energies:

         1.1          2.1          3.1          4.1          5.1          6.1          7.1          8.1          9.1         10.1
    -20.630954   -15.706148   -15.538944   -11.264037    -1.509489    -1.138836    -1.073901    -0.860830    -0.691548    -0.674999

        11.1         12.1         13.1         14.1         15.1         16.1         17.1         18.1         19.1
     -0.635513    -0.624337    -0.623863    -0.557082    -0.534130    -0.429282    -0.406662     0.028798     0.038518


 **********************************************************************************************************************************
 DATASETS  * FILE   NREC   LENGTH (MB)   RECORD NAMES
              1      19     8856.49       500      610      700      900      950      970     1000      129      960     1100   
                                          VAR    BASINP    GEOM    SYMINP    ZMAT    AOBASIS   BASIS     P2S    ABASIS      S 
                                         1400     1410     1200     1210     1080     1600     1650     1300     1700   
                                           T        V       H0       H01     AOSYM     SMH    MOLCAS    ERIS     OPER   

              2       3        2.54       700     1000     2100   
                                         GEOM     BASIS     RHF  

 PROGRAMS   *        TOTAL       RHF       INT
 CPU TIMES  *       435.15    367.56     67.54
 REAL TIME  *       584.30 SEC
 DISK USED  *        34.20 GB      
 GA USED    *         0.00 MB       (max)       0.00 MB       (current)
 **********************************************************************************************************************************


1PROGRAM * MP2 (Closed-shell)     Authors: C. Hampel, H.-J. Werner, 1991, M. Deegan, P.J. Knowles, 1992


 Convergence thresholds:  THRVAR = 1.00D-08  THRDEN = 1.00D-12

 Number of core orbitals:           4 (   4 )
 Number of closed-shell orbitals:  13 (  13 )
 Number of external orbitals:     305 ( 305 )

 Molecular orbitals read from record     2100.2  Type=RHF/CANONICAL (state 1.1)

 Number of N-1 electron functions:              13
 Number of N-2 electron functions:              91
 Number of singly external CSFs:              3965
 Number of doubly external CSFs:           7862595
 Total number of CSFs:                     7866561

 Length of J-op  integral file:               0.00 MB
 Length of K-op  integral file:               7.17 MB

 Integral transformation finished. Total CPU:  25.43 sec, npass=  1  Memory used:  17.90 MW

 Memory needed for MP2:                      0.51 MW

 SCS-MP2 correlation energy:           -0.859108357775   (PS=  1.200000  PT=  0.333333)
 SCS-MP2 total energy:               -225.975460589054


  Reference energy                   -225.116352231279
  MP2 singlet pair energy              -0.557128148948
  MP2 triplet pair energy              -0.306248430596
  MP2 correlation energy               -0.863376579544

 !MP2 total energy                   -225.979728810823


 **********************************************************************************************************************************
 DATASETS  * FILE   NREC   LENGTH (MB)   RECORD NAMES
              1      20     8971.73       500      610      700      900      950      970     1000      129      960     1100   
                                          VAR    BASINP    GEOM    SYMINP    ZMAT    AOBASIS   BASIS     P2S    ABASIS      S 
                                         1400     1410     1200     1210     1080     1600     1650     1300     1700     1380   
                                           T        V       H0       H01     AOSYM     SMH    MOLCAS    ERIS     OPER     JKOP   

              2       3        2.54       700     1000     2100   
                                         GEOM     BASIS     RHF  

 PROGRAMS   *        TOTAL       MP2       RHF       INT
 CPU TIMES  *       461.37     26.22    367.56     67.54
 REAL TIME  *       611.76 SEC
 DISK USED  *        34.20 GB      
 GA USED    *         0.00 MB       (max)       0.00 MB       (current)
 **********************************************************************************************************************************

        MP2             RHF-SCF 
   -225.97972881   -225.11635223
 **********************************************************************************************************************************
 Variable memory released
