
 Primary working directories    : /tmp/862637.156.gen4.q
 Secondary working directories  : /tmp/862637.156.gen4.q
 Wavefunction directory         : /home/vulcan/lo21740/wfu/
 Main file repository           : /tmp/862637.156.gen4.q/

 ARCHNAME  : Linux/x86_64
 FC        : /opt/intel/compilers_and_libraries_2016.1.150/linux/bin/intel64/ifort
 FCVERSION : 16.0.1
 BLASLIB   : -mkl
 id        : ccgc

 Nodes     nprocs
 n067         1
 ga_uses_ma=false, calling ma_init with nominal heap.
 GA-space will be limited to   8.0 MW (determined by -G option)

 Using customized tuning parameters: mindgm=10; mindgv=16; mindgc=4; mindgr=1; noblas=0; mincuda=1000; minvec=7
 default implementation of scratch files=df  

 ***,Optimization of formic acid
 memory,1000,m
 gthresh,energy=1.0d-12,orbital=1.0d-10,oneint=1.0d-16,twoint=1.0d-16,optgrad=1.0d-6,compress=1.0d-13
 geomtyp=xyz
 
 bohr
 geometry = {
  C   -3.5001963517   -0.8324415388    0.0019756003
  O   -3.0917247222    1.6206518731   -0.0003173398
  O   -1.8877812367   -2.4805234184   -0.0006178114
  H   -5.5199512597   -1.2731672066   -0.0005949803
  H   -1.2427141923    1.9568105399   -0.0004477263
  C    3.5010188887    0.8291017683    0.0019772995
  O    3.0969601400   -1.6247091080   -0.0003217516
  O    1.8829964446    2.4819238707   -0.0006161623
  H    5.5197413660    1.2735887444   -0.0005955262
  H    1.2416509233   -1.9512355245   -0.0004416019
 }
 
 basis=AVDZ, H=VDZ
 {rhf;maxit,200}
 {ccsd(t);maxit,200}

 Variables initialized (661), CPU time= 0.01 sec
 Commands  initialized (458), CPU time= 0.00 sec, 486 directives.
 Default parameters read. Elapsed time= 0.05 sec

 Checking input...
 Passed
1


                                         ***  PROGRAM SYSTEM MOLPRO  ***
                         Copyright, University College Cardiff Consultants Limited, 2008

                                    Version 2010.1 linked May 16 2016 07:17:05


 **********************************************************************************************************************************
 LABEL *   Optimization of formic acid                                                   
 Linux-4.4.3/n067(x86_64) 64 bit mpp version                                             DATE: 27-Apr-23          TIME: 15:11:35  
 **********************************************************************************************************************************

 SHA1:             9e8077add272b0f3cad6f7df79ec5211205f459d
 **********************************************************************************************************************************

 THRESHOLDS:

 ZERO    =  1.00D-12  ONEINT  =  1.00D-16  TWOINT  =  1.00D-16  PREFAC  =  1.00D-14  LOCALI  =  1.00D-09  EORDER  =  1.00D-04
 ENERGY  =  1.00D-12  ETEST   =  0.00D+00  EDENS   =  0.00D+00  THRDEDEF=  1.00D-06  GRADIENT=  1.00D-02  STEP    =  1.00D-03
 ORBITAL =  1.00D-10  CIVEC   =  1.00D-05  COEFF   =  1.00D-04  PRINTCI =  5.00D-02  PUNCHCI =  9.90D+01  OPTGRAD =  1.00D-06
 OPTENERG=  1.00D-06  OPTSTEP =  3.00D-04  THRGRAD =  1.00D-10  COMPRESS=  1.00D-13  VARMIN  =  1.00D-07  VARMAX  =  1.00D-03
 THRDOUB =  0.00D+00  THRDIV  =  1.00D-05  THRRED  =  1.00D-07  THRPSP  =  1.00D+00  THRDC   =  1.00D-10  THRCS   =  1.00D-10
 THRNRM  =  1.00D-08  THREQ   =  0.00D+00  THRDE   =  1.00D+00  THRREF  =  1.00D-05  SPARFAC =  1.00D+00  THRDLP  =  1.00D-07
 THRDIA  =  1.00D-10  THRDLS  =  1.00D-07  THRGPS  =  0.00D+00  THRKEX  =  0.00D+00  THRDIS  =  2.00D-01  THRVAR  =  1.00D-10
 THRLOC  =  1.00D-06  THRGAP  =  1.00D-06  THRLOCT = -1.00D+00  THRGAPT = -1.00D+00  THRORB  =  1.00D-06  THRMLTP =  0.00D+00
 THRCPQCI=  1.00D-10  KEXTA   =  0.00D+00  THRCOARS=  0.00D+00  SYMTOL  =  1.00D-06  GRADTOL =  1.00D-06  THROVL  =  1.00D-08
 THRORTH =  1.00D-08  GRID    =  1.00D-06  GRIDMAX =  1.00D-03  DTMAX   =  0.00D+00

 SETTING GEOMTYP        =    XYZ
 ZUNIT=BOHR
 

 Variable memory set to 1000000000 words,  buffer space   230000 words

 SETTING BASIS          =    AVDZ,H=VDZ


 Recomputing integrals since basis changed


 Using spherical harmonics

 Library entry C      S aug-cc-pVDZ          selected for orbital group  1
 Library entry C      P aug-cc-pVDZ          selected for orbital group  1
 Library entry C      D aug-cc-pVDZ          selected for orbital group  1
 Library entry O      S aug-cc-pVDZ          selected for orbital group  2
 Library entry O      P aug-cc-pVDZ          selected for orbital group  2
 Library entry O      D aug-cc-pVDZ          selected for orbital group  2
 Library entry H      S cc-pVDZ              selected for orbital group  3
 Library entry H      P cc-pVDZ              selected for orbital group  3

1PROGRAM * SEWARD (Integral evaluation for generally contracted gaussian basis sets)     Author: Roland Lindh, 1990

 Geometry written to block  1 of record 700


 Point group  C1  



 ATOMIC COORDINATES

 NR  ATOM    CHARGE       X              Y              Z

   1  C       6.00   -3.500196352   -0.832441539    0.001975600
   2  O       8.00   -3.091724722    1.620651873   -0.000317340
   3  O       8.00   -1.887781237   -2.480523418   -0.000617811
   4  H       1.00   -5.519951260   -1.273167207   -0.000594980
   5  H       1.00   -1.242714192    1.956810540   -0.000447726
   6  C       6.00    3.501018889    0.829101768    0.001977299
   7  O       8.00    3.096960140   -1.624709108   -0.000321752
   8  O       8.00    1.882996445    2.481923871   -0.000616162
   9  H       1.00    5.519741366    1.273588744   -0.000595526
  10  H       1.00    1.241650923   -1.951235524   -0.000441602

 Bond lengths in Bohr (Angstrom)

 1-2  2.486869843  1-3  2.305658932  1-4  2.067282180  2-5  1.879319719  6-7  2.486856766
     ( 1.315994843)     ( 1.220102159)     ( 1.093958614)     ( 0.994493164)     ( 1.315987923)

  6- 8  2.312968711   6- 9  2.067079034   7-10  1.883823719
       ( 1.223970327)       ( 1.093851114)       ( 0.996876578)

 Bond angles

  1-2-5  109.75783807   2-1-3  126.17287055   2-1-4  111.76307060   3-1-4  122.06369778

  6- 7-10  109.33232817   7- 6- 8  126.25870505   7- 6- 9  111.76802671   8- 6- 9  121.97290727

 NUCLEAR CHARGE:                   48
 NUMBER OF PRIMITIVE AOS:         250
 NUMBER OF SYMMETRY AOS:          238
 NUMBER OF CONTRACTIONS:          158   ( 158A   )
 NUMBER OF CORE ORBITALS:           6   (   6A   )
 NUMBER OF VALENCE ORBITALS:       28   (  28A   )


 NUCLEAR REPULSION ENERGY  235.53084958


 Eigenvalues of metric

         1 0.779E-03 0.127E-02 0.143E-02 0.198E-02 0.276E-02 0.420E-02 0.474E-02 0.695E-02


 Contracted 2-electron integrals neglected if value below      1.0D-16
 AO integral compression algorithm  1   Integral accuracy      1.0D-16

     587.989 MB (compressed) written to integral file ( 81.0%)

     Node minimum: 587.989 MB, node maximum: 587.989 MB


 NUMBER OF SORTED TWO-ELECTRON INTEGRALS:   78895641.     BUFFER LENGTH:  32768
 NUMBER OF SEGMENTS:   5  SEGMENT LENGTH:   15999503      RECORD LENGTH: 524288

 Memory used in sort:      16.56 MW

 SORT1 READ    90699450. AND WROTE    77758781. INTEGRALS IN    226 RECORDS. CPU TIME:     0.91 SEC, REAL TIME:     1.33 SEC
 SORT2 READ    77758781. AND WROTE    78895641. INTEGRALS IN   2243 RECORDS. CPU TIME:     0.69 SEC, REAL TIME:     1.02 SEC

 FILE SIZES:   FILE 1:   521.8 MBYTE,  FILE 4:   947.9 MBYTE,   TOTAL:   1469.7 MBYTE

 OPERATOR DM      FOR CENTER  0  COORDINATES:    0.000000    0.000000    0.000000


 **********************************************************************************************************************************
 DATASETS  * FILE   NREC   LENGTH (MB)   RECORD NAMES
              1      19      522.07       500      610      700      900      950      970     1000      129      960     1100   
                                          VAR    BASINP    GEOM    SYMINP    ZMAT    AOBASIS   BASIS     P2S    ABASIS      S 
                                         1400     1410     1200     1210     1080     1600     1650     1300     1700   
                                           T        V       H0       H01     AOSYM     SMH    MOLCAS    ERIS     OPER   

 PROGRAMS   *        TOTAL       INT
 CPU TIMES  *         5.48      5.43
 REAL TIME  *         6.70 SEC
 DISK USED  *         2.06 GB      
 GA USED    *         0.00 MB       (max)       0.00 MB       (current)
 **********************************************************************************************************************************

1PROGRAM * RHF-SCF (CLOSED SHELL)       Authors: W. Meyer, H.-J. Werner


 NUMBER OF ELECTRONS:      24+   24-    SPACE SYMMETRY=1    SPIN SYMMETRY: Singlet 
 CONVERGENCE THRESHOLDS:    1.00E-10 (Density)    1.00E-13 (Energy)
 MAX. NUMBER OF ITERATIONS:      200
 INTERPOLATION TYPE:            DIIS
 INTERPOLATION STEPS:              2 (START)      1 (STEP)
 LEVEL SHIFTS:                  0.00 (CLOSED)  0.00 (OPEN) 



 Orbital guess generated from atomic densities. Full valence occupancy:   34

 Molecular orbital dump at record        2100.2

 ITERATION    DDIFF          GRAD             ENERGY        2-EL.EN.            DIPOLE MOMENTS         DIIS
    1      0.000D+00      0.000D+00      -377.47438590    746.306329    0.00649   -0.01060    0.00568    0
    2      0.000D+00      0.724D-02      -377.56261031    743.506891    0.00160   -0.00177    0.00005    1
    3      0.137D-01      0.456D-02      -377.60996017    745.781908    0.00508   -0.00661    0.00225    2
    4      0.513D-02      0.651D-03      -377.61156942    745.384327    0.00390   -0.00495    0.00214    3
    5      0.997D-03      0.276D-03      -377.61185232    745.421577    0.00450   -0.00573    0.00210    4
    6      0.415D-03      0.775D-04      -377.61189609    745.473281    0.00434   -0.00544    0.00210    5
    7      0.139D-03      0.345D-04      -377.61190659    745.455261    0.00442   -0.00555    0.00211    6
    8      0.802D-04      0.109D-04      -377.61190783    745.460767    0.00438   -0.00548    0.00211    7
    9      0.296D-04      0.359D-05      -377.61190795    745.459452    0.00443   -0.00556    0.00211    8
   10      0.962D-05      0.102D-05      -377.61190796    745.459621    0.00439   -0.00549    0.00211    8
   11      0.263D-05      0.395D-06      -377.61190796    745.459639    0.00442   -0.00554    0.00211    8
   12      0.823D-06      0.191D-06      -377.61190796    745.459608    0.00441   -0.00552    0.00211    9
   13      0.324D-06      0.356D-07      -377.61190796    745.459616    0.00441   -0.00552    0.00211    8
   14      0.910D-07      0.109D-07      -377.61190796    745.459613    0.00441   -0.00552    0.00211    8
   15      0.172D-07      0.516D-08      -377.61190796    745.459614    0.00441   -0.00552    0.00211    8
   16      0.106D-07      0.138D-08      -377.61190796    745.459614    0.00441   -0.00552    0.00211    8
   17      0.292D-08      0.534D-09      -377.61190796    745.459614    0.00441   -0.00552    0.00211    8
   18      0.932D-09      0.119D-09      -377.61190796    745.459614    0.00441   -0.00552    0.00211    8
   19      0.261D-09      0.575D-10      -377.61190796    745.459614    0.00441   -0.00552    0.00211    7
   20      0.125D-09      0.150D-10      -377.61190796    745.459614    0.00441   -0.00552    0.00211    8
   21      0.358D-10      0.543D-11      -377.61190796    745.459614    0.00441   -0.00552    0.00211    8
   22      0.124D-10      0.224D-11      -377.61190796    745.459614    0.00441   -0.00552    0.00211    0

 Final occupancy:  24

 !RHF STATE 1.1 Energy               -377.611907958630
 Nuclear energy                       235.53084958
 One-electron energy                 -985.87256449
 Two-electron energy                  372.72980696
 Virial quotient                       -1.00164097
 !RHF STATE 1.1 Dipole moment           0.00440630    -0.00551960     0.00210666
 Dipole moment /Debye                   0.01119897    -0.01402850     0.00535425

 Orbital energies:

         1.1          2.1          3.1          4.1          5.1          6.1          7.1          8.1          9.1         10.1
    -20.626904   -20.625601   -20.587613   -20.587596   -11.420288   -11.419510    -1.490298    -1.477611    -1.392165    -1.378159

        11.1         12.1         13.1         14.1         15.1         16.1         17.1         18.1         19.1         20.1
     -0.921867    -0.886173    -0.771404    -0.735454    -0.726767    -0.698120    -0.645614    -0.635276    -0.622429    -0.581947

        21.1         22.1         23.1         24.1         25.1         26.1
     -0.506859    -0.498047    -0.495128    -0.475645     0.069506     0.070577


 **********************************************************************************************************************************
 DATASETS  * FILE   NREC   LENGTH (MB)   RECORD NAMES
              1      19      522.07       500      610      700      900      950      970     1000      129      960     1100   
                                          VAR    BASINP    GEOM    SYMINP    ZMAT    AOBASIS   BASIS     P2S    ABASIS      S 
                                         1400     1410     1200     1210     1080     1600     1650     1300     1700   
                                           T        V       H0       H01     AOSYM     SMH    MOLCAS    ERIS     OPER   

              2       3        0.94       700     1000     2100   
                                         GEOM     BASIS     RHF  

 PROGRAMS   *        TOTAL       RHF       INT
 CPU TIMES  *        21.16     15.68      5.43
 REAL TIME  *        23.63 SEC
 DISK USED  *         2.06 GB      
 GA USED    *         0.00 MB       (max)       0.00 MB       (current)
 **********************************************************************************************************************************


1PROGRAM * CCSD (Closed-shell coupled cluster)     Authors: C. Hampel, H.-J. Werner, 1991, M. Deegan, P.J. Knowles, 1992


 Convergence thresholds:  THRVAR = 1.00D-08  THRDEN = 1.00D-12

 CCSD(T)     terms to be evaluated (factor= 1.000)


 Number of core orbitals:           6 (   6 )
 Number of closed-shell orbitals:  18 (  18 )
 Number of external orbitals:     134 ( 134 )

 Molecular orbitals read from record     2100.2  Type=RHF/CANONICAL (state 1.1)

 Number of N-1 electron functions:              18
 Number of N-2 electron functions:             171
 Number of singly external CSFs:              2412
 Number of doubly external CSFs:           2910078
 Total number of CSFs:                     2912491

 Length of J-op  integral file:               0.00 MB
 Length of K-op  integral file:               1.76 MB
 Length of 3-ext integral record:             0.00 MB

 Memory could be reduced to 56.95 Mwords without degradation in triples

 Integral transformation finished. Total CPU:   4.60 sec, npass=  1  Memory used:  45.23 MW

 Reference energy:                   -377.61190796

 MP2 singlet pair energy:              -0.63199477
 MP2 triplet pair energy:              -0.43056318
 MP2 correlation energy:               -1.06255794
 MP2 total energy:                   -378.67446590

 SCS-MP2 correlation energy:           -1.02629970   (PS=  1.200000  PT=  0.333333)
 SCS-MP2 total energy:               -378.63820766

 ITER.      SQ.NORM     CORR.ENERGY   TOTAL ENERGY   ENERGY CHANGE        DEN1      VAR(S)    VAR(P)  DIIS     TIME
   1      1.30279348    -1.07991077  -378.69181873    -0.01735282     0.01548957  0.11D-01  0.60D-02  1  1    17.87
   2      1.32739082    -1.08101370  -378.69292166    -0.00110294    -0.02621113  0.24D-03  0.10D-02  2  2    31.30
   3      1.34057052    -1.08186716  -378.69377511    -0.00085345    -0.00594284  0.21D-03  0.45D-04  3  3    44.74
   4      1.34589535    -1.08159894  -378.69350690     0.00026821    -0.00176587  0.18D-04  0.80D-05  4  4    58.19
   5      1.34798304    -1.08150988  -378.69341784     0.00008906    -0.00046819  0.17D-05  0.73D-06  5  5    71.65
   6      1.34836568    -1.08148959  -378.69339755     0.00002029    -0.00002188  0.14D-06  0.84D-07  6  6    85.12
   7      1.34844802    -1.08148012  -378.69338808     0.00000947    -0.00000599  0.12D-07  0.12D-07  6  2    98.60
   8      1.34845384    -1.08148094  -378.69338890    -0.00000082     0.00000232  0.19D-08  0.11D-08  6  1   112.06
   9      1.34845453    -1.08148077  -378.69338873     0.00000018     0.00000127  0.30D-09  0.17D-09  6  4   125.54
  10      1.34845628    -1.08148060  -378.69338856     0.00000017    -0.00000050  0.70D-10  0.22D-10  6  3   139.00
  11      1.34845579    -1.08148071  -378.69338867    -0.00000011     0.00000022  0.16D-10  0.40D-11  6  5   152.47
  12      1.34845553    -1.08148073  -378.69338869    -0.00000002     0.00000004  0.29D-11  0.10D-11  6  6   165.94
  13      1.34845525    -1.08148077  -378.69338873    -0.00000004     0.00000010  0.49D-12  0.20D-12  6  1   179.41
  14      1.34845515    -1.08148078  -378.69338874    -0.00000001     0.00000002  0.68D-13  0.31D-13  6  2   192.87
  15      1.34845512    -1.08148078  -378.69338874    -0.00000000     0.00000000  0.13D-13  0.51D-14  6  4   206.32
  16      1.34845512    -1.08148078  -378.69338874    -0.00000000    -0.00000000  0.26D-14  0.11D-14  6  3   219.78
  17      1.34845512    -1.08148078  -378.69338874     0.00000000    -0.00000000  0.35D-15  0.19D-15  6  6   233.25
  18      1.34845511    -1.08148078  -378.69338874    -0.00000000     0.00000000  0.62D-16  0.22D-16  6  5   246.69
  19      1.34845511    -1.08148078  -378.69338874    -0.00000000    -0.00000000  0.20D-16  0.54D-17  6  2   260.16
  20      1.34845511    -1.08148078  -378.69338874    -0.00000000     0.00000000  0.55D-17  0.16D-17  6  4   273.62
  21      1.34845511    -1.08148078  -378.69338874     0.00000000     0.00000000  0.11D-17  0.23D-18  6  1   287.09
  22      1.34845511    -1.08148078  -378.69338874     0.00000000    -0.00000000  0.34D-18  0.80D-19  6  3   300.55
  23      1.34845511    -1.08148078  -378.69338874    -0.00000000     0.00000000  0.70D-19  0.23D-19  6  6   314.00
  24      1.34845511    -1.08148078  -378.69338874     0.00000000    -0.00000000  0.92D-20  0.41D-20  6  5   327.44

 Norm of t1 vector:      0.15400800      S-energy:     0.00000000      T1 diagnostic:  0.01815002
                                                                       D1 diagnostic:  0.06241140

 Singles amplitudes (print threshold =  0.500E-01):

         I         SYM. A    A   T(IA)

        12         1        10     -0.05262258


 Total CPU time for triples:    236.22 sec


 RESULTS
 =======

  Reference energy                   -377.611907958631
  CCSD singlet pair energy             -0.702940823523
  CCSD triplet pair energy             -0.378539953917
  CCSD correlation energy              -1.081480777439

  Triples (T) contribution             -0.039460634207
  Total correlation energy             -1.120941411646

  CCSD total energy                  -378.693388736069
  CCSD[T] energy                     -378.736497264743
  CCSD-T energy                      -378.731594164211
 !CCSD(T) total energy               -378.732849370277

 Timing summary (sec):

 STEP                 CPU(USER)    SYS     CPU(TOT)    WALL
 Transformation          4.76      0.37      5.13      5.13
 CCSD iterations       322.69      4.93    327.62    327.73
 Triples               236.22      4.13    240.35    240.36

 Program statistics:

 Available memory in ccsd:               999998604
 Min. memory needed in ccsd:               7389510
 Max. memory used in ccsd:                10033116
 Max. memory used in cckext:               8930217 (24 integral passes)



 **********************************************************************************************************************************
 DATASETS  * FILE   NREC   LENGTH (MB)   RECORD NAMES
              1      20      748.56       500      610      700      900      950      970     1000      129      960     1100   
                                          VAR    BASINP    GEOM    SYMINP    ZMAT    AOBASIS   BASIS     P2S    ABASIS      S 
                                         1400     1410     1200     1210     1080     1600     1650     1300     1700     1380   
                                           T        V       H0       H01     AOSYM     SMH    MOLCAS    ERIS     OPER     JKOP   

              2       3        0.94       700     1000     2100   
                                         GEOM     BASIS     RHF  

 PROGRAMS   *        TOTAL   CCSD(T)       RHF       INT
 CPU TIMES  *       584.84    563.68     15.68      5.43
 REAL TIME  *       596.92 SEC
 DISK USED  *         2.06 GB      
 GA USED    *         0.00 MB       (max)       0.00 MB       (current)
 **********************************************************************************************************************************

        CCSD(T)         RHF-SCF 
   -378.73284937   -377.61190796
 **********************************************************************************************************************************
 Variable memory released
