
 Primary working directories    : /tmp/862637.326.gen6.q
 Secondary working directories  : /tmp/862637.326.gen6.q
 Wavefunction directory         : /home/vulcan/lo21740/wfu/
 Main file repository           : /tmp/862637.326.gen6.q/

 ARCHNAME  : Linux/x86_64
 FC        : /opt/intel/compilers_and_libraries_2016.1.150/linux/bin/intel64/ifort
 FCVERSION : 16.0.1
 BLASLIB   : -mkl
 id        : ccgc

 Nodes     nprocs
 n091         1
 ga_uses_ma=false, calling ma_init with nominal heap.
 GA-space will be limited to   8.0 MW (determined by -G option)

 Using customized tuning parameters: mindgm=10; mindgv=16; mindgc=4; mindgr=1; noblas=0; mincuda=1000; minvec=7
 default implementation of scratch files=df  

 ***,Optimization of formic acid
 memory,1000,m
 gthresh,energy=1.0d-12,orbital=1.0d-10,oneint=1.0d-16,twoint=1.0d-16,optgrad=1.0d-6,compress=1.0d-13
 geomtyp=xyz
 
 bohr
 geometry = {
  C   -3.5019566067   -0.8340575887    0.0000000000
  O   -3.0971105422    1.6258174878    0.0000000000
  O   -1.8828634810   -2.4765956488    0.0000000000
  H   -5.5162944798   -1.2831736167    0.0000000000
  H   -1.2435713998    1.9598727537    0.0000000000
  C    3.5029823106    0.8324155020   -0.0000000000
  O    3.0901099195   -1.6213772950    0.0000000000
  O    1.8862256805    2.4836880978   -0.0000000000
  H    5.5217660807    1.2622591044   -0.0000000000
  H    1.2407125182   -1.9488487965    0.0000000000
 }
 
 basis=AVDZ, H=VDZ
 {rhf;maxit,200}
 {ccsd(t);maxit,200}

 Variables initialized (661), CPU time= 0.00 sec
 Commands  initialized (458), CPU time= 0.01 sec, 486 directives.
 Default parameters read. Elapsed time= 0.04 sec

 Checking input...
 Passed
1


                                         ***  PROGRAM SYSTEM MOLPRO  ***
                         Copyright, University College Cardiff Consultants Limited, 2008

                                    Version 2010.1 linked May 16 2016 07:17:05


 **********************************************************************************************************************************
 LABEL *   Optimization of formic acid                                                   
 Linux-4.4.3/n091(x86_64) 64 bit mpp version                                             DATE: 27-Apr-23          TIME: 16:20:35  
 **********************************************************************************************************************************

 SHA1:             9e8077add272b0f3cad6f7df79ec5211205f459d
 **********************************************************************************************************************************

 THRESHOLDS:

 ZERO    =  1.00D-12  ONEINT  =  1.00D-16  TWOINT  =  1.00D-16  PREFAC  =  1.00D-14  LOCALI  =  1.00D-09  EORDER  =  1.00D-04
 ENERGY  =  1.00D-12  ETEST   =  0.00D+00  EDENS   =  0.00D+00  THRDEDEF=  1.00D-06  GRADIENT=  1.00D-02  STEP    =  1.00D-03
 ORBITAL =  1.00D-10  CIVEC   =  1.00D-05  COEFF   =  1.00D-04  PRINTCI =  5.00D-02  PUNCHCI =  9.90D+01  OPTGRAD =  1.00D-06
 OPTENERG=  1.00D-06  OPTSTEP =  3.00D-04  THRGRAD =  1.00D-10  COMPRESS=  1.00D-13  VARMIN  =  1.00D-07  VARMAX  =  1.00D-03
 THRDOUB =  0.00D+00  THRDIV  =  1.00D-05  THRRED  =  1.00D-07  THRPSP  =  1.00D+00  THRDC   =  1.00D-10  THRCS   =  1.00D-10
 THRNRM  =  1.00D-08  THREQ   =  0.00D+00  THRDE   =  1.00D+00  THRREF  =  1.00D-05  SPARFAC =  1.00D+00  THRDLP  =  1.00D-07
 THRDIA  =  1.00D-10  THRDLS  =  1.00D-07  THRGPS  =  0.00D+00  THRKEX  =  0.00D+00  THRDIS  =  2.00D-01  THRVAR  =  1.00D-10
 THRLOC  =  1.00D-06  THRGAP  =  1.00D-06  THRLOCT = -1.00D+00  THRGAPT = -1.00D+00  THRORB  =  1.00D-06  THRMLTP =  0.00D+00
 THRCPQCI=  1.00D-10  KEXTA   =  0.00D+00  THRCOARS=  0.00D+00  SYMTOL  =  1.00D-06  GRADTOL =  1.00D-06  THROVL  =  1.00D-08
 THRORTH =  1.00D-08  GRID    =  1.00D-06  GRIDMAX =  1.00D-03  DTMAX   =  0.00D+00

 SETTING GEOMTYP        =    XYZ
 ZUNIT=BOHR
 

 Variable memory set to 1000000000 words,  buffer space   230000 words

 SETTING BASIS          =    AVDZ,H=VDZ


 Recomputing integrals since basis changed


 Using spherical harmonics

 Library entry C      S aug-cc-pVDZ          selected for orbital group  1
 Library entry C      P aug-cc-pVDZ          selected for orbital group  1
 Library entry C      D aug-cc-pVDZ          selected for orbital group  1
 Library entry O      S aug-cc-pVDZ          selected for orbital group  2
 Library entry O      P aug-cc-pVDZ          selected for orbital group  2
 Library entry O      D aug-cc-pVDZ          selected for orbital group  2
 Library entry H      S cc-pVDZ              selected for orbital group  3
 Library entry H      P cc-pVDZ              selected for orbital group  3

1PROGRAM * SEWARD (Integral evaluation for generally contracted gaussian basis sets)     Author: Roland Lindh, 1990

 Geometry written to block  1 of record 700


 Point group  Cs  



 ATOMIC COORDINATES

 NR  ATOM    CHARGE       X              Y              Z

   1  C       6.00   -3.501956607   -0.834057589    0.000000000
   2  O       8.00   -3.097110542    1.625817488    0.000000000
   3  O       8.00   -1.882863481   -2.476595649    0.000000000
   4  H       1.00   -5.516294480   -1.283173617    0.000000000
   5  H       1.00   -1.243571400    1.959872754    0.000000000
   6  C       6.00    3.502982311    0.832415502    0.000000000
   7  O       8.00    3.090109920   -1.621377295    0.000000000
   8  O       8.00    1.886225680    2.483688098    0.000000000
   9  H       1.00    5.521766081    1.262259104    0.000000000
  10  H       1.00    1.240712518   -1.948848797    0.000000000

 Bond lengths in Bohr (Angstrom)

 1-2  2.492967254  1-3  2.306381111  1-4  2.063798022  2-5  1.883401251  6-7  2.488285093
     ( 1.319221453)     ( 1.220484319)     ( 1.092114877)     ( 0.996653018)     ( 1.316743760)

  6- 8  2.310974510   6- 9  2.064038137   7-10  1.878166215
       ( 1.222915041)       ( 1.092241941)       ( 0.993882756)

 Bond angles

  1-2-5  109.56244844   2-1-3  126.06588766   2-1-4  111.91501664   3-1-4  122.01909569

  6- 7-10  109.59230388   7- 6- 8  126.05405881   7- 6- 9  111.57109477   8- 6- 9  122.37484642

 NUCLEAR CHARGE:                   48
 NUMBER OF PRIMITIVE AOS:         250
 NUMBER OF SYMMETRY AOS:          238
 NUMBER OF CONTRACTIONS:          158   ( 112A'  +  46A"  )
 NUMBER OF CORE ORBITALS:           6   (   6A'  +   0A"  )
 NUMBER OF VALENCE ORBITALS:       28   (  22A'  +   6A"  )


 NUCLEAR REPULSION ENERGY  235.50218397


 Eigenvalues of metric

         1 0.781E-03 0.127E-02 0.143E-02 0.198E-02 0.277E-02 0.421E-02 0.473E-02 0.694E-02
         2 0.270E-01 0.379E-01 0.475E-01 0.521E-01 0.619E-01 0.744E-01 0.105E+00 0.138E+00


 Contracted 2-electron integrals neglected if value below      1.0D-16
 AO integral compression algorithm  1   Integral accuracy      1.0D-16

     353.370 MB (compressed) written to integral file ( 94.6%)

     Node minimum: 353.370 MB, node maximum: 353.370 MB


 NUMBER OF SORTED TWO-ELECTRON INTEGRALS:   41131481.     BUFFER LENGTH:  32768
 NUMBER OF SEGMENTS:   3  SEGMENT LENGTH:   15997996      RECORD LENGTH: 524288

 Memory used in sort:      16.56 MW

 SORT1 READ    46708508. AND WROTE    40803546. INTEGRALS IN    118 RECORDS. CPU TIME:     0.45 SEC, REAL TIME:     0.71 SEC
 SORT2 READ    40803546. AND WROTE    41131481. INTEGRALS IN   1348 RECORDS. CPU TIME:     0.32 SEC, REAL TIME:     0.48 SEC

 FILE SIZES:   FILE 1:   319.8 MBYTE,  FILE 4:   495.0 MBYTE,   TOTAL:    814.7 MBYTE

 OPERATOR DM      FOR CENTER  0  COORDINATES:    0.000000    0.000000    0.000000


 **********************************************************************************************************************************
 DATASETS  * FILE   NREC   LENGTH (MB)   RECORD NAMES
              1      19      319.94       500      610      700      900      950      970     1000      129      960     1100   
                                          VAR    BASINP    GEOM    SYMINP    ZMAT    AOBASIS   BASIS     P2S    ABASIS      S 
                                         1400     1410     1200     1210     1080     1600     1650     1300     1700   
                                           T        V       H0       H01     AOSYM     SMH    MOLCAS    ERIS     OPER   

 PROGRAMS   *        TOTAL       INT
 CPU TIMES  *         3.81      3.77
 REAL TIME  *         4.58 SEC
 DISK USED  *         1.17 GB      
 GA USED    *         0.00 MB       (max)       0.00 MB       (current)
 **********************************************************************************************************************************

1PROGRAM * RHF-SCF (CLOSED SHELL)       Authors: W. Meyer, H.-J. Werner


 NUMBER OF ELECTRONS:      24+   24-
 CONVERGENCE THRESHOLDS:    1.00E-10 (Density)    1.00E-13 (Energy)
 MAX. NUMBER OF ITERATIONS:      200
 INTERPOLATION TYPE:            DIIS
 INTERPOLATION STEPS:              2 (START)      1 (STEP)
 LEVEL SHIFTS:                  0.00 (CLOSED)  0.00 (OPEN) 



 Orbital guess generated from atomic densities. Full valence occupancy:   28   6

 Molecular orbital dump at record        2100.2

 Initial alpha occupancy:  20   4
 Initial beta  occupancy:  20   4
 Wave function symmetry:    1

 ITERATION    DDIFF          GRAD             ENERGY        2-EL.EN.            DIPOLE MOMENTS         DIIS
    1      0.000D+00      0.000D+00      -377.47425849    746.277286    0.00528   -0.01551    0.00000    0
    2      0.000D+00      0.943D-02      -377.56254962    743.454998    0.00210   -0.00876    0.00000    1
    3      0.179D-01      0.593D-02      -377.60989383    745.741166    0.00373   -0.01251    0.00000    2
    4      0.669D-02      0.846D-03      -377.61150359    745.341777    0.00325   -0.01136    0.00000    3
    5      0.130D-02      0.359D-03      -377.61178622    745.379744    0.00348   -0.01186    0.00000    4
    6      0.539D-03      0.101D-03      -377.61183032    745.431310    0.00342   -0.01173    0.00000    5
    7      0.182D-03      0.452D-04      -377.61184094    745.413274    0.00345   -0.01177    0.00000    6
    8      0.105D-03      0.142D-04      -377.61184219    745.418806    0.00344   -0.01175    0.00000    7
    9      0.388D-04      0.467D-05      -377.61184231    745.417480    0.00346   -0.01177    0.00000    8
   10      0.126D-04      0.129D-05      -377.61184232    745.417709    0.00345   -0.01175    0.00000    7
   11      0.349D-05      0.397D-06      -377.61184232    745.417641    0.00346   -0.01178    0.00000    8
   12      0.100D-05      0.180D-06      -377.61184232    745.417658    0.00345   -0.01176    0.00000    8
   13      0.315D-06      0.484D-07      -377.61184232    745.417649    0.00346   -0.01176    0.00000    8
   14      0.954D-07      0.141D-07      -377.61184232    745.417650    0.00346   -0.01176    0.00000    8
   15      0.308D-07      0.678D-08      -377.61184232    745.417652    0.00346   -0.01176    0.00000    8
   16      0.122D-07      0.177D-08      -377.61184232    745.417650    0.00346   -0.01176    0.00000    8
   17      0.298D-08      0.561D-09      -377.61184232    745.417651    0.00346   -0.01176    0.00000    8
   18      0.106D-08      0.220D-09      -377.61184232    745.417651    0.00346   -0.01176    0.00000    8
   19      0.399D-09      0.902D-10      -377.61184232    745.417651    0.00346   -0.01176    0.00000    8
   20      0.181D-09      0.405D-10      -377.61184232    745.417651    0.00346   -0.01176    0.00000    8
   21      0.845D-10      0.118D-10      -377.61184232    745.417651    0.00346   -0.01176    0.00000    8
   22      0.293D-10      0.441D-11      -377.61184232    745.417651    0.00346   -0.01176    0.00000    0

 Final occupancy:  20   4

 !RHF STATE 1.1 Energy               -377.611842317404
 Nuclear energy                       235.50218397
 One-electron energy                 -985.82285164
 Two-electron energy                  372.70882534
 Virial quotient                       -1.00164473
 !RHF STATE 1.1 Dipole moment           0.00345563    -0.01176363     0.00000000
 Dipole moment /Debye                   0.00878276    -0.02989822     0.00000000

 Orbital energies:

         1.1          2.1          3.1          4.1          5.1          6.1          7.1          8.1          9.1         10.1
    -20.625895   -20.625553   -20.587908   -20.587634   -11.419999   -11.419791    -1.489682    -1.476906    -1.391913    -1.377845

        11.1         12.1         13.1         14.1         15.1         16.1         17.1         18.1         19.1         20.1
     -0.921946    -0.886169    -0.771425    -0.735220    -0.726551    -0.697823    -0.622994    -0.581821    -0.497948    -0.475965

        21.1         22.1
      0.069443     0.070535

         1.2          2.2          3.2          4.2          5.2          6.2
     -0.645085    -0.634705    -0.506800    -0.495021     0.080691     0.092916


 **********************************************************************************************************************************
 DATASETS  * FILE   NREC   LENGTH (MB)   RECORD NAMES
              1      19      319.94       500      610      700      900      950      970     1000      129      960     1100   
                                          VAR    BASINP    GEOM    SYMINP    ZMAT    AOBASIS   BASIS     P2S    ABASIS      S 
                                         1400     1410     1200     1210     1080     1600     1650     1300     1700   
                                           T        V       H0       H01     AOSYM     SMH    MOLCAS    ERIS     OPER   

              2       3        0.73       700     1000     2100   
                                         GEOM     BASIS     RHF  

 PROGRAMS   *        TOTAL       RHF       INT
 CPU TIMES  *         7.96      4.15      3.77
 REAL TIME  *         9.43 SEC
 DISK USED  *         1.17 GB      
 GA USED    *         0.00 MB       (max)       0.00 MB       (current)
 **********************************************************************************************************************************


1PROGRAM * CCSD (Closed-shell coupled cluster)     Authors: C. Hampel, H.-J. Werner, 1991, M. Deegan, P.J. Knowles, 1992


 Convergence thresholds:  THRVAR = 1.00D-08  THRDEN = 1.00D-12

 CCSD(T)     terms to be evaluated (factor= 1.000)


 Number of core orbitals:           6 (   6   0 )
 Number of closed-shell orbitals:  18 (  14   4 )
 Number of external orbitals:     134 (  92  42 )

 Molecular orbitals read from record     2100.2  Type=RHF/CANONICAL (state 1.1)

 Number of N-1 electron functions:              18
 Number of N-2 electron functions:             171
 Number of singly external CSFs:              1456
 Number of doubly external CSFs:           1518142
 Total number of CSFs:                     1519599

 Length of J-op  integral file:               0.00 MB
 Length of K-op  integral file:               1.05 MB
 Length of 3-ext integral record:             0.00 MB

 Memory could be reduced to 29.62 Mwords without degradation in triples

 Integral transformation finished. Total CPU:   1.28 sec, npass=  1  Memory used:  13.10 MW

 Reference energy:                   -377.61184232

 MP2 singlet pair energy:              -0.63204170
 MP2 triplet pair energy:              -0.43056657
 MP2 correlation energy:               -1.06260827
 MP2 total energy:                   -378.67445059

 SCS-MP2 correlation energy:           -1.02635813   (PS=  1.200000  PT=  0.333333)
 SCS-MP2 total energy:               -378.63820045

 ITER.      SQ.NORM     CORR.ENERGY   TOTAL ENERGY   ENERGY CHANGE        DEN1      VAR(S)    VAR(P)  DIIS     TIME
   1      1.30283535    -1.07995860  -378.69180092    -0.01735033     0.01550737  0.11D-01  0.60D-02  1  1     4.51
   2      1.32744226    -1.08105861  -378.69290093    -0.00110000    -0.02621928  0.24D-03  0.10D-02  2  2     7.81
   3      1.34063390    -1.08191361  -378.69375593    -0.00085500    -0.00594470  0.21D-03  0.45D-04  3  3    11.12
   4      1.34596915    -1.08164529  -378.69348760     0.00026832    -0.00176792  0.19D-04  0.81D-05  4  4    14.42
   5      1.34806472    -1.08155591  -378.69339823     0.00008937    -0.00046951  0.17D-05  0.73D-06  5  5    17.74
   6      1.34844915    -1.08153566  -378.69337798     0.00002026    -0.00002197  0.14D-06  0.85D-07  6  6    21.05
   7      1.34853194    -1.08152613  -378.69336845     0.00000953    -0.00000603  0.12D-07  0.12D-07  6  2    24.36
   8      1.34853781    -1.08152697  -378.69336929    -0.00000084     0.00000233  0.20D-08  0.12D-08  6  1    27.68
   9      1.34853853    -1.08152679  -378.69336911     0.00000018     0.00000127  0.33D-09  0.17D-09  6  4    30.99
  10      1.34854031    -1.08152662  -378.69336894     0.00000017    -0.00000051  0.79D-10  0.25D-10  6  3    34.29
  11      1.34853983    -1.08152674  -378.69336905    -0.00000012     0.00000022  0.18D-10  0.46D-11  6  5    37.61
  12      1.34853957    -1.08152676  -378.69336908    -0.00000002     0.00000004  0.33D-11  0.12D-11  6  6    40.92
  13      1.34853927    -1.08152680  -378.69336911    -0.00000004     0.00000011  0.53D-12  0.23D-12  6  1    44.24
  14      1.34853916    -1.08152680  -378.69336912    -0.00000001     0.00000002  0.70D-13  0.34D-13  6  2    47.55
  15      1.34853914    -1.08152680  -378.69336912    -0.00000000     0.00000000  0.13D-13  0.53D-14  6  4    50.87
  16      1.34853913    -1.08152680  -378.69336912    -0.00000000    -0.00000000  0.24D-14  0.11D-14  6  3    54.18
  17      1.34853913    -1.08152680  -378.69336912    -0.00000000    -0.00000000  0.29D-15  0.18D-15  6  6    57.50
  18      1.34853913    -1.08152680  -378.69336912    -0.00000000     0.00000000  0.37D-16  0.18D-16  6  5    60.81
  19      1.34853913    -1.08152680  -378.69336912    -0.00000000     0.00000000  0.93D-17  0.28D-17  6  1    64.13
  20      1.34853913    -1.08152680  -378.69336912     0.00000000    -0.00000000  0.17D-17  0.82D-18  6  5    67.43
  21      1.34853913    -1.08152680  -378.69336912    -0.00000000     0.00000000  0.18D-18  0.94D-19  6  2    70.74
  22      1.34853913    -1.08152680  -378.69336912     0.00000000    -0.00000000  0.13D-19  0.13D-19  6  3    74.05
  23      1.34853913    -1.08152680  -378.69336912     0.00000000     0.00000000  0.21D-20  0.82D-21  6  4    77.36
  24      1.34853913    -1.08152680  -378.69336912     0.00000000     0.00000000  0.61D-21  0.24D-21  6  3    80.67

 Norm of t1 vector:      0.15412490      S-energy:     0.00000000      T1 diagnostic:  0.01816379
                                                                       D1 diagnostic:  0.06246033

 Singles amplitudes (print threshold =  0.500E-01):

         I         SYM. A    A   T(IA)

        16         2         4     -0.05270042


 Total CPU time for triples:     71.49 sec


 RESULTS
 =======

  Reference energy                   -377.611842317405
  CCSD singlet pair energy             -0.702999070846
  CCSD triplet pair energy             -0.378527732864
  CCSD correlation energy              -1.081526803707

  Triples (T) contribution             -0.039471212496
  Total correlation energy             -1.120998016203

  CCSD total energy                  -378.693369121112
  CCSD[T] energy                     -378.736492917877
  CCSD-T energy                      -378.731583382983
 !CCSD(T) total energy               -378.732840333607

 Timing summary (sec):

 STEP                 CPU(USER)    SYS     CPU(TOT)    WALL
 Transformation          1.33      0.18      1.51      1.51
 CCSD iterations        79.34      2.43     81.77     81.88
 Triples                71.49      1.83     73.32     73.35

 Program statistics:

 Available memory in ccsd:               999998604
 Min. memory needed in ccsd:               3931458
 Max. memory used in ccsd:                 5315516
 Max. memory used in cckext:               5296012 (24 integral passes)



 **********************************************************************************************************************************
 DATASETS  * FILE   NREC   LENGTH (MB)   RECORD NAMES
              1      20      438.33       500      610      700      900      950      970     1000      129      960     1100   
                                          VAR    BASINP    GEOM    SYMINP    ZMAT    AOBASIS   BASIS     P2S    ABASIS      S 
                                         1400     1410     1200     1210     1080     1600     1650     1300     1700     1380   
                                           T        V       H0       H01     AOSYM     SMH    MOLCAS    ERIS     OPER     JKOP   

              2       3        0.73       700     1000     2100   
                                         GEOM     BASIS     RHF  

 PROGRAMS   *        TOTAL   CCSD(T)       RHF       INT
 CPU TIMES  *       160.13    152.17      4.15      3.77
 REAL TIME  *       166.21 SEC
 DISK USED  *         1.17 GB      
 GA USED    *         0.00 MB       (max)       0.00 MB       (current)
 **********************************************************************************************************************************

        CCSD(T)         RHF-SCF 
   -378.73284033   -377.61184232
 **********************************************************************************************************************************
 Variable memory released
