
 Primary working directories    : /tmp/917005.577.gen4.q
 Secondary working directories  : /tmp/917005.577.gen4.q
 Wavefunction directory         : /home/vulcan/lo21740/wfu/
 Main file repository           : /tmp/917005.577.gen4.q/

 ARCHNAME  : Linux/x86_64
 FC        : /opt/intel/compilers_and_libraries_2016.1.150/linux/bin/intel64/ifort
 FCVERSION : 16.0.1
 BLASLIB   : -mkl
 id        : ccgc

 Nodes     nprocs
 n049         1
 ga_uses_ma=false, calling ma_init with nominal heap.
 GA-space will be limited to   8.0 MW (determined by -G option)

 Using customized tuning parameters: mindgm=10; mindgv=16; mindgc=4; mindgr=1; noblas=0; mincuda=1000; minvec=7
 default implementation of scratch files=df  

 ***,Optimization of h2o_2
 memory,1000,m
 gthresh,energy=1.0d-12,orbital=1.0d-10,oneint=1.0d-16,twoint=1.0d-16,optgrad=1.0d-6,compress=1.0d-13
 geomtyp=xyz
 
 bohr
 geometry = {
  C    0.0006050415   -3.4230396982    0.0000138021
  H   -0.9691661768   -2.7320972451   -1.6808187289
  H   -0.9691663306   -2.7325574942    1.6810353660
  H    1.9422797552   -2.7353248268    0.0001080414
  H   -0.0015176420   -5.4828504430   -0.0002681930
  C   -0.0047126390    3.4263829839   -0.0003951651
  H   -0.0051729178    5.4861947900   -0.0003510045
  H    0.9757379142    2.7313516657   -1.6733278769
  H    0.9746451806    2.7312796766    1.6731475838
  H   -1.9435321853    2.7306605912    0.0008561752
 }
 
 basis=VDZ
 {rhf;maxit,200}
 {ccsd(t);maxit,200}

 Variables initialized (661), CPU time= 0.01 sec
 Commands  initialized (458), CPU time= 0.00 sec, 486 directives.
 Default parameters read. Elapsed time= 0.05 sec

 Checking input...
 Passed
1


                                         ***  PROGRAM SYSTEM MOLPRO  ***
                         Copyright, University College Cardiff Consultants Limited, 2008

                                    Version 2010.1 linked May 16 2016 07:17:05


 **********************************************************************************************************************************
 LABEL *   Optimization of h2o_2                                                         
 Linux-4.4.3/n049(x86_64) 64 bit mpp version                                             DATE: 19-Jul-23          TIME: 16:22:11  
 **********************************************************************************************************************************

 SHA1:             9e8077add272b0f3cad6f7df79ec5211205f459d
 **********************************************************************************************************************************

 THRESHOLDS:

 ZERO    =  1.00D-12  ONEINT  =  1.00D-16  TWOINT  =  1.00D-16  PREFAC  =  1.00D-14  LOCALI  =  1.00D-09  EORDER  =  1.00D-04
 ENERGY  =  1.00D-12  ETEST   =  0.00D+00  EDENS   =  0.00D+00  THRDEDEF=  1.00D-06  GRADIENT=  1.00D-02  STEP    =  1.00D-03
 ORBITAL =  1.00D-10  CIVEC   =  1.00D-05  COEFF   =  1.00D-04  PRINTCI =  5.00D-02  PUNCHCI =  9.90D+01  OPTGRAD =  1.00D-06
 OPTENERG=  1.00D-06  OPTSTEP =  3.00D-04  THRGRAD =  1.00D-10  COMPRESS=  1.00D-13  VARMIN  =  1.00D-07  VARMAX  =  1.00D-03
 THRDOUB =  0.00D+00  THRDIV  =  1.00D-05  THRRED  =  1.00D-07  THRPSP  =  1.00D+00  THRDC   =  1.00D-10  THRCS   =  1.00D-10
 THRNRM  =  1.00D-08  THREQ   =  0.00D+00  THRDE   =  1.00D+00  THRREF  =  1.00D-05  SPARFAC =  1.00D+00  THRDLP  =  1.00D-07
 THRDIA  =  1.00D-10  THRDLS  =  1.00D-07  THRGPS  =  0.00D+00  THRKEX  =  0.00D+00  THRDIS  =  2.00D-01  THRVAR  =  1.00D-10
 THRLOC  =  1.00D-06  THRGAP  =  1.00D-06  THRLOCT = -1.00D+00  THRGAPT = -1.00D+00  THRORB  =  1.00D-06  THRMLTP =  0.00D+00
 THRCPQCI=  1.00D-10  KEXTA   =  0.00D+00  THRCOARS=  0.00D+00  SYMTOL  =  1.00D-06  GRADTOL =  1.00D-06  THROVL  =  1.00D-08
 THRORTH =  1.00D-08  GRID    =  1.00D-06  GRIDMAX =  1.00D-03  DTMAX   =  0.00D+00

 SETTING GEOMTYP        =    XYZ
 ZUNIT=BOHR
 

 Variable memory set to 1000000000 words,  buffer space   230000 words

 SETTING BASIS          =    VDZ


 Recomputing integrals since basis changed


 Using spherical harmonics

 Library entry C      S cc-pVDZ              selected for orbital group  1
 Library entry C      P cc-pVDZ              selected for orbital group  1
 Library entry C      D cc-pVDZ              selected for orbital group  1
 Library entry H      S cc-pVDZ              selected for orbital group  2
 Library entry H      P cc-pVDZ              selected for orbital group  2

1PROGRAM * SEWARD (Integral evaluation for generally contracted gaussian basis sets)     Author: Roland Lindh, 1990

 Geometry written to block  1 of record 700


 Point group  C1  



 ATOMIC COORDINATES

 NR  ATOM    CHARGE       X              Y              Z

   1  C       6.00    0.000605042   -3.423039698    0.000013802
   2  H       1.00   -0.969166177   -2.732097245   -1.680818729
   3  H       1.00   -0.969166331   -2.732557494    1.681035366
   4  H       1.00    1.942279755   -2.735324827    0.000108041
   5  H       1.00   -0.001517642   -5.482850443   -0.000268193
   6  C       6.00   -0.004712639    3.426382984   -0.000395165
   7  H       1.00   -0.005172918    5.486194790   -0.000351004
   8  H       1.00    0.975737914    2.731351666   -1.673327877
   9  H       1.00    0.974645181    2.731279677    1.673147584
  10  H       1.00   -1.943532185    2.730660591    0.000856175

 Bond lengths in Bohr (Angstrom)

 1-2  2.059867881  1-3  2.059867881  1-4  2.059867095  1-5  2.059811858  6-7  2.059811858
     ( 1.090035136)     ( 1.090035136)     ( 1.090034720)     ( 1.090005490)     ( 1.090005490)

  6- 8  2.059867879   6- 9  2.059867879   6-10  2.059867094
       ( 1.090035135)       ( 1.090035135)       ( 1.090034720)

 Bond angles

  2-1-3  109.37992579   2-1-4  109.37980975   2-1-5  109.56240831   3-1-4  109.37980975

  3-1-5  109.56240831   4-1-5  109.56250040   7-6-8  109.72702250   7-6-9  109.72702248

  7- 6-10  109.72711457   8- 6- 9  108.64320159   8- 6-10  109.54442397   9- 6-10  109.45337030

 NUCLEAR CHARGE:                   20
 NUMBER OF PRIMITIVE AOS:         110
 NUMBER OF SYMMETRY AOS:          108
 NUMBER OF CONTRACTIONS:           68   (  68A   )
 NUMBER OF CORE ORBITALS:           2   (   2A   )
 NUMBER OF VALENCE ORBITALS:       16   (  16A   )


 NUCLEAR REPULSION ENERGY   41.33398172


 Eigenvalues of metric

         1 0.113E-01 0.127E-01 0.348E-01 0.348E-01 0.356E-01 0.375E-01 0.383E-01 0.384E-01


 Contracted 2-electron integrals neglected if value below      1.0D-16
 AO integral compression algorithm  1   Integral accuracy      1.0D-16

     21.496 MB (compressed) written to integral file ( 86.4%)

     Node minimum: 21.496 MB, node maximum: 21.496 MB


 NUMBER OF SORTED TWO-ELECTRON INTEGRALS:    2753031.     BUFFER LENGTH:  32768
 NUMBER OF SEGMENTS:   1  SEGMENT LENGTH:    2753031      RECORD LENGTH: 524288

 Memory used in sort:       3.31 MW

 SORT1 READ     3104305. AND WROTE     2681742. INTEGRALS IN      8 RECORDS. CPU TIME:     0.03 SEC, REAL TIME:     0.05 SEC
 SORT2 READ     2681742. AND WROTE     2753031. INTEGRALS IN     82 RECORDS. CPU TIME:     0.04 SEC, REAL TIME:     0.05 SEC

 FILE SIZES:   FILE 1:    21.4 MBYTE,  FILE 4:    33.6 MBYTE,   TOTAL:     55.0 MBYTE

 OPERATOR DM      FOR CENTER  0  COORDINATES:    0.000000    0.000000    0.000000


 **********************************************************************************************************************************
 DATASETS  * FILE   NREC   LENGTH (MB)   RECORD NAMES
              1      19       21.43       500      610      700      900      950      970     1000      129      960     1100   
                                          VAR    BASINP    GEOM    SYMINP    ZMAT    AOBASIS   BASIS     P2S    ABASIS      S 
                                         1400     1410     1200     1210     1080     1600     1650     1300     1700   
                                           T        V       H0       H01     AOSYM     SMH    MOLCAS    ERIS     OPER   

 PROGRAMS   *        TOTAL       INT
 CPU TIMES  *         0.49      0.44
 REAL TIME  *         0.70 SEC
 DISK USED  *        77.22 MB      
 GA USED    *         0.00 MB       (max)       0.00 MB       (current)
 **********************************************************************************************************************************

1PROGRAM * RHF-SCF (CLOSED SHELL)       Authors: W. Meyer, H.-J. Werner


 NUMBER OF ELECTRONS:      10+   10-    SPACE SYMMETRY=1    SPIN SYMMETRY: Singlet 
 CONVERGENCE THRESHOLDS:    1.00E-10 (Density)    1.00E-13 (Energy)
 MAX. NUMBER OF ITERATIONS:      200
 INTERPOLATION TYPE:            DIIS
 INTERPOLATION STEPS:              2 (START)      1 (STEP)
 LEVEL SHIFTS:                  0.00 (CLOSED)  0.00 (OPEN) 



 Orbital guess generated from atomic densities. Full valence occupancy:   18

 Molecular orbital dump at record        2100.2

 ITERATION    DDIFF          GRAD             ENERGY        2-EL.EN.            DIPOLE MOMENTS         DIIS
    1      0.000D+00      0.000D+00       -80.35962617    134.811351    0.00340   -0.00285    0.00032    0
    2      0.000D+00      0.637D-02       -80.39229058    132.533064    0.00101   -0.00125    0.00009    1
    3      0.132D-01      0.234D-02       -80.39615154    133.334176    0.00133   -0.00139    0.00012    2
    4      0.460D-02      0.630D-03       -80.39668016    133.197439    0.00111   -0.00119    0.00010    3
    5      0.165D-02      0.664D-04       -80.39668468    133.203469    0.00108   -0.00117    0.00010    4
    6      0.233D-03      0.393D-05       -80.39668471    133.203330    0.00109   -0.00117    0.00010    5
    7      0.206D-04      0.232D-06       -80.39668471    133.203328    0.00109   -0.00117    0.00010    5
    8      0.741D-06      0.415D-07       -80.39668471    133.203330    0.00109   -0.00117    0.00010    4
    9      0.112D-06      0.114D-07       -80.39668471    133.203330    0.00109   -0.00117    0.00010    4
   10      0.386D-07      0.217D-08       -80.39668471    133.203330    0.00109   -0.00117    0.00010    5
   11      0.717D-08      0.268D-09       -80.39668471    133.203330    0.00109   -0.00117    0.00010    5
   12      0.747D-09      0.638D-10       -80.39668471    133.203330    0.00109   -0.00117    0.00010    6
   13      0.197D-09      0.196D-10       -80.39668471    133.203330    0.00109   -0.00117    0.00010    6
   14      0.453D-10      0.444D-11       -80.39668471    133.203330    0.00109   -0.00117    0.00010    6
   15      0.177D-10      0.344D-12       -80.39668471    133.203330    0.00109   -0.00117    0.00010    6
   16      0.125D-11      0.958D-13       -80.39668471    133.203330    0.00109   -0.00117    0.00010    0

 Final occupancy:  10

 !RHF STATE 1.1 Energy                -80.396684705255
 Nuclear energy                        41.33398172
 One-electron energy                 -188.33233161
 Two-electron energy                   66.60166519
 Virial quotient                       -1.00229959
 !RHF STATE 1.1 Dipole moment           0.00108548    -0.00116559     0.00010171
 Dipole moment /Debye                   0.00275883    -0.00296245     0.00025850

 Orbital energies:

         1.1          2.1          3.1          4.1          5.1          6.1          7.1          8.1          9.1         10.1
    -11.215353   -11.215303    -0.944280    -0.938427    -0.550021    -0.545778    -0.544731    -0.538456    -0.537265    -0.534888

        11.1         12.1
      0.172375     0.229320


 **********************************************************************************************************************************
 DATASETS  * FILE   NREC   LENGTH (MB)   RECORD NAMES
              1      19       21.43       500      610      700      900      950      970     1000      129      960     1100   
                                          VAR    BASINP    GEOM    SYMINP    ZMAT    AOBASIS   BASIS     P2S    ABASIS      S 
                                         1400     1410     1200     1210     1080     1600     1650     1300     1700   
                                           T        V       H0       H01     AOSYM     SMH    MOLCAS    ERIS     OPER   

              2       3        0.51       700     1000     2100   
                                         GEOM     BASIS     RHF  

 PROGRAMS   *        TOTAL       RHF       INT
 CPU TIMES  *         0.85      0.36      0.44
 REAL TIME  *         1.10 SEC
 DISK USED  *        77.22 MB      
 GA USED    *         0.00 MB       (max)       0.00 MB       (current)
 **********************************************************************************************************************************


1PROGRAM * CCSD (Closed-shell coupled cluster)     Authors: C. Hampel, H.-J. Werner, 1991, M. Deegan, P.J. Knowles, 1992


 Convergence thresholds:  THRVAR = 1.00D-08  THRDEN = 1.00D-12

 CCSD(T)     terms to be evaluated (factor= 1.000)


 Number of core orbitals:           2 (   2 )
 Number of closed-shell orbitals:   8 (   8 )
 Number of external orbitals:      58 (  58 )

 Molecular orbitals read from record     2100.2  Type=RHF/CANONICAL (state 1.1)

 Number of N-1 electron functions:               8
 Number of N-2 electron functions:              36
 Number of singly external CSFs:               464
 Number of doubly external CSFs:            107880
 Total number of CSFs:                      108345

 Length of J-op  integral file:               0.00 MB
 Length of K-op  integral file:               0.35 MB
 Length of 3-ext integral record:             0.00 MB

 Memory could be reduced to 2.66 Mwords without degradation in triples

 Integral transformation finished. Total CPU:   0.08 sec, npass=  1  Memory used:   1.86 MW

 Reference energy:                    -80.39668471

 MP2 singlet pair energy:              -0.23207689
 MP2 triplet pair energy:              -0.09154874
 MP2 correlation energy:               -0.32362563
 MP2 total energy:                    -80.72031033

 SCS-MP2 correlation energy:           -0.33545593   (PS=  1.200000  PT=  0.333333)
 SCS-MP2 total energy:                -80.73214063

 ITER.      SQ.NORM     CORR.ENERGY   TOTAL ENERGY   ENERGY CHANGE        DEN1      VAR(S)    VAR(P)  DIIS     TIME
   1      1.13421109    -0.36752717   -80.76421187    -0.04390154    -0.03297775  0.50D-03  0.24D-02  1  1     0.22
   2      1.14682041    -0.37032454   -80.76700925    -0.00279737    -0.01276579  0.15D-04  0.96D-04  2  2     0.36
   3      1.14861172    -0.37049558   -80.76718028    -0.00017104    -0.00095459  0.17D-05  0.56D-05  3  3     0.51
   4      1.14897934    -0.37051589   -80.76720059    -0.00002031    -0.00016574  0.25D-07  0.35D-06  4  4     0.66
   5      1.14902532    -0.37051340   -80.76719811     0.00000248    -0.00002396  0.18D-08  0.18D-07  5  5     0.81
   6      1.14902663    -0.37051334   -80.76719805     0.00000006    -0.00000011  0.19D-09  0.12D-08  6  6     0.96
   7      1.14902673    -0.37051361   -80.76719831    -0.00000026     0.00000012  0.13D-10  0.71D-10  6  1     1.11
   8      1.14902691    -0.37051360   -80.76719830     0.00000001    -0.00000013  0.15D-11  0.41D-11  6  2     1.26
   9      1.14902694    -0.37051359   -80.76719829     0.00000001    -0.00000003  0.15D-12  0.26D-12  6  3     1.41
  10      1.14902693    -0.37051358   -80.76719829     0.00000000     0.00000001  0.11D-13  0.23D-13  6  4     1.56
  11      1.14902692    -0.37051359   -80.76719829    -0.00000000     0.00000001  0.80D-15  0.19D-14  6  5     1.71
  12      1.14902692    -0.37051359   -80.76719829    -0.00000000     0.00000000  0.43D-16  0.23D-15  6  6     1.86
  13      1.14902691    -0.37051359   -80.76719829    -0.00000000     0.00000000  0.34D-17  0.28D-16  6  1     2.01
  14      1.14902691    -0.37051359   -80.76719829     0.00000000     0.00000000  0.59D-18  0.37D-17  6  2     2.16
  15      1.14902691    -0.37051359   -80.76719829     0.00000000     0.00000000  0.71D-19  0.37D-18  6  3     2.30
  16      1.14902691    -0.37051359   -80.76719829    -0.00000000     0.00000000  0.15D-20  0.20D-19  6  5     2.45
  17      1.14902691    -0.37051359   -80.76719829    -0.00000000     0.00000000  0.18D-21  0.56D-21  6  4     2.60
  18      1.14902691    -0.37051359   -80.76719829     0.00000000    -0.00000000  0.45D-22  0.51D-22  6  6     2.75

 Norm of t1 vector:      0.03062604      S-energy:     0.00000000      T1 diagnostic:  0.00541397
                                                                       D1 diagnostic:  0.00877948


 Total CPU time for triples:      1.09 sec


 RESULTS
 =======

  Reference energy                    -80.396684705255
  CCSD singlet pair energy             -0.281840322490
  CCSD triplet pair energy             -0.088673262926
  CCSD correlation energy              -0.370513585416

  Triples (T) contribution             -0.007535530670
  Total correlation energy             -0.378049116086

  CCSD total energy                   -80.767198290671
  CCSD[T] energy                      -80.774910000353
  CCSD-T energy                       -80.774639388766
 !CCSD(T) total energy                -80.774733821341

 Timing summary (sec):

 STEP                 CPU(USER)    SYS     CPU(TOT)    WALL
 Transformation          0.08      0.02      0.10      0.10
 CCSD iterations         2.68      0.12      2.80      2.82
 Triples                 1.09      0.02      1.11      1.12

 Program statistics:

 Available memory in ccsd:               999999644
 Min. memory needed in ccsd:                356281
 Max. memory used in ccsd:                  442401
 Max. memory used in cckext:                403930 (18 integral passes)



 **********************************************************************************************************************************
 DATASETS  * FILE   NREC   LENGTH (MB)   RECORD NAMES
              1      20       29.88       500      610      700      900      950      970     1000      129      960     1100   
                                          VAR    BASINP    GEOM    SYMINP    ZMAT    AOBASIS   BASIS     P2S    ABASIS      S 
                                         1400     1410     1200     1210     1080     1600     1650     1300     1700     1380   
                                           T        V       H0       H01     AOSYM     SMH    MOLCAS    ERIS     OPER     JKOP   

              2       3        0.51       700     1000     2100   
                                         GEOM     BASIS     RHF  

 PROGRAMS   *        TOTAL   CCSD(T)       RHF       INT
 CPU TIMES  *         4.70      3.85      0.36      0.44
 REAL TIME  *         5.16 SEC
 DISK USED  *        77.22 MB      
 GA USED    *         0.00 MB       (max)       0.00 MB       (current)
 **********************************************************************************************************************************

        CCSD(T)         RHF-SCF 
    -80.77473382    -80.39668471
 **********************************************************************************************************************************
 Variable memory released
