
 Primary working directories    : /tmp/662446.69.gen4.q
 Secondary working directories  : /tmp/662446.69.gen4.q
 Wavefunction directory         : /home/vulcan/mel64643/wfu/
 Main file repository           : /tmp/662446.69.gen4.q/

 ARCHNAME  : Linux/x86_64
 FC        : /opt/intel/compilers_and_libraries_2016.1.150/linux/bin/intel64/ifort
 FCVERSION : 16.0.1
 BLASLIB   : -mkl
 id        : ccgc

 Nodes     nprocs
 n051         1
 ga_uses_ma=false, calling ma_init with nominal heap.
 GA-space will be limited to   8.0 MW (determined by -G option)

 Using customized tuning parameters: mindgm=10; mindgv=16; mindgc=4; mindgr=1; noblas=0; mincuda=1000; minvec=7
 default implementation of scratch files=df  

 ***,Optimization of min3
 memory,1000,m
 gthresh,energy=1.0d-12,orbital=1.0d-10,oneint=1.0d-16,twoint=1.0d-16,optgrad=1.0d-6,compress=1.0d-13
 geomtyp=xyz
 
 
 
  bohr
  geometry = {
  C   -0.0001320098    0.0036281438    1.6744811125
  H    0.0015854991   -1.7269408796    2.7912032195
  H   -0.0016620070    1.7247259458    2.7919990656
  C    1.2271738579   -0.0040424500   -0.9108165013
  C   -1.2267561252    0.0028180772   -0.9110010704
  H    2.9879151573    0.0003842168   -1.9289216437
  H   -2.9881243724   -0.0005730540   -1.9287081120
 }
 
 basis=cc-pvdz
 {rhf;maxit,200}
 {ccsd(t);maxit,200}

 Variables initialized (661), CPU time= 0.00 sec
 Commands  initialized (458), CPU time= 0.01 sec, 486 directives.
 Default parameters read. Elapsed time= 0.05 sec

 Checking input...
 Passed
1


                                         ***  PROGRAM SYSTEM MOLPRO  ***
                         Copyright, University College Cardiff Consultants Limited, 2008

                                    Version 2010.1 linked May 16 2016 07:17:05


 **********************************************************************************************************************************
 LABEL *   Optimization of min3                                                          
 Linux-4.4.3/n051(x86_64) 64 bit mpp version                                             DATE: 18-Mar-22          TIME: 17:54:16  
 **********************************************************************************************************************************

 SHA1:             9e8077add272b0f3cad6f7df79ec5211205f459d
 **********************************************************************************************************************************

 THRESHOLDS:

 ZERO    =  1.00D-12  ONEINT  =  1.00D-16  TWOINT  =  1.00D-16  PREFAC  =  1.00D-14  LOCALI  =  1.00D-09  EORDER  =  1.00D-04
 ENERGY  =  1.00D-12  ETEST   =  0.00D+00  EDENS   =  0.00D+00  THRDEDEF=  1.00D-06  GRADIENT=  1.00D-02  STEP    =  1.00D-03
 ORBITAL =  1.00D-10  CIVEC   =  1.00D-05  COEFF   =  1.00D-04  PRINTCI =  5.00D-02  PUNCHCI =  9.90D+01  OPTGRAD =  1.00D-06
 OPTENERG=  1.00D-06  OPTSTEP =  3.00D-04  THRGRAD =  1.00D-10  COMPRESS=  1.00D-13  VARMIN  =  1.00D-07  VARMAX  =  1.00D-03
 THRDOUB =  0.00D+00  THRDIV  =  1.00D-05  THRRED  =  1.00D-07  THRPSP  =  1.00D+00  THRDC   =  1.00D-10  THRCS   =  1.00D-10
 THRNRM  =  1.00D-08  THREQ   =  0.00D+00  THRDE   =  1.00D+00  THRREF  =  1.00D-05  SPARFAC =  1.00D+00  THRDLP  =  1.00D-07
 THRDIA  =  1.00D-10  THRDLS  =  1.00D-07  THRGPS  =  0.00D+00  THRKEX  =  0.00D+00  THRDIS  =  2.00D-01  THRVAR  =  1.00D-10
 THRLOC  =  1.00D-06  THRGAP  =  1.00D-06  THRLOCT = -1.00D+00  THRGAPT = -1.00D+00  THRORB  =  1.00D-06  THRMLTP =  0.00D+00
 THRCPQCI=  1.00D-10  KEXTA   =  0.00D+00  THRCOARS=  0.00D+00  SYMTOL  =  1.00D-06  GRADTOL =  1.00D-06  THROVL  =  1.00D-08
 THRORTH =  1.00D-08  GRID    =  1.00D-06  GRIDMAX =  1.00D-03  DTMAX   =  0.00D+00

 SETTING GEOMTYP        =    XYZ
 ZUNIT=BOHR
 

 Variable memory set to 1000000000 words,  buffer space   230000 words

 SETTING BASIS          =    CC-PVDZ


 Recomputing integrals since basis changed


 Using spherical harmonics

 Library entry C      S cc-pVDZ              selected for orbital group  1
 Library entry C      P cc-pVDZ              selected for orbital group  1
 Library entry C      D cc-pVDZ              selected for orbital group  1
 Library entry H      S cc-pVDZ              selected for orbital group  2
 Library entry H      P cc-pVDZ              selected for orbital group  2

1PROGRAM * SEWARD (Integral evaluation for generally contracted gaussian basis sets)     Author: Roland Lindh, 1990

 Geometry written to block  1 of record 700


 Point group  C1  



 ATOMIC COORDINATES

 NR  ATOM    CHARGE       X              Y              Z

   1  C       6.00   -0.000132010    0.003628144    1.674481113
   2  H       1.00    0.001585499   -1.726940880    2.791203219
   3  H       1.00   -0.001662007    1.724725946    2.791999066
   4  C       6.00    1.227173858   -0.004042450   -0.910816501
   5  C       6.00   -1.226756125    0.002818077   -0.911001070
   6  H       1.00    2.987915157    0.000384217   -1.928921644
   7  H       1.00   -2.988124372   -0.000573054   -1.928708112

 Bond lengths in Bohr (Angstrom)

 1-2  2.059597135  1-3  2.052078546  1-4  2.861835474  1-5  2.861699756  4-5  2.453939580
     ( 1.089891864)     ( 1.085913198)     ( 1.514418109)     ( 1.514346290)     ( 1.298568898)

 4-6  2.033904521  5-7  2.034246107
     ( 1.076295918)     ( 1.076476677)

 Bond angles

  1-4-5   64.60916888   1-4-6  145.43137140   1-5-4   64.61489445   1-5-7  145.39992330

  2-1-3  114.17032097   2-1-4  119.15680748   2-1-5  119.33985838   3-1-4  119.63836154

  3-1-5  119.46767563   4-1-5   50.77593667   4-5-7  149.98420945   5-4-6  149.95678555

 NUCLEAR CHARGE:                   22
 NUMBER OF PRIMITIVE AOS:         109
 NUMBER OF SYMMETRY AOS:          106
 NUMBER OF CONTRACTIONS:           62   (  62A   )
 NUMBER OF CORE ORBITALS:           3   (   3A   )
 NUMBER OF VALENCE ORBITALS:       16   (  16A   )


 NUCLEAR REPULSION ENERGY   63.66506086


 Eigenvalues of metric

         1 0.170E-02 0.415E-02 0.174E-01 0.194E-01 0.239E-01 0.255E-01 0.334E-01 0.367E-01


 Contracted 2-electron integrals neglected if value below      1.0D-16
 AO integral compression algorithm  1   Integral accuracy      1.0D-16

     18.350 MB (compressed) written to integral file (100.0%)

     Node minimum: 18.350 MB, node maximum: 18.350 MB


 NUMBER OF SORTED TWO-ELECTRON INTEGRALS:    1908081.     BUFFER LENGTH:  32768
 NUMBER OF SEGMENTS:   1  SEGMENT LENGTH:    1908081      RECORD LENGTH: 524288

 Memory used in sort:       2.47 MW

 SORT1 READ     2265018. AND WROTE     1893330. INTEGRALS IN      6 RECORDS. CPU TIME:     0.02 SEC, REAL TIME:     0.03 SEC
 SORT2 READ     1893330. AND WROTE     1908081. INTEGRALS IN     70 RECORDS. CPU TIME:     0.03 SEC, REAL TIME:     0.04 SEC

 FILE SIZES:   FILE 1:    18.3 MBYTE,  FILE 4:    25.2 MBYTE,   TOTAL:     43.5 MBYTE

 OPERATOR DM      FOR CENTER  0  COORDINATES:    0.000000    0.000000    0.000000


 **********************************************************************************************************************************
 DATASETS  * FILE   NREC   LENGTH (MB)   RECORD NAMES
              1      19       18.30       500      610      700      900      950      970     1000      129      960     1100   
                                          VAR    BASINP    GEOM    SYMINP    ZMAT    AOBASIS   BASIS     P2S    ABASIS      S 
                                         1400     1410     1200     1210     1080     1600     1650     1300     1700   
                                           T        V       H0       H01     AOSYM     SMH    MOLCAS    ERIS     OPER   

 PROGRAMS   *        TOTAL       INT
 CPU TIMES  *         0.37      0.33
 REAL TIME  *         0.59 SEC
 DISK USED  *        62.47 MB      
 GA USED    *         0.00 MB       (max)       0.00 MB       (current)
 **********************************************************************************************************************************

1PROGRAM * RHF-SCF (CLOSED SHELL)       Authors: W. Meyer, H.-J. Werner


 NUMBER OF ELECTRONS:      11+   11-    SPACE SYMMETRY=1    SPIN SYMMETRY: Singlet 
 CONVERGENCE THRESHOLDS:    1.00E-10 (Density)    1.00E-13 (Energy)
 MAX. NUMBER OF ITERATIONS:      200
 INTERPOLATION TYPE:            DIIS
 INTERPOLATION STEPS:              2 (START)      1 (STEP)
 LEVEL SHIFTS:                  0.00 (CLOSED)  0.00 (OPEN) 



 Orbital guess generated from atomic densities. Full valence occupancy:   19

 Molecular orbital dump at record        2100.2

 ITERATION    DDIFF          GRAD             ENERGY        2-EL.EN.            DIPOLE MOMENTS         DIIS
    1      0.000D+00      0.000D+00      -115.81245262    203.583196   -0.00017   -0.00046   -0.29944    0
    2      0.000D+00      0.507D-02      -115.83057792    202.469140   -0.00009    0.00154   -0.20411    1
    3      0.105D-01      0.159D-02      -115.83220423    203.088901   -0.00011    0.00142   -0.22448    2
    4      0.349D-02      0.597D-03      -115.83245967    202.914317   -0.00009    0.00172   -0.20071    3
    5      0.111D-02      0.899D-04      -115.83246854    202.917193   -0.00009    0.00175   -0.20087    4
    6      0.274D-03      0.241D-04      -115.83246926    202.921229   -0.00009    0.00176   -0.19891    5
    7      0.705D-04      0.876D-05      -115.83246934    202.919890   -0.00009    0.00176   -0.19880    6
    8      0.235D-04      0.170D-05      -115.83246934    202.919963   -0.00009    0.00176   -0.19870    7
    9      0.573D-05      0.292D-06      -115.83246934    202.919966   -0.00009    0.00176   -0.19869    7
   10      0.983D-06      0.601D-07      -115.83246934    202.919968   -0.00009    0.00176   -0.19868    6
   11      0.268D-06      0.128D-07      -115.83246934    202.919969   -0.00009    0.00176   -0.19868    6
   12      0.442D-07      0.599D-08      -115.83246934    202.919969   -0.00009    0.00176   -0.19868    7
   13      0.115D-07      0.226D-08      -115.83246934    202.919969   -0.00009    0.00176   -0.19868    6
   14      0.526D-08      0.842D-09      -115.83246934    202.919969   -0.00009    0.00176   -0.19868    7
   15      0.288D-08      0.208D-09      -115.83246934    202.919969   -0.00009    0.00176   -0.19868    7
   16      0.503D-09      0.701D-10      -115.83246934    202.919969   -0.00009    0.00176   -0.19868    8
   17      0.190D-09      0.156D-10      -115.83246934    202.919969   -0.00009    0.00176   -0.19868    8
   18      0.396D-10      0.520D-11      -115.83246934    202.919969   -0.00009    0.00176   -0.19868    8
   19      0.153D-10      0.173D-11      -115.83246934    202.919969   -0.00009    0.00176   -0.19868    0

 Final occupancy:  11

 !RHF STATE 1.1 Energy               -115.832469339922
 Nuclear energy                        63.66506086
 One-electron energy                 -280.95751455
 Two-electron energy                  101.45998435
 Virial quotient                       -1.00179417
 !RHF STATE 1.1 Dipole moment          -0.00008627     0.00176144    -0.19868160
 Dipole moment /Debye                  -0.00021926     0.00447685    -0.50496519

 Orbital energies:

         1.1          2.1          3.1          4.1          5.1          6.1          7.1          8.1          9.1         10.1
    -11.250675   -11.248604   -11.244865    -1.153664    -0.822963    -0.765402    -0.677219    -0.594006    -0.488744    -0.417049

        11.1         12.1         13.1
     -0.355581     0.167760     0.215504


 **********************************************************************************************************************************
 DATASETS  * FILE   NREC   LENGTH (MB)   RECORD NAMES
              1      19       18.30       500      610      700      900      950      970     1000      129      960     1100   
                                          VAR    BASINP    GEOM    SYMINP    ZMAT    AOBASIS   BASIS     P2S    ABASIS      S 
                                         1400     1410     1200     1210     1080     1600     1650     1300     1700   
                                           T        V       H0       H01     AOSYM     SMH    MOLCAS    ERIS     OPER   

              2       3        0.44       700     1000     2100   
                                         GEOM     BASIS     RHF  

 PROGRAMS   *        TOTAL       RHF       INT
 CPU TIMES  *         0.61      0.24      0.33
 REAL TIME  *         0.89 SEC
 DISK USED  *        62.47 MB      
 GA USED    *         0.00 MB       (max)       0.00 MB       (current)
 **********************************************************************************************************************************


1PROGRAM * CCSD (Closed-shell coupled cluster)     Authors: C. Hampel, H.-J. Werner, 1991, M. Deegan, P.J. Knowles, 1992


 Convergence thresholds:  THRVAR = 1.00D-08  THRDEN = 1.00D-12

 CCSD(T)     terms to be evaluated (factor= 1.000)


 Number of core orbitals:           3 (   3 )
 Number of closed-shell orbitals:   8 (   8 )
 Number of external orbitals:      51 (  51 )

 Molecular orbitals read from record     2100.2  Type=RHF/CANONICAL (state 1.1)

 Number of N-1 electron functions:               8
 Number of N-2 electron functions:              36
 Number of singly external CSFs:               408
 Number of doubly external CSFs:             83436
 Total number of CSFs:                       83845

 Length of J-op  integral file:               0.00 MB
 Length of K-op  integral file:               0.30 MB
 Length of 3-ext integral record:             0.00 MB

 Memory could be reduced to 1.93 Mwords without degradation in triples

 Integral transformation finished. Total CPU:   0.05 sec, npass=  1  Memory used:   1.45 MW

 Reference energy:                   -115.83246934

 MP2 singlet pair energy:              -0.25570120
 MP2 triplet pair energy:              -0.14556496
 MP2 correlation energy:               -0.40126615
 MP2 total energy:                   -116.23373549

 SCS-MP2 correlation energy:           -0.39741519   (PS=  1.200000  PT=  0.333333)
 SCS-MP2 total energy:               -116.22988453

 ITER.      SQ.NORM     CORR.ENERGY   TOTAL ENERGY   ENERGY CHANGE        DEN1      VAR(S)    VAR(P)  DIIS     TIME
   1      1.16376888    -0.42755770  -116.26002704    -0.02629155    -0.01452894  0.13D-02  0.29D-02  1  1     0.15
   2      1.17853158    -0.43074620  -116.26321554    -0.00318850    -0.01245948  0.29D-04  0.36D-03  2  2     0.25
   3      1.18299945    -0.43092932  -116.26339866    -0.00018312    -0.00208969  0.69D-05  0.36D-04  3  3     0.36
   4      1.18487499    -0.43100812  -116.26347746    -0.00007881    -0.00057006  0.36D-06  0.32D-05  4  4     0.46
   5      1.18528556    -0.43101415  -116.26348349    -0.00000602    -0.00008870  0.34D-07  0.29D-06  5  5     0.57
   6      1.18535120    -0.43101118  -116.26348052     0.00000296    -0.00000910  0.38D-08  0.17D-07  6  6     0.68
   7      1.18535932    -0.43101144  -116.26348078    -0.00000026     0.00000075  0.44D-09  0.12D-08  6  2     0.79
   8      1.18536066    -0.43101132  -116.26348066     0.00000012    -0.00000004  0.33D-10  0.94D-10  6  1     0.90
   9      1.18536095    -0.43101129  -116.26348063     0.00000003    -0.00000009  0.63D-11  0.79D-11  6  3     1.00
  10      1.18536083    -0.43101130  -116.26348064    -0.00000001     0.00000010  0.41D-12  0.63D-12  6  4     1.11
  11      1.18536074    -0.43101131  -116.26348065    -0.00000001     0.00000005  0.75D-13  0.74D-13  6  5     1.21
  12      1.18536068    -0.43101131  -116.26348065    -0.00000000     0.00000002  0.66D-14  0.14D-13  6  6     1.32
  13      1.18536065    -0.43101131  -116.26348065    -0.00000000     0.00000001  0.76D-15  0.26D-14  6  2     1.42
  14      1.18536064    -0.43101131  -116.26348065    -0.00000000     0.00000000  0.98D-16  0.30D-15  6  1     1.53
  15      1.18536064    -0.43101131  -116.26348065    -0.00000000     0.00000000  0.28D-16  0.33D-16  6  3     1.63
  16      1.18536064    -0.43101131  -116.26348065    -0.00000000     0.00000000  0.63D-17  0.42D-17  6  4     1.74
  17      1.18536064    -0.43101131  -116.26348065    -0.00000000     0.00000000  0.15D-17  0.60D-18  6  5     1.85
  18      1.18536064    -0.43101131  -116.26348065    -0.00000000     0.00000000  0.24D-18  0.93D-19  6  6     1.95
  19      1.18536064    -0.43101131  -116.26348065     0.00000000    -0.00000000  0.41D-19  0.18D-19  6  2     2.05
  20      1.18536064    -0.43101131  -116.26348065     0.00000000    -0.00000000  0.45D-20  0.35D-20  6  1     2.16
  21      1.18536064    -0.43101131  -116.26348065     0.00000000    -0.00000000  0.39D-21  0.64D-21  6  3     2.27

 Norm of t1 vector:      0.05136829      S-energy:     0.00000000      T1 diagnostic:  0.00908072
                                                                       D1 diagnostic:  0.02704608

 Doubles amplitudes (print threshold =  0.500E-01):

         I         J         SYM. A    SYM. B    A         B      T(IJ, AB)

         8         8         1         1         1         1     -0.10629396


 Total CPU time for triples:      0.68 sec


 RESULTS
 =======

  Reference energy                   -115.832469339923
  CCSD singlet pair energy             -0.301086662756
  CCSD triplet pair energy             -0.129924649448
  CCSD correlation energy              -0.431011312204

  Triples (T) contribution             -0.016205327275
  Total correlation energy             -0.447216639479

  CCSD total energy                  -116.263480652127
  CCSD[T] energy                     -116.280038622117
  CCSD-T energy                      -116.279512259987
 !CCSD(T) total energy               -116.279685979402

 Timing summary (sec):

 STEP                 CPU(USER)    SYS     CPU(TOT)    WALL
 Transformation          0.05      0.01      0.06      0.07
 CCSD iterations         2.22      0.12      2.34      2.35
 Triples                 0.68      0.01      0.69      0.71

 Program statistics:

 Available memory in ccsd:               999999644
 Min. memory needed in ccsd:                278748
 Max. memory used in ccsd:                  341544
 Max. memory used in cckext:                342982 (21 integral passes)



 **********************************************************************************************************************************
 DATASETS  * FILE   NREC   LENGTH (MB)   RECORD NAMES
              1      20       24.38       500      610      700      900      950      970     1000      129      960     1100   
                                          VAR    BASINP    GEOM    SYMINP    ZMAT    AOBASIS   BASIS     P2S    ABASIS      S 
                                         1400     1410     1200     1210     1080     1600     1650     1300     1700     1380   
                                           T        V       H0       H01     AOSYM     SMH    MOLCAS    ERIS     OPER     JKOP   

              2       3        0.44       700     1000     2100   
                                         GEOM     BASIS     RHF  

 PROGRAMS   *        TOTAL   CCSD(T)       RHF       INT
 CPU TIMES  *         3.57      2.96      0.24      0.33
 REAL TIME  *         4.04 SEC
 DISK USED  *        62.47 MB      
 GA USED    *         0.00 MB       (max)       0.00 MB       (current)
 **********************************************************************************************************************************

        CCSD(T)         RHF-SCF 
   -116.27968598   -115.83246934
 **********************************************************************************************************************************
 Variable memory released
