
 Primary working directories    : /tmp/943448.139.gen5.q
 Secondary working directories  : /tmp/943448.139.gen5.q
 Wavefunction directory         : /home/vulcan/mel64643/wfu/
 Main file repository           : /tmp/943448.139.gen5.q/

 ARCHNAME  : Linux/x86_64
 FC        : /opt/intel/compilers_and_libraries_2016.1.150/linux/bin/intel64/ifort
 FCVERSION : 16.0.1
 BLASLIB   : -mkl
 id        : ccgc

 Nodes     nprocs
 n073         1
 ga_uses_ma=false, calling ma_init with nominal heap.
 GA-space will be limited to   8.0 MW (determined by -G option)

 Using customized tuning parameters: mindgm=10; mindgv=16; mindgc=4; mindgr=1; noblas=0; mincuda=1000; minvec=7
 default implementation of scratch files=df  

 ***,Optimization of nh3_nitrosmethane
 memory,1000,m
 gthresh,energy=1.0d-12,orbital=1.0d-10,oneint=1.0d-16,twoint=1.0d-16,optgrad=1.0d-6,compress=1.0d-13
 geomtyp=xyz
 
 bohr
 geometry = {
  N   -5.2254709666   -0.1821488412   -0.0021385759
  H   -6.2909327124    0.2300975033   -1.5345546736
  H   -3.7568689101    1.0558887536    0.0031835546
  H   -6.3068313399    0.2294029027    1.5370178081
  H   -0.9248957318   -2.3992041521    0.0004426345
  H    1.8814872007   -3.4345566573   -1.6667968986
  H    1.8826394652   -3.4332015785    1.6665828071
  C    1.1356152701   -2.4695855950   -0.0002410203
  N    2.2664363266    0.0980798851   -0.0016757186
  O    0.7029398882    1.7822847884   -0.0018199173
 }
 
 basis=aug-cc-pvdz
 {rhf;maxit,200}
 {ccsd(t);maxit,200}

 Variables initialized (661), CPU time= 0.00 sec
 Commands  initialized (458), CPU time= 0.00 sec, 486 directives.
 Default parameters read. Elapsed time= 0.05 sec

 Checking input...
 Passed
1


                                         ***  PROGRAM SYSTEM MOLPRO  ***
                         Copyright, University College Cardiff Consultants Limited, 2008

                                    Version 2010.1 linked May 16 2016 07:17:05


 **********************************************************************************************************************************
 LABEL *   Optimization of nh3_nitrosmethane                                             
 Linux-4.4.3/n073(x86_64) 64 bit mpp version                                             DATE: 26-Oct-23          TIME: 11:59:04  
 **********************************************************************************************************************************

 SHA1:             9e8077add272b0f3cad6f7df79ec5211205f459d
 **********************************************************************************************************************************

 THRESHOLDS:

 ZERO    =  1.00D-12  ONEINT  =  1.00D-16  TWOINT  =  1.00D-16  PREFAC  =  1.00D-14  LOCALI  =  1.00D-09  EORDER  =  1.00D-04
 ENERGY  =  1.00D-12  ETEST   =  0.00D+00  EDENS   =  0.00D+00  THRDEDEF=  1.00D-06  GRADIENT=  1.00D-02  STEP    =  1.00D-03
 ORBITAL =  1.00D-10  CIVEC   =  1.00D-05  COEFF   =  1.00D-04  PRINTCI =  5.00D-02  PUNCHCI =  9.90D+01  OPTGRAD =  1.00D-06
 OPTENERG=  1.00D-06  OPTSTEP =  3.00D-04  THRGRAD =  1.00D-10  COMPRESS=  1.00D-13  VARMIN  =  1.00D-07  VARMAX  =  1.00D-03
 THRDOUB =  0.00D+00  THRDIV  =  1.00D-05  THRRED  =  1.00D-07  THRPSP  =  1.00D+00  THRDC   =  1.00D-10  THRCS   =  1.00D-10
 THRNRM  =  1.00D-08  THREQ   =  0.00D+00  THRDE   =  1.00D+00  THRREF  =  1.00D-05  SPARFAC =  1.00D+00  THRDLP  =  1.00D-07
 THRDIA  =  1.00D-10  THRDLS  =  1.00D-07  THRGPS  =  0.00D+00  THRKEX  =  0.00D+00  THRDIS  =  2.00D-01  THRVAR  =  1.00D-10
 THRLOC  =  1.00D-06  THRGAP  =  1.00D-06  THRLOCT = -1.00D+00  THRGAPT = -1.00D+00  THRORB  =  1.00D-06  THRMLTP =  0.00D+00
 THRCPQCI=  1.00D-10  KEXTA   =  0.00D+00  THRCOARS=  0.00D+00  SYMTOL  =  1.00D-06  GRADTOL =  1.00D-06  THROVL  =  1.00D-08
 THRORTH =  1.00D-08  GRID    =  1.00D-06  GRIDMAX =  1.00D-03  DTMAX   =  0.00D+00

 SETTING GEOMTYP        =    XYZ
 ZUNIT=BOHR
 

 Variable memory set to 1000000000 words,  buffer space   230000 words

 SETTING BASIS          =    AUG-CC-PVDZ


 Recomputing integrals since basis changed


 Using spherical harmonics

 Library entry N      S aug-cc-pVDZ          selected for orbital group  1
 Library entry N      P aug-cc-pVDZ          selected for orbital group  1
 Library entry N      D aug-cc-pVDZ          selected for orbital group  1
 Library entry H      S aug-cc-pVDZ          selected for orbital group  2
 Library entry H      P aug-cc-pVDZ          selected for orbital group  2
 Library entry C      S aug-cc-pVDZ          selected for orbital group  3
 Library entry C      P aug-cc-pVDZ          selected for orbital group  3
 Library entry C      D aug-cc-pVDZ          selected for orbital group  3
 Library entry O      S aug-cc-pVDZ          selected for orbital group  5
 Library entry O      P aug-cc-pVDZ          selected for orbital group  5
 Library entry O      D aug-cc-pVDZ          selected for orbital group  5

1PROGRAM * SEWARD (Integral evaluation for generally contracted gaussian basis sets)     Author: Roland Lindh, 1990

 Geometry written to block  1 of record 700


 Point group  C1  



 ATOMIC COORDINATES

 NR  ATOM    CHARGE       X              Y              Z

   1  N       7.00   -5.225470967   -0.182148841   -0.002138576
   2  H       1.00   -6.290932712    0.230097503   -1.534554674
   3  H       1.00   -3.756868910    1.055888754    0.003183555
   4  H       1.00   -6.306831340    0.229402903    1.537017808
   5  H       1.00   -0.924895732   -2.399204152    0.000442635
   6  H       1.00    1.881487201   -3.434556657   -1.666796899
   7  H       1.00    1.882639465   -3.433201578    1.666582807
   8  C       6.00    1.135615270   -2.469585595   -0.000241020
   9  N       7.00    2.266436327    0.098079885   -0.001675719
  10  O       8.00    0.702939888    1.782284788   -0.001819917

 Bond lengths in Bohr (Angstrom)

 1-2  1.911401286  1-3  1.920822067  1-4  1.925543422  5-8  2.061712784  6-8  2.065164057
     ( 1.011469998)     ( 1.016455260)     ( 1.018953694)     ( 1.091011417)     ( 1.092837752)

  7- 8  2.065164057   8- 9  2.805648648   9-10  2.298057286
       ( 1.092837752)       ( 1.484685321)       ( 1.216079541)

 Bond angles

  2-1-3  106.82199789   2-1-4  106.36211817   3-1-4  106.82199779   5-8-6  112.15889785

  5-8-7  112.15889785   5-8-9  111.81278752   6-8-7  107.61735055   6-8-9  106.35838670

  7- 8- 9  106.35838670   8- 9-10  113.35946297

 NUCLEAR CHARGE:                   34
 NUMBER OF PRIMITIVE AOS:         214
 NUMBER OF SYMMETRY AOS:          206
 NUMBER OF CONTRACTIONS:          146   ( 146A   )
 NUMBER OF CORE ORBITALS:           4   (   4A   )
 NUMBER OF VALENCE ORBITALS:       22   (  22A   )


 NUCLEAR REPULSION ENERGY  117.38258042


 Eigenvalues of metric

         1 0.324E-03 0.518E-03 0.621E-03 0.674E-03 0.106E-02 0.118E-02 0.126E-02 0.186E-02


 Contracted 2-electron integrals neglected if value below      1.0D-16
 AO integral compression algorithm  1   Integral accuracy      1.0D-16

     486.539 MB (compressed) written to integral file ( 90.8%)

     Node minimum: 486.539 MB, node maximum: 486.539 MB


 NUMBER OF SORTED TWO-ELECTRON INTEGRALS:   57582546.     BUFFER LENGTH:  32768
 NUMBER OF SEGMENTS:   4  SEGMENT LENGTH:   15999503      RECORD LENGTH: 524288

 Memory used in sort:      16.56 MW

 SORT1 READ    67015859. AND WROTE    57252782. INTEGRALS IN    166 RECORDS. CPU TIME:     0.70 SEC, REAL TIME:     1.05 SEC
 SORT2 READ    57252782. AND WROTE    57582546. INTEGRALS IN   1856 RECORDS. CPU TIME:     0.51 SEC, REAL TIME:     0.76 SEC

 FILE SIZES:   FILE 1:   428.0 MBYTE,  FILE 4:   696.3 MBYTE,   TOTAL:   1124.3 MBYTE

 OPERATOR DM      FOR CENTER  0  COORDINATES:    0.000000    0.000000    0.000000


 **********************************************************************************************************************************
 DATASETS  * FILE   NREC   LENGTH (MB)   RECORD NAMES
              1      19      428.27       500      610      700      900      950      970     1000      129      960     1100   
                                          VAR    BASINP    GEOM    SYMINP    ZMAT    AOBASIS   BASIS     P2S    ABASIS      S 
                                         1400     1410     1200     1210     1080     1600     1650     1300     1700   
                                           T        V       H0       H01     AOSYM     SMH    MOLCAS    ERIS     OPER   

 PROGRAMS   *        TOTAL       INT
 CPU TIMES  *         3.72      3.68
 REAL TIME  *         4.79 SEC
 DISK USED  *         1.61 GB      
 GA USED    *         0.00 MB       (max)       0.00 MB       (current)
 **********************************************************************************************************************************

1PROGRAM * RHF-SCF (CLOSED SHELL)       Authors: W. Meyer, H.-J. Werner


 NUMBER OF ELECTRONS:      17+   17-    SPACE SYMMETRY=1    SPIN SYMMETRY: Singlet 
 CONVERGENCE THRESHOLDS:    1.00E-10 (Density)    1.00E-13 (Energy)
 MAX. NUMBER OF ITERATIONS:      200
 INTERPOLATION TYPE:            DIIS
 INTERPOLATION STEPS:              2 (START)      1 (STEP)
 LEVEL SHIFTS:                  0.00 (CLOSED)  0.00 (OPEN) 



 Orbital guess generated from atomic densities. Full valence occupancy:   26

 Molecular orbital dump at record        2100.2

 ITERATION    DDIFF          GRAD             ENERGY        2-EL.EN.            DIPOLE MOMENTS         DIIS
    1      0.000D+00      0.000D+00      -224.96619618    393.074230    0.07513   -0.58318    0.00588    0
    2      0.000D+00      0.594D-02      -225.02699221    392.695005   -0.57506   -0.38773    0.00078    1
    3      0.111D-01      0.415D-02      -225.06088207    393.245429   -0.23063   -0.56567    0.00143    2
    4      0.480D-02      0.830D-03      -225.06314258    393.080321   -0.30862   -0.46825    0.00128    3
    5      0.121D-02      0.329D-03      -225.06356692    393.091996   -0.30626   -0.49799    0.00102    4
    6      0.540D-03      0.799D-04      -225.06360977    393.119459   -0.31171   -0.49506    0.00101    5
    7      0.180D-03      0.305D-04      -225.06361586    393.103243   -0.31334   -0.49511    0.00099    6
    8      0.747D-04      0.124D-04      -225.06361686    393.109691   -0.31435   -0.49502    0.00099    7
    9      0.285D-04      0.531D-05      -225.06361708    393.108561   -0.31463   -0.49472    0.00099    8
   10      0.160D-04      0.163D-05      -225.06361710    393.108268   -0.31472   -0.49454    0.00099    8
   11      0.483D-05      0.547D-06      -225.06361710    393.108375   -0.31474   -0.49445    0.00099    8
   12      0.162D-05      0.167D-06      -225.06361710    393.108338   -0.31474   -0.49442    0.00099    8
   13      0.580D-06      0.523D-07      -225.06361710    393.108332   -0.31474   -0.49442    0.00099    8
   14      0.145D-06      0.265D-07      -225.06361710    393.108335   -0.31474   -0.49442    0.00099    9
   15      0.650D-07      0.253D-08      -225.06361710    393.108335   -0.31474   -0.49442    0.00099    8
   16      0.624D-08      0.717D-09      -225.06361710    393.108335   -0.31474   -0.49442    0.00099    7
   17      0.216D-08      0.178D-09      -225.06361710    393.108335   -0.31474   -0.49442    0.00099    7
   18      0.458D-09      0.942D-10      -225.06361710    393.108335   -0.31474   -0.49442    0.00099    7
   19      0.233D-09      0.661D-10      -225.06361710    393.108335   -0.31474   -0.49442    0.00099    7
   20      0.257D-09      0.447D-10      -225.06361710    393.108335   -0.31474   -0.49442    0.00099    7
   21      0.377D-09      0.162D-10      -225.06361710    393.108335   -0.31474   -0.49442    0.00099    7
   22      0.159D-09      0.555D-11      -225.06361710    393.108335   -0.31474   -0.49442    0.00099    8
   23      0.201D-10      0.140D-11      -225.06361710    393.108335   -0.31474   -0.49442    0.00099    9
   24      0.684D-11      0.425D-12      -225.06361710    393.108335   -0.31474   -0.49442    0.00099    0

 Final occupancy:  17

 !RHF STATE 1.1 Energy               -225.063617103689
 Nuclear energy                       117.38258042
 One-electron energy                 -539.00036483
 Two-electron energy                  196.55416731
 Virial quotient                       -1.00217955
 !RHF STATE 1.1 Dipole moment          -0.31473823    -0.49441920     0.00099468
 Dipole moment /Debye                  -0.79993240    -1.25660594     0.00252805

 Orbital energies:

         1.1          2.1          3.1          4.1          5.1          6.1          7.1          8.1          9.1         10.1
    -20.640584   -15.714971   -15.548462   -11.270941    -1.515159    -1.140131    -1.076227    -0.862520    -0.691511    -0.676110

        11.1         12.1         13.1         14.1         15.1         16.1         17.1         18.1         19.1
     -0.636381    -0.625107    -0.623267    -0.555783    -0.534586    -0.428008    -0.406266     0.034986     0.046252


 **********************************************************************************************************************************
 DATASETS  * FILE   NREC   LENGTH (MB)   RECORD NAMES
              1      19      428.27       500      610      700      900      950      970     1000      129      960     1100   
                                          VAR    BASINP    GEOM    SYMINP    ZMAT    AOBASIS   BASIS     P2S    ABASIS      S 
                                         1400     1410     1200     1210     1080     1600     1650     1300     1700   
                                           T        V       H0       H01     AOSYM     SMH    MOLCAS    ERIS     OPER   

              2       3        0.86       700     1000     2100   
                                         GEOM     BASIS     RHF  

 PROGRAMS   *        TOTAL       RHF       INT
 CPU TIMES  *        14.98     11.26      3.68
 REAL TIME  *        17.41 SEC
 DISK USED  *         1.61 GB      
 GA USED    *         0.00 MB       (max)       0.00 MB       (current)
 **********************************************************************************************************************************


1PROGRAM * CCSD (Closed-shell coupled cluster)     Authors: C. Hampel, H.-J. Werner, 1991, M. Deegan, P.J. Knowles, 1992


 Convergence thresholds:  THRVAR = 1.00D-08  THRDEN = 1.00D-12

 CCSD(T)     terms to be evaluated (factor= 1.000)


 Number of core orbitals:           4 (   4 )
 Number of closed-shell orbitals:  13 (  13 )
 Number of external orbitals:     129 ( 129 )

 Molecular orbitals read from record     2100.2  Type=RHF/CANONICAL (state 1.1)

 Number of N-1 electron functions:              13
 Number of N-2 electron functions:              91
 Number of singly external CSFs:              1677
 Number of doubly external CSFs:           1407003
 Total number of CSFs:                     1408681

 Length of J-op  integral file:               0.00 MB
 Length of K-op  integral file:               1.50 MB
 Length of 3-ext integral record:             0.00 MB

 Memory could be reduced to 37.23 Mwords without degradation in triples

 Integral transformation finished. Total CPU:   2.54 sec, npass=  1  Memory used:  25.63 MW

 Reference energy:                   -225.06361710

 MP2 singlet pair energy:              -0.45130603
 MP2 triplet pair energy:              -0.26573473
 MP2 correlation energy:               -0.71704077
 MP2 total energy:                   -225.78065787

 SCS-MP2 correlation energy:           -0.70691330   (PS=  1.200000  PT=  0.333333)
 SCS-MP2 total energy:               -225.77053040

 ITER.      SQ.NORM     CORR.ENERGY   TOTAL ENERGY   ENERGY CHANGE        DEN1      VAR(S)    VAR(P)  DIIS     TIME
   1      1.24222312    -0.75078684  -225.81440394    -0.03374607    -0.00984065  0.53D-02  0.49D-02  1  1     7.43
   2      1.26408935    -0.75384469  -225.81746180    -0.00305785    -0.02116378  0.17D-03  0.87D-03  2  2    12.39
   3      1.27419510    -0.75455301  -225.81817011    -0.00070832    -0.00465131  0.12D-03  0.62D-04  3  3    17.35
   4      1.27838227    -0.75451742  -225.81813453     0.00003558    -0.00138456  0.11D-04  0.11D-04  4  4    22.33
   5      1.28006077    -0.75453546  -225.81815256    -0.00001804    -0.00036577  0.20D-05  0.17D-05  5  5    27.32
   6      1.28052842    -0.75450510  -225.81812220     0.00003036    -0.00005600  0.17D-06  0.34D-06  6  6    32.30
   7      1.28063393    -0.75450167  -225.81811877     0.00000343    -0.00000444  0.37D-07  0.92D-07  6  2    37.29
   8      1.28066106    -0.75450248  -225.81811958    -0.00000081    -0.00000066  0.53D-08  0.22D-07  6  1    42.29
   9      1.28066729    -0.75450183  -225.81811893     0.00000065     0.00000234  0.20D-08  0.33D-08  6  3    47.27
  10      1.28066193    -0.75450279  -225.81811989    -0.00000096     0.00000152  0.47D-09  0.64D-09  6  5    52.26
  11      1.28066132    -0.75450297  -225.81812007    -0.00000018     0.00000058  0.14D-09  0.68D-10  6  4    57.25
  12      1.28066035    -0.75450301  -225.81812012    -0.00000004     0.00000018  0.40D-10  0.13D-10  6  6    62.25
  13      1.28065970    -0.75450306  -225.81812017    -0.00000005     0.00000007  0.89D-11  0.35D-11  6  2    67.24
  14      1.28065919    -0.75450307  -225.81812017    -0.00000001     0.00000007  0.23D-11  0.78D-12  6  1    72.22
  15      1.28065889    -0.75450308  -225.81812019    -0.00000001     0.00000005  0.29D-12  0.20D-12  6  5    77.21
  16      1.28065874    -0.75450309  -225.81812019    -0.00000001     0.00000003  0.34D-13  0.30D-13  6  3    82.19
  17      1.28065869    -0.75450309  -225.81812019    -0.00000000     0.00000001  0.76D-14  0.71D-14  6  4    87.19
  18      1.28065868    -0.75450309  -225.81812020    -0.00000000     0.00000000  0.22D-14  0.22D-14  6  6    92.19
  19      1.28065867    -0.75450309  -225.81812020     0.00000000     0.00000000  0.73D-15  0.40D-15  6  2    97.18
  20      1.28065867    -0.75450309  -225.81812020     0.00000000     0.00000000  0.47D-15  0.94D-16  6  1   102.17
  21      1.28065867    -0.75450309  -225.81812020    -0.00000000     0.00000000  0.32D-15  0.38D-16  6  5   107.15
  22      1.28065867    -0.75450309  -225.81812020     0.00000000    -0.00000000  0.21D-15  0.25D-16  6  3   112.13
  23      1.28065867    -0.75450309  -225.81812020     0.00000000    -0.00000000  0.89D-16  0.17D-16  6  4   117.13
  24      1.28065867    -0.75450309  -225.81812020     0.00000000    -0.00000000  0.18D-16  0.71D-17  6  6   122.12
  25      1.28065867    -0.75450309  -225.81812020     0.00000000    -0.00000000  0.23D-17  0.18D-17  6  2   127.10
  26      1.28065867    -0.75450309  -225.81812020    -0.00000000     0.00000000  0.40D-18  0.45D-18  6  1   132.09
  27      1.28065867    -0.75450309  -225.81812020     0.00000000    -0.00000000  0.14D-18  0.11D-18  6  5   137.08
  28      1.28065867    -0.75450309  -225.81812020    -0.00000000    -0.00000000  0.27D-19  0.23D-19  6  6   142.05

 Norm of t1 vector:      0.11184434      S-energy:     0.00000000      T1 diagnostic:  0.01551002
                                                                       D1 diagnostic:  0.04952951

 Doubles amplitudes (print threshold =  0.500E-01):

         I         J         SYM. A    SYM. B    A         B      T(IJ, AB)

         7         7         1         1         7         7     -0.05235342
        11         7         1         1         7         7     -0.05296898
        11        11         1         1         7         7     -0.07522627


 Total CPU time for triples:     80.86 sec


 RESULTS
 =======

  Reference energy                   -225.063617103690
  CCSD singlet pair energy             -0.519375976869
  CCSD triplet pair energy             -0.235127115036
  CCSD correlation energy              -0.754503091905

  Triples (T) contribution             -0.026866761798
  Total correlation energy             -0.781369853703

  CCSD total energy                  -225.818120195595
  CCSD[T] energy                     -225.846616568899
  CCSD-T energy                      -225.844476251803
 !CCSD(T) total energy               -225.844986957393

 Timing summary (sec):

 STEP                 CPU(USER)    SYS     CPU(TOT)    WALL
 Transformation          2.61      0.25      2.86      2.87
 CCSD iterations       139.44      3.93    143.37    144.04
 Triples                80.86      1.56     82.42     82.43

 Program statistics:

 Available memory in ccsd:               999999224
 Min. memory needed in ccsd:               3720021
 Max. memory used in ccsd:                 4957023
 Max. memory used in cckext:               4136268 (28 integral passes)



 **********************************************************************************************************************************
 DATASETS  * FILE   NREC   LENGTH (MB)   RECORD NAMES
              1      20      564.55       500      610      700      900      950      970     1000      129      960     1100   
                                          VAR    BASINP    GEOM    SYMINP    ZMAT    AOBASIS   BASIS     P2S    ABASIS      S 
                                         1400     1410     1200     1210     1080     1600     1650     1300     1700     1380   
                                           T        V       H0       H01     AOSYM     SMH    MOLCAS    ERIS     OPER     JKOP   

              2       3        0.86       700     1000     2100   
                                         GEOM     BASIS     RHF  

 PROGRAMS   *        TOTAL   CCSD(T)       RHF       INT
 CPU TIMES  *       237.91    222.92     11.26      3.68
 REAL TIME  *       246.80 SEC
 DISK USED  *         1.61 GB      
 GA USED    *         0.00 MB       (max)       0.00 MB       (current)
 **********************************************************************************************************************************

        CCSD(T)         RHF-SCF 
   -225.84498696   -225.06361710
 **********************************************************************************************************************************
 Variable memory released
