
 Primary working directories    : /tmp/999602.646.gen6.q
 Secondary working directories  : /tmp/999602.646.gen6.q
 Wavefunction directory         : /home/vulcan/jj04645/wfu/
 Main file repository           : /tmp/999602.646.gen6.q/

 ARCHNAME  : Linux/x86_64
 FC        : /opt/intel/compilers_and_libraries_2016.1.150/linux/bin/intel64/ifort
 FCVERSION : 16.0.1
 BLASLIB   : -mkl
 id        : ccgc

 Nodes     nprocs
 n088         1
 ga_uses_ma=false, calling ma_init with nominal heap.
 GA-space will be limited to   8.0 MW (determined by -G option)

 Using customized tuning parameters: mindgm=10; mindgv=16; mindgc=4; mindgr=1; noblas=0; mincuda=1000; minvec=7
 default implementation of scratch files=df  

 ***,Optimization of 1,3-difluorobenzene
 memory,1000,m
 gthresh,energy=1.0d-12,orbital=1.0d-10,oneint=1.0d-16,twoint=1.0d-16,optgrad=1.0d-6,compress=1.0d-13
 geomtyp=xyz
 
 bohr
 geometry = {
  F    0.0002312619    4.4356136074   -1.7637835859
  C    0.0000347733    2.2456944876   -0.4814893254
  C   -0.0003468289   -2.3018837076    2.1447358198
  C   -0.0037806336   -0.0000013395   -1.8450360510
  C    0.0036275785    2.3018765436    2.1447331624
  C   -0.0031856239    0.0000013297    3.4361549006
  C    0.0026023452   -2.2456900593   -0.4814872217
  H   -0.0114146885   -0.0000066599   -3.8864177696
  H    0.0114912578    4.0939999011    3.1243664041
  H   -0.0108277396    0.0000091075    5.4811585105
  F    0.0119594743   -4.4355901746   -1.7637798130
  H   -0.0003911764   -4.0940230361    3.1243714048
 }
 
 basis=VDZ
 {rhf;maxit,200}
 {ccsd(t);maxit,200}

 Variables initialized (661), CPU time= 0.00 sec
 Commands  initialized (458), CPU time= 0.00 sec, 486 directives.
 Default parameters read. Elapsed time= 0.04 sec

 Checking input...
 Passed
1


                                         ***  PROGRAM SYSTEM MOLPRO  ***
                         Copyright, University College Cardiff Consultants Limited, 2008

                                    Version 2010.1 linked May 16 2016 07:17:05


 **********************************************************************************************************************************
 LABEL *   Optimization of 1,3-difluorobenzene                                           
 Linux-4.4.3/n088(x86_64) 64 bit mpp version                                             DATE: 07-Feb-24          TIME: 17:24:07  
 **********************************************************************************************************************************

 SHA1:             9e8077add272b0f3cad6f7df79ec5211205f459d
 **********************************************************************************************************************************

 THRESHOLDS:

 ZERO    =  1.00D-12  ONEINT  =  1.00D-16  TWOINT  =  1.00D-16  PREFAC  =  1.00D-14  LOCALI  =  1.00D-09  EORDER  =  1.00D-04
 ENERGY  =  1.00D-12  ETEST   =  0.00D+00  EDENS   =  0.00D+00  THRDEDEF=  1.00D-06  GRADIENT=  1.00D-02  STEP    =  1.00D-03
 ORBITAL =  1.00D-10  CIVEC   =  1.00D-05  COEFF   =  1.00D-04  PRINTCI =  5.00D-02  PUNCHCI =  9.90D+01  OPTGRAD =  1.00D-06
 OPTENERG=  1.00D-06  OPTSTEP =  3.00D-04  THRGRAD =  1.00D-10  COMPRESS=  1.00D-13  VARMIN  =  1.00D-07  VARMAX  =  1.00D-03
 THRDOUB =  0.00D+00  THRDIV  =  1.00D-05  THRRED  =  1.00D-07  THRPSP  =  1.00D+00  THRDC   =  1.00D-10  THRCS   =  1.00D-10
 THRNRM  =  1.00D-08  THREQ   =  0.00D+00  THRDE   =  1.00D+00  THRREF  =  1.00D-05  SPARFAC =  1.00D+00  THRDLP  =  1.00D-07
 THRDIA  =  1.00D-10  THRDLS  =  1.00D-07  THRGPS  =  0.00D+00  THRKEX  =  0.00D+00  THRDIS  =  2.00D-01  THRVAR  =  1.00D-10
 THRLOC  =  1.00D-06  THRGAP  =  1.00D-06  THRLOCT = -1.00D+00  THRGAPT = -1.00D+00  THRORB  =  1.00D-06  THRMLTP =  0.00D+00
 THRCPQCI=  1.00D-10  KEXTA   =  0.00D+00  THRCOARS=  0.00D+00  SYMTOL  =  1.00D-06  GRADTOL =  1.00D-06  THROVL  =  1.00D-08
 THRORTH =  1.00D-08  GRID    =  1.00D-06  GRIDMAX =  1.00D-03  DTMAX   =  0.00D+00

 SETTING GEOMTYP        =    XYZ
 ZUNIT=BOHR
 

 Variable memory set to 1000000000 words,  buffer space   230000 words

 SETTING BASIS          =    VDZ


 Recomputing integrals since basis changed


 Using spherical harmonics

 Library entry F      S cc-pVDZ              selected for orbital group  1
 Library entry F      P cc-pVDZ              selected for orbital group  1
 Library entry F      D cc-pVDZ              selected for orbital group  1
 Library entry C      S cc-pVDZ              selected for orbital group  2
 Library entry C      P cc-pVDZ              selected for orbital group  2
 Library entry C      D cc-pVDZ              selected for orbital group  2
 Library entry H      S cc-pVDZ              selected for orbital group  3
 Library entry H      P cc-pVDZ              selected for orbital group  3

1PROGRAM * SEWARD (Integral evaluation for generally contracted gaussian basis sets)     Author: Roland Lindh, 1990

 Geometry written to block  1 of record 700


 Point group  C1  



 ATOMIC COORDINATES

 NR  ATOM    CHARGE       X              Y              Z

   1  F       9.00    0.000231262    4.435613607   -1.763783586
   2  C       6.00    0.000034773    2.245694488   -0.481489325
   3  C       6.00   -0.000346829   -2.301883708    2.144735820
   4  C       6.00   -0.003780634   -0.000001340   -1.845036051
   5  C       6.00    0.003627578    2.301876544    2.144733162
   6  C       6.00   -0.003185624    0.000001330    3.436154901
   7  C       6.00    0.002602345   -2.245690059   -0.481487222
   8  H       1.00   -0.011414689   -0.000006660   -3.886417770
   9  H       1.00    0.011491258    4.093999901    3.124366404
  10  H       1.00   -0.010827740    0.000009108    5.481158511
  11  F       9.00    0.011959474   -4.435590175   -1.763779813
  12  H       1.00   -0.000391176   -4.094023036    3.124371405

 Bond lengths in Bohr (Angstrom)

 1-2  2.537720308  2-4  2.627246463  2-5  2.626825820  3-6  2.639402589  3-7  2.626825820
     ( 1.342903750)     ( 1.390278951)     ( 1.390056356)     ( 1.396711695)     ( 1.390056356)

  3-12  2.042412606   4- 7  2.627246463   4- 8  2.041395993   5- 6  2.639402589   5- 9  2.042412606
       ( 1.080798203)       ( 1.390278951)       ( 1.080260234)       ( 1.396711695)       ( 1.080798203)

  6-10  2.045017889   7-11  2.537720308
       ( 1.082176859)       ( 1.342903750)

 Bond angles

  1-2-4  118.38373680   1-2-5  119.12529265   2-4-7  117.46876857   2-4-8  121.26561572

  2- 5- 6  118.06785995   2- 5- 9  119.88805808   3- 6- 5  121.41234043   3- 6-10  119.29382979

  3- 7- 4  122.49096446   3- 7-11  119.12529569   4- 2- 5  122.49097056   4- 7-11  118.38373985

  5- 6-10  119.29382979   6- 3- 7  118.06785387   6- 3-12  122.04408501   6- 5- 9  122.04408197

  7- 3-12  119.88806112   7- 4- 8  121.26561571

 NUCLEAR CHARGE:                   58
 NUMBER OF PRIMITIVE AOS:         244
 NUMBER OF SYMMETRY AOS:          236
 NUMBER OF CONTRACTIONS:          132   ( 132A   )
 NUMBER OF CORE ORBITALS:           8   (   8A   )
 NUMBER OF VALENCE ORBITALS:       36   (  36A   )


 NUCLEAR REPULSION ENERGY  342.32114339


 Eigenvalues of metric

         1 0.395E-03 0.121E-02 0.170E-02 0.262E-02 0.306E-02 0.314E-02 0.125E-01 0.129E-01


 Contracted 2-electron integrals neglected if value below      1.0D-16
 AO integral compression algorithm  1   Integral accuracy      1.0D-16

     267.649 MB (compressed) written to integral file ( 80.2%)

     Node minimum: 267.649 MB, node maximum: 267.649 MB


 NUMBER OF SORTED TWO-ELECTRON INTEGRALS:   38531031.     BUFFER LENGTH:  32768
 NUMBER OF SEGMENTS:   3  SEGMENT LENGTH:   15998004      RECORD LENGTH: 524288

 Memory used in sort:      16.56 MW

 SORT1 READ    41687778. AND WROTE    37240554. INTEGRALS IN    108 RECORDS. CPU TIME:     0.39 SEC, REAL TIME:     0.67 SEC
 SORT2 READ    37240554. AND WROTE    38531031. INTEGRALS IN   1021 RECORDS. CPU TIME:     0.36 SEC, REAL TIME:     0.49 SEC

 FILE SIZES:   FILE 1:   247.4 MBYTE,  FILE 4:   453.0 MBYTE,   TOTAL:    700.4 MBYTE

 OPERATOR DM      FOR CENTER  0  COORDINATES:    0.000000    0.000000    0.000000


 **********************************************************************************************************************************
 DATASETS  * FILE   NREC   LENGTH (MB)   RECORD NAMES
              1      19      247.58       500      610      700      900      950      970     1000      129      960     1100   
                                          VAR    BASINP    GEOM    SYMINP    ZMAT    AOBASIS   BASIS     P2S    ABASIS      S 
                                         1400     1410     1200     1210     1080     1600     1650     1300     1700   
                                           T        V       H0       H01     AOSYM     SMH    MOLCAS    ERIS     OPER   

 PROGRAMS   *        TOTAL       INT
 CPU TIMES  *         3.48      3.45
 REAL TIME  *         4.21 SEC
 DISK USED  *       968.90 MB      
 GA USED    *         0.00 MB       (max)       0.00 MB       (current)
 **********************************************************************************************************************************

1PROGRAM * RHF-SCF (CLOSED SHELL)       Authors: W. Meyer, H.-J. Werner


 NUMBER OF ELECTRONS:      29+   29-    SPACE SYMMETRY=1    SPIN SYMMETRY: Singlet 
 CONVERGENCE THRESHOLDS:    1.00E-10 (Density)    1.00E-13 (Energy)
 MAX. NUMBER OF ITERATIONS:      200
 INTERPOLATION TYPE:            DIIS
 INTERPOLATION STEPS:              2 (START)      1 (STEP)
 LEVEL SHIFTS:                  0.00 (CLOSED)  0.00 (OPEN) 



 Orbital guess generated from atomic densities. Full valence occupancy:   44

 Molecular orbital dump at record        2100.2

 ITERATION    DDIFF          GRAD             ENERGY        2-EL.EN.            DIPOLE MOMENTS         DIIS
    1      0.000D+00      0.000D+00      -428.34388859    992.971861   -0.00348   -0.00002    0.47667    0
    2      0.000D+00      0.606D-02      -428.41802757    992.504144   -0.00291   -0.00001    0.92552    1
    3      0.124D-01      0.275D-02      -428.43188234    992.841892   -0.00295   -0.00001    0.62246    2
    4      0.395D-02      0.728D-03      -428.43343674    992.896950   -0.00297   -0.00001    0.73544    3
    5      0.148D-02      0.221D-03      -428.43357158    992.862220   -0.00298   -0.00001    0.70240    4
    6      0.372D-03      0.461D-04      -428.43357930    992.871433   -0.00297   -0.00001    0.70668    5
    7      0.980D-04      0.139D-04      -428.43358035    992.874754   -0.00297   -0.00001    0.70506    6
    8      0.332D-04      0.494D-05      -428.43358048    992.874087   -0.00297   -0.00001    0.70547    7
    9      0.110D-04      0.224D-05      -428.43358052    992.874485   -0.00297   -0.00001    0.70519    8
   10      0.594D-05      0.864D-06      -428.43358052    992.875038   -0.00297   -0.00001    0.70526    8
   11      0.268D-05      0.485D-06      -428.43358053    992.874952   -0.00297   -0.00001    0.70523    8
   12      0.165D-05      0.193D-06      -428.43358053    992.875048   -0.00297   -0.00001    0.70524    8
   13      0.945D-06      0.323D-07      -428.43358053    992.875075   -0.00297   -0.00001    0.70524    8
   14      0.106D-06      0.123D-07      -428.43358053    992.875069   -0.00297   -0.00001    0.70524    9
   15      0.417D-07      0.288D-08      -428.43358053    992.875069   -0.00297   -0.00001    0.70524    9
   16      0.866D-08      0.111D-08      -428.43358053    992.875070   -0.00297   -0.00001    0.70524    9
   17      0.345D-08      0.416D-09      -428.43358053    992.875070   -0.00297   -0.00001    0.70524    8
   18      0.123D-08      0.856D-10      -428.43358053    992.875070   -0.00297   -0.00001    0.70524    7
   19      0.222D-09      0.290D-10      -428.43358053    992.875070   -0.00297   -0.00001    0.70524    7
   20      0.774D-10      0.104D-10      -428.43358053    992.875070   -0.00297   -0.00001    0.70524    8
   21      0.196D-10      0.236D-11      -428.43358053    992.875070   -0.00297   -0.00001    0.70524    8
   22      0.500D-11      0.888D-12      -428.43358053    992.875070   -0.00297   -0.00001    0.70524    8
   23      0.286D-11      0.379D-12      -428.43358053    992.875070   -0.00297   -0.00001    0.70524    8
   24      0.162D-11      0.950D-13      -428.43358053    992.875070   -0.00297   -0.00001    0.70524    0

 Final occupancy:  29

 !RHF STATE 1.1 Energy               -428.433580526120
 Nuclear energy                       342.32114339
 One-electron energy                -1267.19225871
 Two-electron energy                  496.43753479
 Virial quotient                       -1.00060490
 !RHF STATE 1.1 Dipole moment          -0.00296887    -0.00000980     0.70523994
 Dipole moment /Debye                  -0.00754563    -0.00002491     1.79242373

 Orbital energies:

         1.1          2.1          3.1          4.1          5.1          6.1          7.1          8.1          9.1         10.1
    -26.321156   -26.321155   -11.349612   -11.349607   -11.272740   -11.258637   -11.256007   -11.255953    -1.639672    -1.639074

        11.1         12.1         13.1         14.1         15.1         16.1         17.1         18.1         19.1         20.1
     -1.178981    -1.046456    -1.037349    -0.874869    -0.865221    -0.774741    -0.741148    -0.704027    -0.702950    -0.696040

        21.1         22.1         23.1         24.1         25.1         26.1         27.1         28.1         29.1         30.1
     -0.685516    -0.668463    -0.622170    -0.586547    -0.555652    -0.532263    -0.513817    -0.360127    -0.348644     0.114070

        31.1
      0.131644


 **********************************************************************************************************************************
 DATASETS  * FILE   NREC   LENGTH (MB)   RECORD NAMES
              1      19      247.58       500      610      700      900      950      970     1000      129      960     1100   
                                          VAR    BASINP    GEOM    SYMINP    ZMAT    AOBASIS   BASIS     P2S    ABASIS      S 
                                         1400     1410     1200     1210     1080     1600     1650     1300     1700   
                                           T        V       H0       H01     AOSYM     SMH    MOLCAS    ERIS     OPER   

              2       3        0.82       700     1000     2100   
                                         GEOM     BASIS     RHF  

 PROGRAMS   *        TOTAL       RHF       INT
 CPU TIMES  *        10.41      6.93      3.45
 REAL TIME  *        11.76 SEC
 DISK USED  *       968.90 MB      
 GA USED    *         0.00 MB       (max)       0.00 MB       (current)
 **********************************************************************************************************************************


1PROGRAM * CCSD (Closed-shell coupled cluster)     Authors: C. Hampel, H.-J. Werner, 1991, M. Deegan, P.J. Knowles, 1992


 Convergence thresholds:  THRVAR = 1.00D-08  THRDEN = 1.00D-12

 CCSD(T)     terms to be evaluated (factor= 1.000)


 Number of core orbitals:           8 (   8 )
 Number of closed-shell orbitals:  21 (  21 )
 Number of external orbitals:     103 ( 103 )

 Molecular orbitals read from record     2100.2  Type=RHF/CANONICAL (state 1.1)

 Number of N-1 electron functions:              21
 Number of N-2 electron functions:             231
 Number of singly external CSFs:              2163
 Number of doubly external CSFs:           2340366
 Total number of CSFs:                     2342530

 Length of J-op  integral file:               0.00 MB
 Length of K-op  integral file:               1.24 MB
 Length of 3-ext integral record:             0.00 MB

 Memory could be reduced to 31.86 Mwords without degradation in triples

 Integral transformation finished. Total CPU:   2.07 sec, npass=  1  Memory used:  32.41 MW

 Reference energy:                   -428.43358053

 MP2 singlet pair energy:              -0.67265704
 MP2 triplet pair energy:              -0.46574851
 MP2 correlation energy:               -1.13840555
 MP2 total energy:                   -429.57198607

 SCS-MP2 correlation energy:           -1.09698752   (PS=  1.200000  PT=  0.333333)
 SCS-MP2 total energy:               -429.53056804

 ITER.      SQ.NORM     CORR.ENERGY   TOTAL ENERGY   ENERGY CHANGE        DEN1      VAR(S)    VAR(P)  DIIS     TIME
   1      1.36211676    -1.16814478  -429.60172531    -0.02973924     0.00049992  0.67D-02  0.73D-02  1  1    11.15
   2      1.38858286    -1.17167566  -429.60525619    -0.00353088    -0.02699992  0.13D-03  0.11D-02  2  2    20.34
   3      1.39937810    -1.17227698  -429.60585751    -0.00060132    -0.00538159  0.86D-04  0.10D-03  3  3    29.54
   4      1.40340789    -1.17220249  -429.60578301     0.00007450    -0.00142366  0.48D-05  0.20D-04  4  4    38.74
   5      1.40524800    -1.17223301  -429.60581354    -0.00003053    -0.00045086  0.91D-06  0.22D-05  5  5    47.94
   6      1.40572378    -1.17223876  -429.60581928    -0.00000574    -0.00006801  0.12D-06  0.24D-06  6  6    57.16
   7      1.40581079    -1.17223374  -429.60581426     0.00000502     0.00000029  0.28D-07  0.22D-07  6  1    66.38
   8      1.40583574    -1.17223486  -429.60581538    -0.00000112    -0.00000755  0.61D-08  0.30D-08  6  2    75.59
   9      1.40583705    -1.17223552  -429.60581605    -0.00000066     0.00000229  0.18D-08  0.34D-09  6  3    84.82
  10      1.40583941    -1.17223529  -429.60581582     0.00000023    -0.00000121  0.38D-09  0.76D-10  6  4    94.03
  11      1.40583947    -1.17223553  -429.60581605    -0.00000024     0.00000032  0.45D-10  0.20D-10  6  5   103.26
  12      1.40583967    -1.17223551  -429.60581603     0.00000002    -0.00000007  0.11D-10  0.24D-11  6  6   112.46
  13      1.40583966    -1.17223553  -429.60581606    -0.00000002     0.00000005  0.57D-12  0.56D-12  6  1   121.67
  14      1.40583965    -1.17223554  -429.60581606    -0.00000001     0.00000002  0.15D-12  0.86D-13  6  2   130.89
  15      1.40583965    -1.17223554  -429.60581606     0.00000000     0.00000000  0.40D-13  0.14D-13  6  3   140.11
  16      1.40583965    -1.17223554  -429.60581606    -0.00000000     0.00000000  0.63D-14  0.42D-14  6  4   149.33
  17      1.40583965    -1.17223554  -429.60581606    -0.00000000    -0.00000000  0.16D-14  0.72D-15  6  5   158.54
  18      1.40583966    -1.17223554  -429.60581606    -0.00000000    -0.00000000  0.21D-15  0.11D-15  6  6   167.76
  19      1.40583966    -1.17223554  -429.60581606    -0.00000000    -0.00000000  0.31D-16  0.23D-16  6  1   176.97
  20      1.40583966    -1.17223554  -429.60581606     0.00000000    -0.00000000  0.13D-16  0.29D-17  6  2   186.17
  21      1.40583966    -1.17223554  -429.60581606    -0.00000000    -0.00000000  0.14D-17  0.67D-18  6  3   195.39
  22      1.40583966    -1.17223554  -429.60581606    -0.00000000    -0.00000000  0.44D-18  0.14D-18  6  4   204.62
  23      1.40583966    -1.17223554  -429.60581606     0.00000000    -0.00000000  0.88D-19  0.23D-19  6  5   213.83
  24      1.40583966    -1.17223554  -429.60581606    -0.00000000    -0.00000000  0.75D-20  0.50D-20  6  6   223.05
  25      1.40583966    -1.17223554  -429.60581606    -0.00000000     0.00000000  0.18D-20  0.11D-20  6  1   232.26

 Norm of t1 vector:      0.10830026      S-energy:     0.00000000      T1 diagnostic:  0.01181653
                                                                       D1 diagnostic:  0.03167556

 Doubles amplitudes (print threshold =  0.500E-01):

         I         J         SYM. A    SYM. B    A         B      T(IJ, AB)

        20        20         1         1         1         1     -0.08673292
        21        20         1         1         1         2     -0.05134999
        21        21         1         1         2         2     -0.08397792


 Total CPU time for triples:    135.99 sec


 RESULTS
 =======

  Reference energy                   -428.433580526118
  CCSD singlet pair energy             -0.756737205167
  CCSD triplet pair energy             -0.415498331966
  CCSD correlation energy              -1.172235537132

  Triples (T) contribution             -0.043068565718
  Total correlation energy             -1.215304102851

  CCSD total energy                  -429.605816063251
  CCSD[T] energy                     -429.650885122186
  CCSD-T energy                      -429.648160137618
 !CCSD(T) total energy               -429.648884628969

 Timing summary (sec):

 STEP                 CPU(USER)    SYS     CPU(TOT)    WALL
 Transformation          2.18      0.22      2.40      2.40
 CCSD iterations       230.08      3.35    233.43    233.53
 Triples               135.99      2.34    138.33    138.35

 Program statistics:

 Available memory in ccsd:               999998136
 Min. memory needed in ccsd:               6063316
 Max. memory used in ccsd:                 8147482
 Max. memory used in cckext:               8418193 (25 integral passes)



 **********************************************************************************************************************************
 DATASETS  * FILE   NREC   LENGTH (MB)   RECORD NAMES
              1      20      389.22       500      610      700      900      950      970     1000      129      960     1100   
                                          VAR    BASINP    GEOM    SYMINP    ZMAT    AOBASIS   BASIS     P2S    ABASIS      S 
                                         1400     1410     1200     1210     1080     1600     1650     1300     1700     1380   
                                           T        V       H0       H01     AOSYM     SMH    MOLCAS    ERIS     OPER     JKOP   

              2       3        0.82       700     1000     2100   
                                         GEOM     BASIS     RHF  

 PROGRAMS   *        TOTAL   CCSD(T)       RHF       INT
 CPU TIMES  *       378.68    368.27      6.93      3.45
 REAL TIME  *       386.09 SEC
 DISK USED  *         1.06 GB      
 GA USED    *         0.00 MB       (max)       0.00 MB       (current)
 **********************************************************************************************************************************

        CCSD(T)         RHF-SCF 
   -429.64888463   -428.43358053
 **********************************************************************************************************************************
 Variable memory released
