
    -----------------------------------------------------------------------
          Psi4: An Open-Source Ab Initio Electronic Structure Package
                               Psi4 1.4a2.dev629 

                         Git: Rev {master} 2938fc2 dirty


    D. G. A. Smith, L. A. Burns, A. C. Simmonett, R. M. Parrish,
    M. C. Schieber, R. Galvelis, P. Kraus, H. Kruse, R. Di Remigio,
    A. Alenaizan, A. M. James, S. Lehtola, J. P. Misiewicz, M. Scheurer,
    R. A. Shaw, J. B. Schriber, Y. Xie, Z. L. Glick, D. A. Sirianni,
    J. S. O'Brien, J. M. Waldrop, A. Kumar, E. G. Hohenstein,
    B. P. Pritchard, B. R. Brooks, H. F. Schaefer III, A. Yu. Sokolov,
    K. Patkowski, A. E. DePrince III, U. Bozkaya, R. A. King,
    F. A. Evangelista, J. M. Turney, T. D. Crawford, C. D. Sherrill,
    J. Chem. Phys. 152(18) 184108 (2020). https://doi.org/10.1063/5.0006002

                            Additional Code Authors
    E. T. Seidl, C. L. Janssen, E. F. Valeev, M. L. Leininger,
    J. F. Gonthier, R. M. Richard, H. R. McAlexander, M. Saitow, X. Wang,
    P. Verma, and M. H. Lechner

             Previous Authors, Complete List of Code Contributors,
                       and Citations for Specific Modules
    https://github.com/psi4/psi4/blob/master/codemeta.json
    https://github.com/psi4/psi4/graphs/contributors
    http://psicode.org/psi4manual/master/introduction.html#citing-psifour

    -----------------------------------------------------------------------


    Psi4 started on: Saturday, 06 November 2021 04:36PM

    Process ID: 25851
    Host:       n061
    PSIDATADIR: /opt/psi/4/master/share/psi4
    Memory:     500.0 MiB
    Threads:    1
    
  ==> Input File <==

--------------------------------------------------------------------------
import os
memory 14 GB 
 
molecule {
 C   -2.4188307848    0.5031858513    0.0018452127
 C    0.0128542852   -1.0711738475    0.0005839841
 N    2.3694942410    0.3969784270    0.0000763719
 H   -4.1013659409   -0.6976257158    0.0042347533
 H   -2.4985439777    1.7210323003   -1.6737206058
 H   -2.5022355253    1.7138096417    1.6684425592
 H    0.0452406734   -2.3091953947    1.6536842267
 H    0.0466651855   -2.3117087154   -1.6550693254
 H    2.3764479325    1.5618763153    1.5252179764
 H    2.3765423412    1.5623469678   -1.5252951532
units bohr
}

basis {

assign 6-31g_2dfp_

[ 6-31g_2dfp_ ]

spherical

!----------------------------------------------------------------------
! Basis Set Exchange
! Version v0.8.13
! https://www.basissetexchange.org
!----------------------------------------------------------------------
!   Basis set: 6-31G(2df,p)
! Description: 6-31G(2df,p)
!        Role: orbital
!     Version: 0  (Data from the original Basis Set Exchange)
!----------------------------------------------------------------------


****
H     0
S    3   1.00
     18.7311370              0.03349460
      2.8253937              0.23472695
      0.6401217              0.81375733
S    1   1.00
      0.1612778              1.00000000
P    1   1.00
      1.5000000              1.0000000
P    1   1.00
      0.3750000              1.0000000
****
B     0
S    6   1.00
   2068.8823000              0.0018663
    310.6495700              0.0142515
     70.6830330              0.0695516
     19.8610800              0.2325729
      6.2993048              0.4670787
      2.1270270              0.3634314
SP   3   1.00
      4.7279710             -0.1303938              0.0745976
      1.1903377             -0.1307889              0.3078467
      0.3594117              1.1309444              0.7434568
SP   1   1.00
      0.1267512              1.0000000              1.0000000
D    1   1.00
      0.8020000              1.0000000
D    1   1.00
      0.2005000              1.0000000
F    1   1.00
      0.5000000              1.0000000
****
C     0
S    6   1.00
   3047.5249000              0.0018347
    457.3695100              0.0140373
    103.9486900              0.0688426
     29.2101550              0.2321844
      9.2866630              0.4679413
      3.1639270              0.3623120
SP   3   1.00
      7.8682724             -0.1193324              0.0689991
      1.8812885             -0.1608542              0.3164240
      0.5442493              1.1434564              0.7443083
SP   1   1.00
      0.1687144              1.0000000              1.0000000
D    1   1.00
      1.2520000              1.0000000
D    1   1.00
      0.3130000              1.0000000
F    1   1.00
      0.8000000              1.0000000
****
N     0
S    6   1.00
   4173.5110000              0.0018348
    627.4579000              0.0139950
    142.9021000              0.0685870
     40.2343300              0.2322410
     12.8202100              0.4690700
      4.3904370              0.3604550
SP   3   1.00
     11.6263580             -0.1149610              0.0675800
      2.7162800             -0.1691180              0.3239070
      0.7722180              1.1458520              0.7408950
SP   1   1.00
      0.2120313              1.0000000              1.0000000
D    1   1.00
      1.8260000              1.0000000
D    1   1.00
      0.4565000              1.0000000
F    1   1.00
      1.0000000              1.0000000
****
O     0
S    6   1.00
   5484.6717000              0.0018311
    825.2349500              0.0139501
    188.0469600              0.0684451
     52.9645000              0.2327143
     16.8975700              0.4701930
      5.7996353              0.3585209
SP   3   1.00
     15.5396160             -0.1107775              0.0708743
      3.5999336             -0.1480263              0.3397528
      1.0137618              1.1307670              0.7271586
SP   1   1.00
      0.2700058              1.0000000              1.0000000
D    1   1.00
      2.5840000              1.0000000
D    1   1.00
      0.6460000              1.0000000
F    1   1.00
      1.4000000              1.0000000
****
F     0
S    6   1.00
   7001.7130900              0.0018196169
   1051.3660900              0.0139160796
    239.2856900              0.0684053245
     67.3974453              0.233185760
     21.5199573              0.471267439
      7.40310130             0.356618546
SP   3   1.00
     20.8479528             -0.108506975            0.0716287243
      4.80830834            -0.146451658            0.3459121030
      1.34406986             1.128688580            0.7224699570
SP   1   1.00
      0.358151393            1.0000000              1.0000000
D    1   1.00
      3.5000000              1.0000000
D    1   1.00
      0.8750000              1.0000000
F    1   1.00
      1.8500000              1.0000000
****
Al     0
S    6   1.00
  13983.1000000              0.00194267
   2098.7500000              0.0148599
    477.7050000              0.0728494
    134.3600000              0.2468300
     42.8709000              0.4872580
     14.5189000              0.3234960
SP   6   1.00
    239.6680000             -0.00292619             0.00460285
     57.4419000             -0.0374080              0.0331990
     18.2859000             -0.1144870              0.1362820
      6.5991400              0.1156350              0.3304760
      2.4904900              0.6125950              0.4491460
      0.9445400              0.3937990              0.2657040
SP   3   1.00
      1.2779000             -0.2276060             -0.0175130
      0.3975900              0.00144583             0.2445330
      0.1600950              1.0927900              0.8049340
SP   1   1.00
      0.0556577              1.0000000              1.0000000
D    1   1.00
      0.6500000              1.0000000
D    1   1.00
      0.1625000              1.0000000
F    1   1.00
      0.2500000              1.0000000
****
Si     0
S    6   1.00
  16115.9000000              0.00195948
   2425.5800000              0.01492880
    553.8670000              0.07284780
    156.3400000              0.24613000
     50.0683000              0.48591400
     17.0178000              0.32500200
SP   6   1.00
    292.7180000             -0.00278094             0.00443826
     69.8731000             -0.03571460             0.03266790
     22.3363000             -0.11498500             0.13472100
      8.1503900              0.09356340             0.32867800
      3.1345800              0.60301700             0.44964000
      1.2254300              0.41895900             0.26137200
SP   3   1.00
      1.7273800             -0.24463000            -0.01779510
      0.5729220              0.00431572             0.25353900
      0.2221920              1.09818000             0.80066900
SP   1   1.00
      0.0778369              1.00000000             1.00000000
D    1   1.00
      0.9000000              1.0000000
D    1   1.00
      0.2250000              1.0000000
F    1   1.00
      0.3200000              1.0000000
****
P     0
S    6   1.00
  19413.3000000              0.0018516
   2909.4200000              0.0142062
    661.3640000              0.0699995
    185.7590000              0.2400790
     59.1943000              0.4847620
     20.0310000              0.3352000
SP   6   1.00
    339.4780000             -0.00278217             0.00456462
     81.0101000             -0.0360499              0.03369360
     25.8780000             -0.1166310              0.13975500
      9.4522100              0.0968328              0.33936200
      3.6656600              0.6144180              0.45092100
      1.4674600              0.4037980              0.23858600
SP   3   1.00
      2.1562300             -0.2529230             -0.01776530
      0.7489970              0.0328517              0.27405800
      0.2831450              1.0812500              0.78542100
SP   1   1.00
      0.0998317              1.0000000              1.00000000
D    1   1.00
      1.1000000              1.0000000
D    1   1.00
      0.2750000              1.0000000
F    1   1.00
      0.4500000              1.0000000
****
S     0
S    6   1.00
  21917.1000000              0.0018690
   3301.4900000              0.0142300
    754.1460000              0.0696960
    212.7110000              0.2384870
     67.9896000              0.4833070
     23.0515000              0.3380740
SP   6   1.00
    423.7350000             -0.0023767              0.0040610
    100.7100000             -0.0316930              0.0306810
     32.1599000             -0.1133170              0.1304520
     11.8079000              0.0560900              0.3272050
      4.6311000              0.5922550              0.4528510
      1.8702500              0.4550060              0.2560420
SP   3   1.00
      2.6158400             -0.2503740             -0.0145110
      0.9221670              0.0669570              0.3102630
      0.3412870              1.0545100              0.7544830
SP   1   1.00
      0.1171670              1.0000000              1.0000000
D    1   1.00
      1.3000000              1.0000000
D    1   1.00
      0.3250000              1.0000000
F    1   1.00
      0.5500000              1.0000000
****
Cl     0
S    6   1.00
  25180.1000000              0.0018330
   3780.3500000              0.0140340
    860.4740000              0.0690970
    242.1450000              0.2374520
     77.3349000              0.4830340
     26.2470000              0.3398560
SP   6   1.00
    491.7650000             -0.0022974              0.0039894
    116.9840000             -0.0307140              0.0303180
     37.4153000             -0.1125280              0.1298800
     13.7834000              0.0450160              0.3279510
      5.4521500              0.5893530              0.4535270
      2.2258800              0.4652060              0.2521540
SP   3   1.00
      3.1864900             -0.2518300             -0.0142990
      1.1442700              0.0615890              0.3235720
      0.4203770              1.0601800              0.7435070
SP   1   1.00
      0.1426570              1.0000000              1.0000000
D    1   1.00
      1.5000000              1.0000000
D    1   1.00
      0.3750000              1.0000000
F    1   1.00
      0.7000000              1.0000000
****
}


set {
reference rhf                          
freeze_core true
e_convergence 10                       
d_convergence 10                      
dft_spherical_points 1202
dft_radial_points 99
}

e = energy('b3lyp')

print_out('Grab this energy {0}'.format(e))
--------------------------------------------------------------------------

  Memory set to  13.039 GiB by Python driver.

Scratch directory: /tmp/

*** tstart() called on n061
*** at Sat Nov  6 16:36:02 2021

   => Loading Basis Set <=

    Name: ANONYMOUSE1E2CE3B
    Role: ORBITAL
    Keyword: BASIS
    atoms 1-2  entry C          line    48 inputblock 6-31g_2dfp_ 
    atoms 3    entry N          line    69 inputblock 6-31g_2dfp_ 
    atoms 4-10 entry H          line    15 inputblock 6-31g_2dfp_ 


         ---------------------------------------------------------
                                   SCF
               by Justin Turney, Rob Parrish, Andy Simmonett
                          and Daniel G. A. Smith
                              RKS Reference
                        1 Threads,  13351 MiB Core
         ---------------------------------------------------------

  ==> Geometry <==

    Molecular point group: c1
    Full point group: C1

    Geometry (in Bohr), charge = 0, multiplicity = 1:

       Center              X                  Y                   Z               Mass       
    ------------   -----------------  -----------------  -----------------  -----------------
         C           -2.419228557675     0.503334438824     0.001230566673    12.000000000000
         C            0.012456512325    -1.071025259976    -0.000030661927    12.000000000000
         N            2.369096468125     0.397127014524    -0.000538274127    14.003074004430
         H           -4.101763713775    -0.697477128276     0.003620107273     1.007825032230
         H           -2.498941750575     1.721180887824    -1.674335251827     1.007825032230
         H           -2.502633298175     1.713958229224     1.667827913173     1.007825032230
         H            0.044842900525    -2.309046807176     1.653069580673     1.007825032230
         H            0.046267412625    -2.311560127876    -1.655683971427     1.007825032230
         H            2.376050159625     1.562024902824     1.524603330373     1.007825032230
         H            2.376144568325     1.562495555324    -1.525909799227     1.007825032230

  Running in c1 symmetry.

  Rotational constants: A =      1.05682  B =      0.29279  C =      0.26072 [cm^-1]
  Rotational constants: A =  31682.68835  B =   8777.55268  C =   7816.04084 [MHz]
  Nuclear repulsion =   82.697980118185882

  Charge       = 0
  Multiplicity = 1
  Electrons    = 26
  Nalpha       = 13
  Nbeta        = 13

  ==> Algorithm <==

  SCF Algorithm Type is DF.
  DIIS enabled.
  MOM disabled.
  Fractional occupation disabled.
  Guess Type is SAD.
  Energy threshold   = 1.00e-10
  Density threshold  = 1.00e-10
  Integral threshold = 0.00e+00

  ==> Primary Basis <==

  Basis Set: ANONYMOUSE1E2CE3B
    Blend: 6-31G_2DFP_
    Number of shells: 52
    Number of basis function: 134
    Number of Cartesian functions: 149
    Spherical Harmonics?: true
    Max angular momentum: 3

  ==> DFT Potential <==

   => Composite Functional: B3LYP <= 

    B3LYP Hyb-GGA Exchange-Correlation Functional

    P. J. Stephens, F. J. Devlin, C. F. Chabalowski, and M. J. Frisch, J. Phys. Chem. 98, 11623 (1994)

    Deriv               =              1
    GGA                 =           TRUE
    Meta                =          FALSE

    Exchange Hybrid     =           TRUE
    MP2 Hybrid          =          FALSE

   => Exchange Functionals <=

    0.0800   Slater exchange
    0.7200         Becke 88

   => Exact (HF) Exchange <=

    0.2000               HF 

   => Correlation Functionals <=

    0.1900   Vosko, Wilk & Nusair (VWN5_RPA)
    0.8100   Lee, Yang & Parr

   => Molecular Quadrature <=

    Radial Scheme          =       TREUTLER
    Pruning Scheme         =           NONE
    Nuclear Scheme         =       TREUTLER

    BS radius alpha        =              1
    Pruning alpha          =              1
    Radial Points          =             99
    Spherical Points       =           1202
    Total Points           =        1116940
    Total Blocks           =           7442
    Max Points             =            256
    Max Functions          =            134
    Weights Tolerance      =       1.00E-15

   => Loading Basis Set <=

    Name: (ANONYMOUSE1E2CE3B AUX)
    Role: JKFIT
    Keyword: DF_BASIS_SCF
    atoms 1-2  entry C          line   198 file /opt/psi/4/master/share/psi4/basis/def2-universal-jkfit.gbs 
    atoms 3    entry N          line   258 file /opt/psi/4/master/share/psi4/basis/def2-universal-jkfit.gbs 
    atoms 4-10 entry H          line    18 file /opt/psi/4/master/share/psi4/basis/def2-universal-jkfit.gbs 

  ==> Integral Setup <==

  DFHelper Memory: AOs need 0.052 GiB; user supplied 6.111 GiB. Using in-core AOs.

  ==> MemDFJK: Density-Fitted J/K Matrices <==

    J tasked:                   Yes
    K tasked:                   Yes
    wK tasked:                   No
    OpenMP threads:               1
    Memory [MiB]:              6258
    Algorithm:                 Core
    Schwarz Cutoff:           1E-12
    Mask sparsity (%):       0.4901
    Fitting Condition:        1E-10

   => Auxiliary Basis Set <=

  Basis Set: (ANONYMOUSE1E2CE3B AUX)
    Blend: DEF2-UNIVERSAL-JKFIT
    Number of shells: 117
    Number of basis function: 353
    Number of Cartesian functions: 411
    Spherical Harmonics?: true
    Max angular momentum: 4

  Cached 100.0% of DFT collocation blocks in 3.668 [GiB].

  Minimum eigenvalue in the overlap matrix is 1.7624023967E-03.
  Reciprocal condition number of the overlap matrix is 2.9878354297E-04.
    Using symmetric orthogonalization.

  ==> Pre-Iterations <==

  SCF Guess: Superposition of Atomic Densities via on-the-fly atomic UHF (no occupation information).

   -------------------------
    Irrep   Nso     Nmo    
   -------------------------
     A        134     134 
   -------------------------
    Total     134     134
   -------------------------

  ==> Iterations <==

                           Total Energy        Delta E     RMS |[F,P]|

   @DF-RKS iter SAD:  -134.60231980271834   -1.34602e+02   0.00000e+00 
   @DF-RKS iter   1:  -134.86181176534092   -2.59492e-01   6.00005e-03 DIIS
   @DF-RKS iter   2:  -134.66377594462682    1.98036e-01   7.54411e-03 DIIS
   @DF-RKS iter   3:  -135.18497559134556   -5.21200e-01   5.77590e-04 DIIS
   @DF-RKS iter   4:  -135.18691064904692   -1.93506e-03   3.16339e-04 DIIS
   @DF-RKS iter   5:  -135.18774269244275   -8.32043e-04   5.21303e-05 DIIS
   @DF-RKS iter   6:  -135.18776384313352   -2.11507e-05   1.38130e-05 DIIS
   @DF-RKS iter   7:  -135.18776522549066   -1.38236e-06   4.41382e-06 DIIS
   @DF-RKS iter   8:  -135.18776539331967   -1.67829e-07   6.02597e-07 DIIS
   @DF-RKS iter   9:  -135.18776539698101   -3.66134e-09   4.65502e-08 DIIS
   @DF-RKS iter  10:  -135.18776539700633   -2.53237e-11   6.09718e-09 DIIS
   @DF-RKS iter  11:  -135.18776539700679   -4.54747e-13   1.12186e-09 DIIS
   @DF-RKS iter  12:  -135.18776539700681   -2.84217e-14   2.73770e-10 DIIS
   @DF-RKS iter  13:  -135.18776539700681    0.00000e+00   3.43053e-11 DIIS
  Energy and wave function converged.


  ==> Post-Iterations <==

    Orbital Energies [Eh]
    ---------------------

    Doubly Occupied:                                                      

       1A    -14.304058     2A    -10.197841     3A    -10.167548  
       4A     -0.873820     5A     -0.723722     6A     -0.605875  
       7A     -0.490371     8A     -0.431787     9A     -0.407028  
      10A     -0.401462    11A     -0.357007    12A     -0.336461  
      13A     -0.233962  

    Virtual:                                                              

      14A      0.071679    15A      0.120976    16A      0.126249  
      17A      0.141249    18A      0.160435    19A      0.175341  
      20A      0.184088    21A      0.218671    22A      0.258083  
      23A      0.414595    24A      0.420245    25A      0.440583  
      26A      0.455194    27A      0.473038    28A      0.513619  
      29A      0.523721    30A      0.559996    31A      0.567931  
      32A      0.591266    33A      0.607311    34A      0.613204  
      35A      0.622449    36A      0.635712    37A      0.639975  
      38A      0.672054    39A      0.718747    40A      0.732564  
      41A      0.800597    42A      0.819811    43A      0.859491  
      44A      0.905098    45A      0.933337    46A      1.058351  
      47A      1.058442    48A      1.090612    49A      1.115516  
      50A      1.146176    51A      1.158488    52A      1.180148  
      53A      1.239428    54A      1.264618    55A      1.271979  
      56A      1.318006    57A      1.349942    58A      1.369284  
      59A      1.378993    60A      1.419222    61A      1.470118  
      62A      1.483286    63A      1.495511    64A      1.515697  
      65A      1.515808    66A      1.566560    67A      1.632254  
      68A      1.690339    69A      1.692621    70A      1.789535  
      71A      1.835387    72A      1.844092    73A      1.973472  
      74A      2.072585    75A      2.131226    76A      2.156155  
      77A      2.447207    78A      2.777609    79A      2.835703  
      80A      2.867219    81A      2.923444    82A      2.953660  
      83A      2.956909    84A      3.018523    85A      3.115992  
      86A      3.120530    87A      3.168742    88A      3.184330  
      89A      3.194881    90A      3.360640    91A      3.396466  
      92A      3.465934    93A      3.472577    94A      3.522446  
      95A      3.525581    96A      3.546365    97A      3.579954  
      98A      3.623810    99A      3.669366   100A      3.757496  
     101A      3.758382   102A      3.847056   103A      3.900197  
     104A      3.967082   105A      4.008157   106A      4.037550  
     107A      4.128005   108A      4.169888   109A      4.188792  
     110A      4.232212   111A      4.236048   112A      4.276898  
     113A      4.387104   114A      4.424764   115A      4.439135  
     116A      4.527146   117A      4.529086   118A      4.579058  
     119A      4.698860   120A      4.703569   121A      4.812695  
     122A      4.836566   123A      4.937790   124A      4.997916  
     125A      5.011312   126A      5.138476   127A      5.227879  
     128A      5.253728   129A      5.313333   130A      5.346212  
     131A      5.360560   132A      5.438392   133A      5.791347  
     134A      5.869698  

    Final Occupation by Irrep:
              A 
    DOCC [    13 ]

  @DF-RKS Final Energy:  -135.18776539700681

   => Energetics <=

    Nuclear Repulsion Energy =             82.6979801181858818
    One-Electron Energy =                -344.8323002284454333
    Two-Electron Energy =                 143.4696212779399502
    DFT Exchange-Correlation Energy =     -16.5230665646872410
    Empirical Dispersion Energy =           0.0000000000000000
    VV10 Nonlocal Energy =                  0.0000000000000000
    Total Energy =                       -135.1877653970068138

Computation Completed


Properties will be evaluated at   0.000000,   0.000000,   0.000000 [a0]

Properties computed using the SCF density matrix

  Nuclear Dipole Moment: [e a0]
     X:    -2.1170      Y:     0.6153      Z:    -0.0034

  Electronic Dipole Moment: [e a0]
     X:     1.7478      Y:    -0.3007      Z:     0.0056

  Dipole Moment: [e a0]
     X:    -0.3692      Y:     0.3146      Z:     0.0022     Total:     0.4851

  Dipole Moment: [D]
     X:    -0.9384      Y:     0.7997      Z:     0.0055     Total:     1.2329


*** tstop() called on n061 at Sat Nov  6 16:37:05 2021
Module time:
	user time   =      61.75 seconds =       1.03 minutes
	system time =       1.04 seconds =       0.02 minutes
	total time  =         63 seconds =       1.05 minutes
Total time:
	user time   =      61.75 seconds =       1.03 minutes
	system time =       1.04 seconds =       0.02 minutes
	total time  =         63 seconds =       1.05 minutes
Grab this energy -135.1877653970068
    Psi4 stopped on: Saturday, 06 November 2021 04:37PM
    Psi4 wall time for execution: 0:01:02.82

*** Psi4 exiting successfully. Buy a developer a beer!
