
    -----------------------------------------------------------------------
          Psi4: An Open-Source Ab Initio Electronic Structure Package
                               Psi4 1.4a2.dev629 

                         Git: Rev {master} 2938fc2 dirty


    D. G. A. Smith, L. A. Burns, A. C. Simmonett, R. M. Parrish,
    M. C. Schieber, R. Galvelis, P. Kraus, H. Kruse, R. Di Remigio,
    A. Alenaizan, A. M. James, S. Lehtola, J. P. Misiewicz, M. Scheurer,
    R. A. Shaw, J. B. Schriber, Y. Xie, Z. L. Glick, D. A. Sirianni,
    J. S. O'Brien, J. M. Waldrop, A. Kumar, E. G. Hohenstein,
    B. P. Pritchard, B. R. Brooks, H. F. Schaefer III, A. Yu. Sokolov,
    K. Patkowski, A. E. DePrince III, U. Bozkaya, R. A. King,
    F. A. Evangelista, J. M. Turney, T. D. Crawford, C. D. Sherrill,
    J. Chem. Phys. 152(18) 184108 (2020). https://doi.org/10.1063/5.0006002

                            Additional Code Authors
    E. T. Seidl, C. L. Janssen, E. F. Valeev, M. L. Leininger,
    J. F. Gonthier, R. M. Richard, H. R. McAlexander, M. Saitow, X. Wang,
    P. Verma, and M. H. Lechner

             Previous Authors, Complete List of Code Contributors,
                       and Citations for Specific Modules
    https://github.com/psi4/psi4/blob/master/codemeta.json
    https://github.com/psi4/psi4/graphs/contributors
    http://psicode.org/psi4manual/master/introduction.html#citing-psifour

    -----------------------------------------------------------------------


    Psi4 started on: Saturday, 06 November 2021 04:28PM

    Process ID: 522
    Host:       n036
    PSIDATADIR: /opt/psi/4/master/share/psi4
    Memory:     500.0 MiB
    Threads:    1
    
  ==> Input File <==

--------------------------------------------------------------------------
import os
memory 14 GB 
 
molecule {
 C   -2.4160306445    0.5014358676   -0.0001847748
 C    0.0099633163   -1.0676021209    0.0002473004
 N    2.3637659975    0.3930650624    0.0007217700
 H   -4.0949686336   -0.7024293560    0.0011432922
 H   -2.4998423016    1.7137181255   -1.6703447338
 H   -2.4974501859    1.7171774842    1.6697841535
 H    0.0387651033   -2.3034061168    1.6536279631
 H    0.0464075425   -2.3059753874   -1.6540194877
 H    2.3795294385    1.5576787883    1.5246839987
 H    2.3761287976    1.5658634830   -1.5256594816
units bohr
}

basis {

assign 6-31g_2dfp_

[ 6-31g_2dfp_ ]

spherical

!----------------------------------------------------------------------
! Basis Set Exchange
! Version v0.8.13
! https://www.basissetexchange.org
!----------------------------------------------------------------------
!   Basis set: 6-31G(2df,p)
! Description: 6-31G(2df,p)
!        Role: orbital
!     Version: 0  (Data from the original Basis Set Exchange)
!----------------------------------------------------------------------


****
H     0
S    3   1.00
     18.7311370              0.03349460
      2.8253937              0.23472695
      0.6401217              0.81375733
S    1   1.00
      0.1612778              1.00000000
P    1   1.00
      1.5000000              1.0000000
P    1   1.00
      0.3750000              1.0000000
****
B     0
S    6   1.00
   2068.8823000              0.0018663
    310.6495700              0.0142515
     70.6830330              0.0695516
     19.8610800              0.2325729
      6.2993048              0.4670787
      2.1270270              0.3634314
SP   3   1.00
      4.7279710             -0.1303938              0.0745976
      1.1903377             -0.1307889              0.3078467
      0.3594117              1.1309444              0.7434568
SP   1   1.00
      0.1267512              1.0000000              1.0000000
D    1   1.00
      0.8020000              1.0000000
D    1   1.00
      0.2005000              1.0000000
F    1   1.00
      0.5000000              1.0000000
****
C     0
S    6   1.00
   3047.5249000              0.0018347
    457.3695100              0.0140373
    103.9486900              0.0688426
     29.2101550              0.2321844
      9.2866630              0.4679413
      3.1639270              0.3623120
SP   3   1.00
      7.8682724             -0.1193324              0.0689991
      1.8812885             -0.1608542              0.3164240
      0.5442493              1.1434564              0.7443083
SP   1   1.00
      0.1687144              1.0000000              1.0000000
D    1   1.00
      1.2520000              1.0000000
D    1   1.00
      0.3130000              1.0000000
F    1   1.00
      0.8000000              1.0000000
****
N     0
S    6   1.00
   4173.5110000              0.0018348
    627.4579000              0.0139950
    142.9021000              0.0685870
     40.2343300              0.2322410
     12.8202100              0.4690700
      4.3904370              0.3604550
SP   3   1.00
     11.6263580             -0.1149610              0.0675800
      2.7162800             -0.1691180              0.3239070
      0.7722180              1.1458520              0.7408950
SP   1   1.00
      0.2120313              1.0000000              1.0000000
D    1   1.00
      1.8260000              1.0000000
D    1   1.00
      0.4565000              1.0000000
F    1   1.00
      1.0000000              1.0000000
****
O     0
S    6   1.00
   5484.6717000              0.0018311
    825.2349500              0.0139501
    188.0469600              0.0684451
     52.9645000              0.2327143
     16.8975700              0.4701930
      5.7996353              0.3585209
SP   3   1.00
     15.5396160             -0.1107775              0.0708743
      3.5999336             -0.1480263              0.3397528
      1.0137618              1.1307670              0.7271586
SP   1   1.00
      0.2700058              1.0000000              1.0000000
D    1   1.00
      2.5840000              1.0000000
D    1   1.00
      0.6460000              1.0000000
F    1   1.00
      1.4000000              1.0000000
****
F     0
S    6   1.00
   7001.7130900              0.0018196169
   1051.3660900              0.0139160796
    239.2856900              0.0684053245
     67.3974453              0.233185760
     21.5199573              0.471267439
      7.40310130             0.356618546
SP   3   1.00
     20.8479528             -0.108506975            0.0716287243
      4.80830834            -0.146451658            0.3459121030
      1.34406986             1.128688580            0.7224699570
SP   1   1.00
      0.358151393            1.0000000              1.0000000
D    1   1.00
      3.5000000              1.0000000
D    1   1.00
      0.8750000              1.0000000
F    1   1.00
      1.8500000              1.0000000
****
Al     0
S    6   1.00
  13983.1000000              0.00194267
   2098.7500000              0.0148599
    477.7050000              0.0728494
    134.3600000              0.2468300
     42.8709000              0.4872580
     14.5189000              0.3234960
SP   6   1.00
    239.6680000             -0.00292619             0.00460285
     57.4419000             -0.0374080              0.0331990
     18.2859000             -0.1144870              0.1362820
      6.5991400              0.1156350              0.3304760
      2.4904900              0.6125950              0.4491460
      0.9445400              0.3937990              0.2657040
SP   3   1.00
      1.2779000             -0.2276060             -0.0175130
      0.3975900              0.00144583             0.2445330
      0.1600950              1.0927900              0.8049340
SP   1   1.00
      0.0556577              1.0000000              1.0000000
D    1   1.00
      0.6500000              1.0000000
D    1   1.00
      0.1625000              1.0000000
F    1   1.00
      0.2500000              1.0000000
****
Si     0
S    6   1.00
  16115.9000000              0.00195948
   2425.5800000              0.01492880
    553.8670000              0.07284780
    156.3400000              0.24613000
     50.0683000              0.48591400
     17.0178000              0.32500200
SP   6   1.00
    292.7180000             -0.00278094             0.00443826
     69.8731000             -0.03571460             0.03266790
     22.3363000             -0.11498500             0.13472100
      8.1503900              0.09356340             0.32867800
      3.1345800              0.60301700             0.44964000
      1.2254300              0.41895900             0.26137200
SP   3   1.00
      1.7273800             -0.24463000            -0.01779510
      0.5729220              0.00431572             0.25353900
      0.2221920              1.09818000             0.80066900
SP   1   1.00
      0.0778369              1.00000000             1.00000000
D    1   1.00
      0.9000000              1.0000000
D    1   1.00
      0.2250000              1.0000000
F    1   1.00
      0.3200000              1.0000000
****
P     0
S    6   1.00
  19413.3000000              0.0018516
   2909.4200000              0.0142062
    661.3640000              0.0699995
    185.7590000              0.2400790
     59.1943000              0.4847620
     20.0310000              0.3352000
SP   6   1.00
    339.4780000             -0.00278217             0.00456462
     81.0101000             -0.0360499              0.03369360
     25.8780000             -0.1166310              0.13975500
      9.4522100              0.0968328              0.33936200
      3.6656600              0.6144180              0.45092100
      1.4674600              0.4037980              0.23858600
SP   3   1.00
      2.1562300             -0.2529230             -0.01776530
      0.7489970              0.0328517              0.27405800
      0.2831450              1.0812500              0.78542100
SP   1   1.00
      0.0998317              1.0000000              1.00000000
D    1   1.00
      1.1000000              1.0000000
D    1   1.00
      0.2750000              1.0000000
F    1   1.00
      0.4500000              1.0000000
****
S     0
S    6   1.00
  21917.1000000              0.0018690
   3301.4900000              0.0142300
    754.1460000              0.0696960
    212.7110000              0.2384870
     67.9896000              0.4833070
     23.0515000              0.3380740
SP   6   1.00
    423.7350000             -0.0023767              0.0040610
    100.7100000             -0.0316930              0.0306810
     32.1599000             -0.1133170              0.1304520
     11.8079000              0.0560900              0.3272050
      4.6311000              0.5922550              0.4528510
      1.8702500              0.4550060              0.2560420
SP   3   1.00
      2.6158400             -0.2503740             -0.0145110
      0.9221670              0.0669570              0.3102630
      0.3412870              1.0545100              0.7544830
SP   1   1.00
      0.1171670              1.0000000              1.0000000
D    1   1.00
      1.3000000              1.0000000
D    1   1.00
      0.3250000              1.0000000
F    1   1.00
      0.5500000              1.0000000
****
Cl     0
S    6   1.00
  25180.1000000              0.0018330
   3780.3500000              0.0140340
    860.4740000              0.0690970
    242.1450000              0.2374520
     77.3349000              0.4830340
     26.2470000              0.3398560
SP   6   1.00
    491.7650000             -0.0022974              0.0039894
    116.9840000             -0.0307140              0.0303180
     37.4153000             -0.1125280              0.1298800
     13.7834000              0.0450160              0.3279510
      5.4521500              0.5893530              0.4535270
      2.2258800              0.4652060              0.2521540
SP   3   1.00
      3.1864900             -0.2518300             -0.0142990
      1.1442700              0.0615890              0.3235720
      0.4203770              1.0601800              0.7435070
SP   1   1.00
      0.1426570              1.0000000              1.0000000
D    1   1.00
      1.5000000              1.0000000
D    1   1.00
      0.3750000              1.0000000
F    1   1.00
      0.7000000              1.0000000
****
}


set {
reference rhf                          
freeze_core true
e_convergence 10                       
d_convergence 10                      
dft_spherical_points 1202
dft_radial_points 99
}

e = energy('b3lyp')

print_out('Grab this energy {0}'.format(e))
--------------------------------------------------------------------------

  Memory set to  13.039 GiB by Python driver.

Scratch directory: /tmp/

*** tstart() called on n036
*** at Sat Nov  6 16:28:48 2021

   => Loading Basis Set <=

    Name: ANONYMOUS9990D8D9
    Role: ORBITAL
    Keyword: BASIS
    atoms 1-2  entry C          line    48 inputblock 6-31g_2dfp_ 
    atoms 3    entry N          line    69 inputblock 6-31g_2dfp_ 
    atoms 4-10 entry H          line    15 inputblock 6-31g_2dfp_ 


         ---------------------------------------------------------
                                   SCF
               by Justin Turney, Rob Parrish, Andy Simmonett
                          and Daniel G. A. Smith
                              RKS Reference
                        1 Threads,  13351 MiB Core
         ---------------------------------------------------------

  ==> Geometry <==

    Molecular point group: c1
    Full point group: C1

    Geometry (in Bohr), charge = 0, multiplicity = 1:

       Center              X                  Y                   Z               Mass       
    ------------   -----------------  -----------------  -----------------  -----------------
         C           -2.414754161821     0.502268691750    -0.000408195877    12.000000000000
         C            0.011239798979    -1.066769296750     0.000023879323    12.000000000000
         N            2.365042480179     0.393897886550     0.000498348923    14.003074004430
         H           -4.093692150921    -0.701596531850     0.000919871123     1.007825032230
         H           -2.498565818921     1.714550949650    -1.670568154877     1.007825032230
         H           -2.496173703221     1.718010308350     1.669560732423     1.007825032230
         H            0.040041585979    -2.302573292650     1.653404542023     1.007825032230
         H            0.047684025179    -2.305142563250    -1.654242908777     1.007825032230
         H            2.380805921179     1.558511612450     1.524460577623     1.007825032230
         H            2.377405280279     1.566696307150    -1.525882902677     1.007825032230

  Running in c1 symmetry.

  Rotational constants: A =      1.06110  B =      0.29366  C =      0.26164 [cm^-1]
  Rotational constants: A =  31811.01500  B =   8803.76947  C =   7843.89351 [MHz]
  Nuclear repulsion =   82.814133883762807

  Charge       = 0
  Multiplicity = 1
  Electrons    = 26
  Nalpha       = 13
  Nbeta        = 13

  ==> Algorithm <==

  SCF Algorithm Type is DF.
  DIIS enabled.
  MOM disabled.
  Fractional occupation disabled.
  Guess Type is SAD.
  Energy threshold   = 1.00e-10
  Density threshold  = 1.00e-10
  Integral threshold = 0.00e+00

  ==> Primary Basis <==

  Basis Set: ANONYMOUS9990D8D9
    Blend: 6-31G_2DFP_
    Number of shells: 52
    Number of basis function: 134
    Number of Cartesian functions: 149
    Spherical Harmonics?: true
    Max angular momentum: 3

  ==> DFT Potential <==

   => Composite Functional: B3LYP <= 

    B3LYP Hyb-GGA Exchange-Correlation Functional

    P. J. Stephens, F. J. Devlin, C. F. Chabalowski, and M. J. Frisch, J. Phys. Chem. 98, 11623 (1994)

    Deriv               =              1
    GGA                 =           TRUE
    Meta                =          FALSE

    Exchange Hybrid     =           TRUE
    MP2 Hybrid          =          FALSE

   => Exchange Functionals <=

    0.0800   Slater exchange
    0.7200         Becke 88

   => Exact (HF) Exchange <=

    0.2000               HF 

   => Correlation Functionals <=

    0.1900   Vosko, Wilk & Nusair (VWN5_RPA)
    0.8100   Lee, Yang & Parr

   => Molecular Quadrature <=

    Radial Scheme          =       TREUTLER
    Pruning Scheme         =           NONE
    Nuclear Scheme         =       TREUTLER

    BS radius alpha        =              1
    Pruning alpha          =              1
    Radial Points          =             99
    Spherical Points       =           1202
    Total Points           =        1116903
    Total Blocks           =           7469
    Max Points             =            256
    Max Functions          =            134
    Weights Tolerance      =       1.00E-15

   => Loading Basis Set <=

    Name: (ANONYMOUS9990D8D9 AUX)
    Role: JKFIT
    Keyword: DF_BASIS_SCF
    atoms 1-2  entry C          line   198 file /opt/psi/4/master/share/psi4/basis/def2-universal-jkfit.gbs 
    atoms 3    entry N          line   258 file /opt/psi/4/master/share/psi4/basis/def2-universal-jkfit.gbs 
    atoms 4-10 entry H          line    18 file /opt/psi/4/master/share/psi4/basis/def2-universal-jkfit.gbs 

  ==> Integral Setup <==

  DFHelper Memory: AOs need 0.052 GiB; user supplied 6.111 GiB. Using in-core AOs.

  ==> MemDFJK: Density-Fitted J/K Matrices <==

    J tasked:                   Yes
    K tasked:                   Yes
    wK tasked:                   No
    OpenMP threads:               1
    Memory [MiB]:              6257
    Algorithm:                 Core
    Schwarz Cutoff:           1E-12
    Mask sparsity (%):       0.4901
    Fitting Condition:        1E-10

   => Auxiliary Basis Set <=

  Basis Set: (ANONYMOUS9990D8D9 AUX)
    Blend: DEF2-UNIVERSAL-JKFIT
    Number of shells: 117
    Number of basis function: 353
    Number of Cartesian functions: 411
    Spherical Harmonics?: true
    Max angular momentum: 4

  Cached 100.0% of DFT collocation blocks in 3.668 [GiB].

  Minimum eigenvalue in the overlap matrix is 1.7473677457E-03.
  Reciprocal condition number of the overlap matrix is 2.9570154738E-04.
    Using symmetric orthogonalization.

  ==> Pre-Iterations <==

  SCF Guess: Superposition of Atomic Densities via on-the-fly atomic UHF (no occupation information).

   -------------------------
    Irrep   Nso     Nmo    
   -------------------------
     A        134     134 
   -------------------------
    Total     134     134
   -------------------------

  ==> Iterations <==

                           Total Energy        Delta E     RMS |[F,P]|

   @DF-RKS iter SAD:  -134.61103402310741   -1.34611e+02   0.00000e+00 
   @DF-RKS iter   1:  -134.86026497274804   -2.49231e-01   6.01355e-03 DIIS
   @DF-RKS iter   2:  -134.65978808644184    2.00477e-01   7.57201e-03 DIIS
   @DF-RKS iter   3:  -135.18495253264672   -5.25164e-01   5.80215e-04 DIIS
   @DF-RKS iter   4:  -135.18690346692756   -1.95093e-03   3.18018e-04 DIIS
   @DF-RKS iter   5:  -135.18774363702687   -8.40170e-04   5.22216e-05 DIIS
   @DF-RKS iter   6:  -135.18776480907135   -2.11720e-05   1.39431e-05 DIIS
   @DF-RKS iter   7:  -135.18776621960615   -1.41053e-06   4.38992e-06 DIIS
   @DF-RKS iter   8:  -135.18776638538918   -1.65783e-07   5.98991e-07 DIIS
   @DF-RKS iter   9:  -135.18776638900914   -3.61996e-09   4.69552e-08 DIIS
   @DF-RKS iter  10:  -135.18776638903512   -2.59774e-11   6.06731e-09 DIIS
   @DF-RKS iter  11:  -135.18776638903654   -1.42109e-12   1.13394e-09 DIIS
   @DF-RKS iter  12:  -135.18776638903591    6.25278e-13   2.75240e-10 DIIS
   @DF-RKS iter  13:  -135.18776638903634   -4.26326e-13   3.48839e-11 DIIS
  Energy and wave function converged.


  ==> Post-Iterations <==

    Orbital Energies [Eh]
    ---------------------

    Doubly Occupied:                                                      

       1A    -14.304013     2A    -10.197116     3A    -10.167005  
       4A     -0.874405     5A     -0.724261     6A     -0.605840  
       7A     -0.490547     8A     -0.432563     9A     -0.406936  
      10A     -0.402104    11A     -0.357061    12A     -0.336111  
      13A     -0.233773  

    Virtual:                                                              

      14A      0.071702    15A      0.120922    16A      0.126053  
      17A      0.141535    18A      0.160769    19A      0.175691  
      20A      0.183853    21A      0.219830    22A      0.259676  
      23A      0.414639    24A      0.420143    25A      0.440233  
      26A      0.455218    27A      0.473129    28A      0.514290  
      29A      0.523962    30A      0.560540    31A      0.568471  
      32A      0.591967    33A      0.607667    34A      0.613651  
      35A      0.622764    36A      0.636334    37A      0.640404  
      38A      0.672552    39A      0.718257    40A      0.732438  
      41A      0.800783    42A      0.820783    43A      0.859568  
      44A      0.905869    45A      0.934782    46A      1.058639  
      47A      1.059146    48A      1.090662    49A      1.115537  
      50A      1.147214    51A      1.160762    52A      1.182286  
      53A      1.239501    54A      1.265132    55A      1.273018  
      56A      1.319832    57A      1.349830    58A      1.369454  
      59A      1.379613    60A      1.418581    61A      1.470340  
      62A      1.484287    63A      1.497046    64A      1.515834  
      65A      1.517057    66A      1.569035    67A      1.631797  
      68A      1.691234    69A      1.693220    70A      1.790871  
      71A      1.835223    72A      1.845314    73A      1.974976  
      74A      2.075939    75A      2.133836    76A      2.157247  
      77A      2.448645    78A      2.779390    79A      2.838272  
      80A      2.869167    81A      2.923384    82A      2.954641  
      83A      2.956888    84A      3.019406    85A      3.116362  
      86A      3.121532    87A      3.169324    88A      3.186091  
      89A      3.197429    90A      3.360997    91A      3.396400  
      92A      3.465911    93A      3.473858    94A      3.523619  
      95A      3.526559    96A      3.546903    97A      3.581297  
      98A      3.625852    99A      3.669766   100A      3.757050  
     101A      3.760266   102A      3.850442   103A      3.904146  
     104A      3.968184   105A      4.010668   106A      4.039823  
     107A      4.129517   108A      4.172529   109A      4.189005  
     110A      4.234633   111A      4.236195   112A      4.279533  
     113A      4.388289   114A      4.429672   115A      4.440355  
     116A      4.530819   117A      4.533113   118A      4.584462  
     119A      4.701038   120A      4.703629   121A      4.816381  
     122A      4.840130   123A      4.939662   124A      4.999496  
     125A      5.012928   126A      5.140526   127A      5.229528  
     128A      5.257438   129A      5.314938   130A      5.350258  
     131A      5.364945   132A      5.442665   133A      5.791376  
     134A      5.868484  

    Final Occupation by Irrep:
              A 
    DOCC [    13 ]

  @DF-RKS Final Energy:  -135.18776638903634

   => Energetics <=

    Nuclear Repulsion Energy =             82.8141338837628069
    One-Electron Energy =                -345.0611698848817355
    Two-Electron Energy =                 143.5850642589033441
    DFT Exchange-Correlation Energy =     -16.5257946468207493
    Empirical Dispersion Energy =           0.0000000000000000
    VV10 Nonlocal Energy =                  0.0000000000000000
    Total Energy =                       -135.1877663890363408

Computation Completed


Properties will be evaluated at   0.000000,   0.000000,   0.000000 [a0]

Properties computed using the SCF density matrix

  Nuclear Dipole Moment: [e a0]
     X:    -2.1083      Y:     0.6187      Z:    -0.0012

  Electronic Dipole Moment: [e a0]
     X:     1.7424      Y:    -0.3026      Z:     0.0023

  Dipole Moment: [e a0]
     X:    -0.3659      Y:     0.3161      Z:     0.0011     Total:     0.4836

  Dipole Moment: [D]
     X:    -0.9301      Y:     0.8035      Z:     0.0029     Total:     1.2291


*** tstop() called on n036 at Sat Nov  6 16:30:03 2021
Module time:
	user time   =      74.65 seconds =       1.24 minutes
	system time =       0.75 seconds =       0.01 minutes
	total time  =         75 seconds =       1.25 minutes
Total time:
	user time   =      74.65 seconds =       1.24 minutes
	system time =       0.75 seconds =       0.01 minutes
	total time  =         75 seconds =       1.25 minutes
Grab this energy -135.18776638903634
    Psi4 stopped on: Saturday, 06 November 2021 04:30PM
    Psi4 wall time for execution: 0:01:15.43

*** Psi4 exiting successfully. Buy a developer a beer!
