
 Primary working directories    : /tmp/1011203.513.gen6.q
 Secondary working directories  : /tmp/1011203.513.gen6.q
 Wavefunction directory         : /home/vulcan/mel64643/wfu/
 Main file repository           : /tmp/1011203.513.gen6.q/

 ARCHNAME  : Linux/x86_64
 FC        : /opt/intel/compilers_and_libraries_2016.1.150/linux/bin/intel64/ifort
 FCVERSION : 16.0.1
 BLASLIB   : -mkl
 id        : ccgc

 Nodes     nprocs
 n075         1
 ga_uses_ma=false, calling ma_init with nominal heap.
 GA-space will be limited to   8.0 MW (determined by -G option)

 Using customized tuning parameters: mindgm=10; mindgv=16; mindgc=4; mindgr=1; noblas=0; mincuda=1000; minvec=7
 default implementation of scratch files=df  

 ***,Optimization of c2h4_2
 memory,1000,m
 gthresh,energy=1.0d-12,orbital=1.0d-10,oneint=1.0d-16,twoint=1.0d-16,optgrad=1.0d-6,compress=1.0d-13
 geomtyp=xyz
 
 
 
 bohr
 geometry = {
  C   -1.2646578390    0.0000000000   -3.4864891220
  C    1.2646578390    0.0000000000   -3.4864891220
  H   -2.3365451370    0.0000000000   -1.7401343790
  H    2.3365451370   -0.0000000000   -1.7401343790
  H   -2.3309107970   -0.0000000000   -5.2355085340
  H    2.3309107970   -0.0000000000   -5.2355085340
  C   -0.0000000000    1.2646577480    3.4864694210
  C   -0.0000000000   -1.2646577480    3.4864694210
  H   -0.0000000000    2.3365467640    1.7401161270
  H   -0.0000000000   -2.3365467640    1.7401161270
  H    0.0000000000    2.3309094620    5.2354895250
  H    0.0000000000   -2.3309094620    5.2354895250
 }
 
 basis=aug-cc-pvdz, H=cc-pvdz
 {rhf;maxit,200}
 {mp2}

 Variables initialized (661), CPU time= 0.01 sec
 Commands  initialized (458), CPU time= 0.00 sec, 486 directives.
 Default parameters read. Elapsed time= 0.05 sec

 Checking input...
 Passed
1


                                         ***  PROGRAM SYSTEM MOLPRO  ***
                         Copyright, University College Cardiff Consultants Limited, 2008

                                    Version 2010.1 linked May 16 2016 07:17:05


 **********************************************************************************************************************************
 LABEL *   Optimization of c2h4_2                                                        
 Linux-4.4.3/n075(x86_64) 64 bit mpp version                                             DATE: 25-Feb-24          TIME: 14:40:51  
 **********************************************************************************************************************************

 SHA1:             9e8077add272b0f3cad6f7df79ec5211205f459d
 **********************************************************************************************************************************

 THRESHOLDS:

 ZERO    =  1.00D-12  ONEINT  =  1.00D-16  TWOINT  =  1.00D-16  PREFAC  =  1.00D-14  LOCALI  =  1.00D-09  EORDER  =  1.00D-04
 ENERGY  =  1.00D-12  ETEST   =  0.00D+00  EDENS   =  0.00D+00  THRDEDEF=  1.00D-06  GRADIENT=  1.00D-02  STEP    =  1.00D-03
 ORBITAL =  1.00D-10  CIVEC   =  1.00D-05  COEFF   =  1.00D-04  PRINTCI =  5.00D-02  PUNCHCI =  9.90D+01  OPTGRAD =  1.00D-06
 OPTENERG=  1.00D-06  OPTSTEP =  3.00D-04  THRGRAD =  1.00D-10  COMPRESS=  1.00D-13  VARMIN  =  1.00D-07  VARMAX  =  1.00D-03
 THRDOUB =  0.00D+00  THRDIV  =  1.00D-05  THRRED  =  1.00D-07  THRPSP  =  1.00D+00  THRDC   =  1.00D-10  THRCS   =  1.00D-10
 THRNRM  =  1.00D-08  THREQ   =  0.00D+00  THRDE   =  1.00D+00  THRREF  =  1.00D-05  SPARFAC =  1.00D+00  THRDLP  =  1.00D-07
 THRDIA  =  1.00D-10  THRDLS  =  1.00D-07  THRGPS  =  0.00D+00  THRKEX  =  0.00D+00  THRDIS  =  2.00D-01  THRVAR  =  1.00D-10
 THRLOC  =  1.00D-06  THRGAP  =  1.00D-06  THRLOCT = -1.00D+00  THRGAPT = -1.00D+00  THRORB  =  1.00D-06  THRMLTP =  0.00D+00
 THRCPQCI=  1.00D-10  KEXTA   =  0.00D+00  THRCOARS=  0.00D+00  SYMTOL  =  1.00D-06  GRADTOL =  1.00D-06  THROVL  =  1.00D-08
 THRORTH =  1.00D-08  GRID    =  1.00D-06  GRIDMAX =  1.00D-03  DTMAX   =  0.00D+00

 SETTING GEOMTYP        =    XYZ
 ZUNIT=BOHR
 

 Variable memory set to 1000000000 words,  buffer space   230000 words

 SETTING BASIS          =    AUG-CC-PVDZ,H=CC-PVDZ


 Recomputing integrals since basis changed


 Using spherical harmonics

 Library entry C      S aug-cc-pVDZ          selected for orbital group  1
 Library entry C      P aug-cc-pVDZ          selected for orbital group  1
 Library entry C      D aug-cc-pVDZ          selected for orbital group  1
 Library entry H      S cc-pVDZ              selected for orbital group  2
 Library entry H      P cc-pVDZ              selected for orbital group  2

1PROGRAM * SEWARD (Integral evaluation for generally contracted gaussian basis sets)     Author: Roland Lindh, 1990

 Geometry written to block  1 of record 700


 Point group  C2v 



 ATOMIC COORDINATES

 NR  ATOM    CHARGE       X              Y              Z

   1  C       6.00   -1.264657839    0.000000000   -3.486489122
   2  C       6.00    1.264657839    0.000000000   -3.486489122
   3  H       1.00   -2.336545137    0.000000000   -1.740134379
   4  H       1.00    2.336545137    0.000000000   -1.740134379
   5  H       1.00   -2.330910797    0.000000000   -5.235508534
   6  H       1.00    2.330910797    0.000000000   -5.235508534
   7  C       6.00    0.000000000    1.264657748    3.486469421
   8  C       6.00    0.000000000   -1.264657748    3.486469421
   9  H       1.00    0.000000000    2.336546764    1.740116127
  10  H       1.00    0.000000000   -2.336546764    1.740116127
  11  H       1.00    0.000000000    2.330909462    5.235489525
  12  H       1.00    0.000000000   -2.330909462    5.235489525

 Bond lengths in Bohr (Angstrom)

 1-2  2.529315678  1-3  2.049072294  1-5  2.048405300  2-4  2.049072294  2-6  2.048405300
     ( 1.338456211)     ( 1.084322358)     ( 1.083969400)     ( 1.084322358)     ( 1.083969400)

  7- 8  2.529315496   7- 9  2.049071958   7-11  2.048405244   8-10  2.049071958   8-12  2.048405244
       ( 1.338456115)       ( 1.084322180)       ( 1.083969370)       ( 1.084322180)       ( 1.083969370)

 Bond angles

  1-2-4  121.54100084   1-2-6  121.36769645   2-1-3  121.54100084   2-1-5  121.36769645

  3- 1- 5  117.09130271   4- 2- 6  117.09130271   7- 8-10  121.54106297   7- 8-12  121.36765667

  8- 7- 9  121.54106297   8- 7-11  121.36765667   9- 7-11  117.09128036  10- 8-12  117.09128036

 NUCLEAR CHARGE:                   32
 NUMBER OF PRIMITIVE AOS:         204
 NUMBER OF SYMMETRY AOS:          196
 NUMBER OF CONTRACTIONS:          132   (  48A1  +  33B1  +  33B2  +  18A2  )
 NUMBER OF CORE ORBITALS:           4   (   2A1  +   1B1  +   1B2  +   0A2  )
 NUMBER OF VALENCE ORBITALS:       24   (  10A1  +   6B1  +   6B2  +   2A2  )


 NUCLEAR REPULSION ENERGY  102.27188167


 Eigenvalues of metric

         1 0.588E-02 0.670E-02 0.741E-02 0.879E-02 0.193E-01 0.198E-01 0.199E-01 0.269E-01
         2 0.173E-03 0.332E-03 0.552E-02 0.789E-02 0.882E-02 0.270E-01 0.327E-01 0.412E-01
         3 0.173E-03 0.332E-03 0.552E-02 0.789E-02 0.882E-02 0.270E-01 0.327E-01 0.412E-01
         4 0.117E-01 0.119E-01 0.439E-01 0.902E-01 0.176E+00 0.243E+00 0.270E+00 0.277E+00


 Contracted 2-electron integrals neglected if value below      1.0D-16
 AO integral compression algorithm  1   Integral accuracy      1.0D-16

     94.110 MB (compressed) written to integral file ( 90.9%)

     Node minimum: 94.110 MB, node maximum: 94.110 MB


 NUMBER OF SORTED TWO-ELECTRON INTEGRALS:    9926205.     BUFFER LENGTH:  32768
 NUMBER OF SEGMENTS:   1  SEGMENT LENGTH:    9926205      RECORD LENGTH: 524288

 Memory used in sort:      10.48 MW

 SORT1 READ    12914144. AND WROTE     9665879. INTEGRALS IN     28 RECORDS. CPU TIME:     0.19 SEC, REAL TIME:     0.24 SEC
 SORT2 READ     9665879. AND WROTE     9926205. INTEGRALS IN    359 RECORDS. CPU TIME:     0.12 SEC, REAL TIME:     0.19 SEC

 FILE SIZES:   FILE 1:    77.4 MBYTE,  FILE 4:   117.5 MBYTE,   TOTAL:    194.9 MBYTE

 OPERATOR DM      FOR CENTER  0  COORDINATES:    0.000000    0.000000    0.000000


 **********************************************************************************************************************************
 DATASETS  * FILE   NREC   LENGTH (MB)   RECORD NAMES
              1      19       77.44       500      610      700      900      950      970     1000      129      960     1100   
                                          VAR    BASINP    GEOM    SYMINP    ZMAT    AOBASIS   BASIS     P2S    ABASIS      S 
                                         1400     1410     1200     1210     1080     1600     1650     1300     1700   
                                           T        V       H0       H01     AOSYM     SMH    MOLCAS    ERIS     OPER   

 PROGRAMS   *        TOTAL       INT
 CPU TIMES  *         1.10      1.06
 REAL TIME  *         1.44 SEC
 DISK USED  *       289.83 MB      
 GA USED    *         0.00 MB       (max)       0.00 MB       (current)
 **********************************************************************************************************************************

1PROGRAM * RHF-SCF (CLOSED SHELL)       Authors: W. Meyer, H.-J. Werner


 NUMBER OF ELECTRONS:      16+   16-
 CONVERGENCE THRESHOLDS:    1.00E-10 (Density)    1.00E-13 (Energy)
 MAX. NUMBER OF ITERATIONS:      200
 INTERPOLATION TYPE:            DIIS
 INTERPOLATION STEPS:              2 (START)      1 (STEP)
 LEVEL SHIFTS:                  0.00 (CLOSED)  0.00 (OPEN) 



 Orbital guess generated from atomic densities. Full valence occupancy:   12   7   7   2

 Molecular orbital dump at record        2100.2

 Initial alpha occupancy:   8   4   4   0
 Initial beta  occupancy:   8   4   4   0
 Wave function symmetry:    1

 ITERATION    DDIFF          GRAD             ENERGY        2-EL.EN.            DIPOLE MOMENTS         DIIS
    1      0.000D+00      0.000D+00      -156.03857962    307.167509    0.00000    0.00000    0.00000    0
    2      0.000D+00      0.655D-02      -156.07902252    304.435468    0.00000    0.00000    0.00000    1
    3      0.140D-01      0.220D-02      -156.08308173    305.559441    0.00000    0.00000    0.00000    2
    4      0.430D-02      0.668D-03      -156.08365178    305.272529    0.00000    0.00000    0.00000    3
    5      0.158D-02      0.832D-04      -156.08366259    305.287098    0.00000    0.00000    0.00000    4
    6      0.217D-03      0.134D-04      -156.08366300    305.285536    0.00000    0.00000    0.00000    5
    7      0.374D-04      0.321D-05      -156.08366303    305.285520    0.00000    0.00000    0.00000    6
    8      0.102D-04      0.485D-06      -156.08366303    305.285528    0.00000    0.00000    0.00000    6
    9      0.159D-05      0.889D-07      -156.08366303    305.285531    0.00000    0.00000    0.00000    5
   10      0.266D-06      0.180D-07      -156.08366303    305.285534    0.00000    0.00000    0.00000    6
   11      0.481D-07      0.330D-08      -156.08366303    305.285533    0.00000    0.00000    0.00000    6
   12      0.119D-07      0.875D-09      -156.08366303    305.285533    0.00000    0.00000    0.00000    6
   13      0.235D-08      0.262D-09      -156.08366303    305.285533    0.00000    0.00000    0.00000    6
   14      0.587D-09      0.451D-10      -156.08366303    305.285533    0.00000    0.00000    0.00000    6
   15      0.133D-09      0.133D-10      -156.08366303    305.285533    0.00000    0.00000    0.00000    6
   16      0.420D-10      0.247D-11      -156.08366303    305.285533    0.00000    0.00000    0.00000    6
   17      0.775D-11      0.532D-12      -156.08366303    305.285533    0.00000    0.00000    0.00000    6
   18      0.187D-11      0.117D-12      -156.08366303    305.285533    0.00000    0.00000    0.00000    6
   19      0.541D-12      0.370D-13      -156.08366303    305.285533    0.00000    0.00000    0.00000    6
   20      0.604D-12      0.275D-13      -156.08366303    305.285533    0.00000    0.00000    0.00000    0

 Final occupancy:   8   4   4   0

 !RHF STATE 1.1 Energy               -156.083663027288
 Nuclear energy                       102.27188167
 One-electron energy                 -410.99831132
 Two-electron energy                  152.64276662
 Virial quotient                       -1.00199176
 !RHF STATE 1.1 Dipole moment           0.00000000     0.00000000     0.00000008
 Dipole moment /Debye                   0.00000000     0.00000000     0.00000020

 Orbital energies:

         1.1          2.1          3.1          4.1          5.1          6.1          7.1          8.1          9.1         10.1
    -11.241767   -11.241764    -1.038691    -1.032798    -0.656917    -0.631181    -0.588273    -0.584949     0.075088     0.081585

         1.2          2.2          3.2          4.2          5.2          6.2
    -11.240148    -0.794777    -0.508772    -0.376327     0.069023     0.127327

         1.3          2.3          3.3          4.3          5.3          6.3
    -11.240148    -0.794777    -0.508772    -0.376327     0.069023     0.127327

         1.4          2.4
      0.090197     0.118711


 **********************************************************************************************************************************
 DATASETS  * FILE   NREC   LENGTH (MB)   RECORD NAMES
              1      19       77.44       500      610      700      900      950      970     1000      129      960     1100   
                                          VAR    BASINP    GEOM    SYMINP    ZMAT    AOBASIS   BASIS     P2S    ABASIS      S 
                                         1400     1410     1200     1210     1080     1600     1650     1300     1700   
                                           T        V       H0       H01     AOSYM     SMH    MOLCAS    ERIS     OPER   

              2       3        0.56       700     1000     2100   
                                         GEOM     BASIS     RHF  

 PROGRAMS   *        TOTAL       RHF       INT
 CPU TIMES  *         1.65      0.55      1.06
 REAL TIME  *         2.13 SEC
 DISK USED  *       289.83 MB      
 GA USED    *         0.00 MB       (max)       0.00 MB       (current)
 **********************************************************************************************************************************


1PROGRAM * MP2 (Closed-shell)     Authors: C. Hampel, H.-J. Werner, 1991, M. Deegan, P.J. Knowles, 1992


 Convergence thresholds:  THRVAR = 1.00D-08  THRDEN = 1.00D-12

 Number of core orbitals:           4 (   2   1   1   0 )
 Number of closed-shell orbitals:  12 (   6   3   3   0 )
 Number of external orbitals:     116 (  40  29  29  18 )

 Molecular orbitals read from record     2100.2  Type=RHF/CANONICAL (state 1.1)

 Number of N-1 electron functions:              12
 Number of N-2 electron functions:              78
 Number of singly external CSFs:               414
 Number of doubly external CSFs:            247260
 Total number of CSFs:                      247675

 Length of J-op  integral file:               0.00 MB
 Length of K-op  integral file:               0.37 MB

 Integral transformation finished. Total CPU:   0.08 sec, npass=  1  Memory used:   0.43 MW

 Memory needed for MP2:                      0.02 MW

 SCS-MP2 correlation energy:           -0.573967620017   (PS=  1.200000  PT=  0.333333)
 SCS-MP2 total energy:               -156.657630647304


  Reference energy                   -156.083663027287
  MP2 singlet pair energy              -0.379798939692
  MP2 triplet pair energy              -0.189978577048
  MP2 correlation energy               -0.569777516741

 !MP2 total energy                   -156.653440544028


 **********************************************************************************************************************************
 DATASETS  * FILE   NREC   LENGTH (MB)   RECORD NAMES
              1      20       81.83       500      610      700      900      950      970     1000      129      960     1100   
                                          VAR    BASINP    GEOM    SYMINP    ZMAT    AOBASIS   BASIS     P2S    ABASIS      S 
                                         1400     1410     1200     1210     1080     1600     1650     1300     1700     1380   
                                           T        V       H0       H01     AOSYM     SMH    MOLCAS    ERIS     OPER     JKOP   

              2       3        0.56       700     1000     2100   
                                         GEOM     BASIS     RHF  

 PROGRAMS   *        TOTAL       MP2       RHF       INT
 CPU TIMES  *         1.75      0.10      0.55      1.06
 REAL TIME  *         2.26 SEC
 DISK USED  *       289.83 MB      
 GA USED    *         0.00 MB       (max)       0.00 MB       (current)
 **********************************************************************************************************************************

        MP2             RHF-SCF 
   -156.65344054   -156.08366303
 **********************************************************************************************************************************
 Variable memory released
