
 Primary working directories    : /tmp/943420.563.gen4.q
 Secondary working directories  : /tmp/943420.563.gen4.q
 Wavefunction directory         : /home/vulcan/mel64643/wfu/
 Main file repository           : /tmp/943420.563.gen4.q/

 ARCHNAME  : Linux/x86_64
 FC        : /opt/intel/compilers_and_libraries_2016.1.150/linux/bin/intel64/ifort
 FCVERSION : 16.0.1
 BLASLIB   : -mkl
 id        : ccgc

 Nodes     nprocs
 n054         1
 ga_uses_ma=false, calling ma_init with nominal heap.
 GA-space will be limited to   8.0 MW (determined by -G option)

 Using customized tuning parameters: mindgm=10; mindgv=16; mindgc=4; mindgr=1; noblas=0; mincuda=1000; minvec=7
 default implementation of scratch files=df  

 ***,Optimization of nh3_nitrosmethane
 memory,1000,m
 gthresh,energy=1.0d-12,orbital=1.0d-10,oneint=1.0d-16,twoint=1.0d-16,optgrad=1.0d-6,compress=1.0d-13
 geomtyp=xyz
 
 bohr
 geometry = {
  N   -5.2178703111   -0.1914798421   -0.0015369093
  H   -6.2928209489    0.2217089721   -1.5359072371
  H   -3.7586019035    1.0575534515    0.0014556964
  H   -6.2949362379    0.2168282100    1.5326565911
  H   -0.9322121403   -2.3814350766    0.0074596633
  H    1.8635435544   -3.4313719513   -1.6684909645
  H    1.8729094084   -3.4358078483    1.6648730212
  C    1.1278116703   -2.4646619241    0.0015608024
  N    2.2746251361    0.0959011343    0.0017460482
  O    0.7216702625    1.7898218835   -0.0038167116
 }
 
 basis=aug-cc-pvdz, H=cc-pvdz
 {rhf;maxit,200}
 {ccsd(t);maxit,200}

 Variables initialized (661), CPU time= 0.01 sec
 Commands  initialized (458), CPU time= 0.00 sec, 486 directives.
 Default parameters read. Elapsed time= 0.05 sec

 Checking input...
 Passed
1


                                         ***  PROGRAM SYSTEM MOLPRO  ***
                         Copyright, University College Cardiff Consultants Limited, 2008

                                    Version 2010.1 linked May 16 2016 07:17:05


 **********************************************************************************************************************************
 LABEL *   Optimization of nh3_nitrosmethane                                             
 Linux-4.4.3/n054(x86_64) 64 bit mpp version                                             DATE: 26-Oct-23          TIME: 08:28:04  
 **********************************************************************************************************************************

 SHA1:             9e8077add272b0f3cad6f7df79ec5211205f459d
 **********************************************************************************************************************************

 THRESHOLDS:

 ZERO    =  1.00D-12  ONEINT  =  1.00D-16  TWOINT  =  1.00D-16  PREFAC  =  1.00D-14  LOCALI  =  1.00D-09  EORDER  =  1.00D-04
 ENERGY  =  1.00D-12  ETEST   =  0.00D+00  EDENS   =  0.00D+00  THRDEDEF=  1.00D-06  GRADIENT=  1.00D-02  STEP    =  1.00D-03
 ORBITAL =  1.00D-10  CIVEC   =  1.00D-05  COEFF   =  1.00D-04  PRINTCI =  5.00D-02  PUNCHCI =  9.90D+01  OPTGRAD =  1.00D-06
 OPTENERG=  1.00D-06  OPTSTEP =  3.00D-04  THRGRAD =  1.00D-10  COMPRESS=  1.00D-13  VARMIN  =  1.00D-07  VARMAX  =  1.00D-03
 THRDOUB =  0.00D+00  THRDIV  =  1.00D-05  THRRED  =  1.00D-07  THRPSP  =  1.00D+00  THRDC   =  1.00D-10  THRCS   =  1.00D-10
 THRNRM  =  1.00D-08  THREQ   =  0.00D+00  THRDE   =  1.00D+00  THRREF  =  1.00D-05  SPARFAC =  1.00D+00  THRDLP  =  1.00D-07
 THRDIA  =  1.00D-10  THRDLS  =  1.00D-07  THRGPS  =  0.00D+00  THRKEX  =  0.00D+00  THRDIS  =  2.00D-01  THRVAR  =  1.00D-10
 THRLOC  =  1.00D-06  THRGAP  =  1.00D-06  THRLOCT = -1.00D+00  THRGAPT = -1.00D+00  THRORB  =  1.00D-06  THRMLTP =  0.00D+00
 THRCPQCI=  1.00D-10  KEXTA   =  0.00D+00  THRCOARS=  0.00D+00  SYMTOL  =  1.00D-06  GRADTOL =  1.00D-06  THROVL  =  1.00D-08
 THRORTH =  1.00D-08  GRID    =  1.00D-06  GRIDMAX =  1.00D-03  DTMAX   =  0.00D+00

 SETTING GEOMTYP        =    XYZ
 ZUNIT=BOHR
 

 Variable memory set to 1000000000 words,  buffer space   230000 words

 SETTING BASIS          =    AUG-CC-PVDZ,H=CC-PVDZ


 Recomputing integrals since basis changed


 Using spherical harmonics

 Library entry N      S aug-cc-pVDZ          selected for orbital group  1
 Library entry N      P aug-cc-pVDZ          selected for orbital group  1
 Library entry N      D aug-cc-pVDZ          selected for orbital group  1
 Library entry H      S cc-pVDZ              selected for orbital group  2
 Library entry H      P cc-pVDZ              selected for orbital group  2
 Library entry C      S aug-cc-pVDZ          selected for orbital group  3
 Library entry C      P aug-cc-pVDZ          selected for orbital group  3
 Library entry C      D aug-cc-pVDZ          selected for orbital group  3
 Library entry O      S aug-cc-pVDZ          selected for orbital group  5
 Library entry O      P aug-cc-pVDZ          selected for orbital group  5
 Library entry O      D aug-cc-pVDZ          selected for orbital group  5

1PROGRAM * SEWARD (Integral evaluation for generally contracted gaussian basis sets)     Author: Roland Lindh, 1990

 Geometry written to block  1 of record 700


 Point group  C1  



 ATOMIC COORDINATES

 NR  ATOM    CHARGE       X              Y              Z

   1  N       7.00   -5.217870311   -0.191479842   -0.001536909
   2  H       1.00   -6.292820949    0.221708972   -1.535907237
   3  H       1.00   -3.758601903    1.057553452    0.001455696
   4  H       1.00   -6.294936238    0.216828210    1.532656591
   5  H       1.00   -0.932212140   -2.381435077    0.007459663
   6  H       1.00    1.863543554   -3.431371951   -1.668490964
   7  H       1.00    1.872909408   -3.435807848    1.664873021
   8  C       6.00    1.127811670   -2.464661924    0.001560802
   9  N       7.00    2.274625136    0.095901134    0.001746048
  10  O       8.00    0.721670262    1.789821883   -0.003816712

 Bond lengths in Bohr (Angstrom)

 1-2  1.918472354  1-3  1.920822066  1-4  1.918472354  5-8  2.061712784  6-8  2.065164058
     ( 1.015211846)     ( 1.016455260)     ( 1.015211846)     ( 1.091011417)     ( 1.092837752)

  7- 8  2.065164057   8- 9  2.805648648   9-10  2.298057286
       ( 1.092837752)       ( 1.484685321)       ( 1.216079541)

 Bond angles

  2-1-3  106.67095379   2-1-4  106.21107401   3-1-4  106.67095391   5-8-6  112.15889939

  5-8-7  112.15889965   5-8-9  111.81278917   6-8-7  107.61734652   6-8-9  106.35838593

  7- 8- 9  106.35838609   8- 9-10  113.35946296

 NUCLEAR CHARGE:                   34
 NUMBER OF PRIMITIVE AOS:         190
 NUMBER OF SYMMETRY AOS:          182
 NUMBER OF CONTRACTIONS:          122   ( 122A   )
 NUMBER OF CORE ORBITALS:           4   (   4A   )
 NUMBER OF VALENCE ORBITALS:       22   (  22A   )


 NUCLEAR REPULSION ENERGY  117.38250957


 Eigenvalues of metric

         1 0.465E-03 0.142E-02 0.196E-02 0.431E-02 0.519E-02 0.750E-02 0.799E-02 0.856E-02


 Contracted 2-electron integrals neglected if value below      1.0D-16
 AO integral compression algorithm  1   Integral accuracy      1.0D-16

     234.881 MB (compressed) written to integral file ( 87.3%)

     Node minimum: 234.881 MB, node maximum: 234.881 MB


 NUMBER OF SORTED TWO-ELECTRON INTEGRALS:   28151256.     BUFFER LENGTH:  32768
 NUMBER OF SEGMENTS:   2  SEGMENT LENGTH:   15997996      RECORD LENGTH: 524288

 Memory used in sort:      16.56 MW

 SORT1 READ    33603451. AND WROTE    27861365. INTEGRALS IN     81 RECORDS. CPU TIME:     0.34 SEC, REAL TIME:     0.50 SEC
 SORT2 READ    27861365. AND WROTE    28151256. INTEGRALS IN    896 RECORDS. CPU TIME:     0.25 SEC, REAL TIME:     0.38 SEC

 FILE SIZES:   FILE 1:   202.1 MBYTE,  FILE 4:   339.8 MBYTE,   TOTAL:    541.8 MBYTE

 OPERATOR DM      FOR CENTER  0  COORDINATES:    0.000000    0.000000    0.000000


 **********************************************************************************************************************************
 DATASETS  * FILE   NREC   LENGTH (MB)   RECORD NAMES
              1      19      202.24       500      610      700      900      950      970     1000      129      960     1100   
                                          VAR    BASINP    GEOM    SYMINP    ZMAT    AOBASIS   BASIS     P2S    ABASIS      S 
                                         1400     1410     1200     1210     1080     1600     1650     1300     1700   
                                           T        V       H0       H01     AOSYM     SMH    MOLCAS    ERIS     OPER   

 PROGRAMS   *        TOTAL       INT
 CPU TIMES  *         2.13      2.09
 REAL TIME  *         2.73 SEC
 DISK USED  *       777.49 MB      
 GA USED    *         0.00 MB       (max)       0.00 MB       (current)
 **********************************************************************************************************************************

1PROGRAM * RHF-SCF (CLOSED SHELL)       Authors: W. Meyer, H.-J. Werner


 NUMBER OF ELECTRONS:      17+   17-    SPACE SYMMETRY=1    SPIN SYMMETRY: Singlet 
 CONVERGENCE THRESHOLDS:    1.00E-10 (Density)    1.00E-13 (Energy)
 MAX. NUMBER OF ITERATIONS:      200
 INTERPOLATION TYPE:            DIIS
 INTERPOLATION STEPS:              2 (START)      1 (STEP)
 LEVEL SHIFTS:                  0.00 (CLOSED)  0.00 (OPEN) 



 Orbital guess generated from atomic densities. Full valence occupancy:   26

 Molecular orbital dump at record        2100.2

 ITERATION    DDIFF          GRAD             ENERGY        2-EL.EN.            DIPOLE MOMENTS         DIIS
    1      0.000D+00      0.000D+00      -224.96503374    393.073573    0.05510   -0.57699    0.00232    0
    2      0.000D+00      0.710D-02      -225.02578069    392.707433   -0.59392   -0.37265    0.00006    1
    3      0.132D-01      0.496D-02      -225.05965566    393.249609   -0.24962   -0.55455    0.00145    2
    4      0.572D-02      0.994D-03      -225.06192418    393.084761   -0.32701   -0.45682    0.00124    3
    5      0.146D-02      0.392D-03      -225.06234802    393.096713   -0.32481   -0.48632    0.00129    4
    6      0.638D-03      0.952D-04      -225.06239032    393.123779   -0.33014   -0.48349    0.00130    5
    7      0.217D-03      0.363D-04      -225.06239637    393.107761   -0.33176   -0.48358    0.00129    6
    8      0.864D-04      0.147D-04      -225.06239736    393.114242   -0.33277   -0.48350    0.00129    7
    9      0.331D-04      0.633D-05      -225.06239758    393.113075   -0.33304   -0.48319    0.00129    8
   10      0.183D-04      0.193D-05      -225.06239760    393.112790   -0.33312   -0.48302    0.00129    8
   11      0.562D-05      0.650D-06      -225.06239760    393.112896   -0.33314   -0.48293    0.00129    8
   12      0.183D-05      0.197D-06      -225.06239760    393.112861   -0.33314   -0.48290    0.00129    8
   13      0.685D-06      0.618D-07      -225.06239760    393.112855   -0.33314   -0.48290    0.00129    8
   14      0.166D-06      0.314D-07      -225.06239760    393.112857   -0.33314   -0.48289    0.00129    9
   15      0.776D-07      0.408D-08      -225.06239760    393.112857   -0.33314   -0.48289    0.00129    8
   16      0.104D-07      0.240D-08      -225.06239760    393.112857   -0.33314   -0.48289    0.00129    7
   17      0.863D-08      0.163D-08      -225.06239760    393.112857   -0.33314   -0.48289    0.00129    7
   18      0.105D-07      0.857D-09      -225.06239760    393.112857   -0.33314   -0.48289    0.00129    8
   19      0.802D-08      0.257D-09      -225.06239760    393.112857   -0.33314   -0.48289    0.00129    9
   20      0.175D-08      0.637D-10      -225.06239760    393.112857   -0.33314   -0.48289    0.00129    9
   21      0.293D-09      0.224D-10      -225.06239760    393.112857   -0.33314   -0.48289    0.00129    9
   22      0.531D-10      0.682D-11      -225.06239760    393.112857   -0.33314   -0.48289    0.00129    9
   23      0.185D-10      0.196D-11      -225.06239760    393.112857   -0.33314   -0.48289    0.00129    9
   24      0.625D-11      0.727D-12      -225.06239760    393.112857   -0.33314   -0.48289    0.00129    9
   25      0.160D-11      0.369D-12      -225.06239760    393.112857   -0.33314   -0.48289    0.00129    8
   26      0.108D-11      0.844D-13      -225.06239760    393.112857   -0.33314   -0.48289    0.00129    8
   27      0.763D-12      0.494D-13      -225.06239760    393.112857   -0.33314   -0.48289    0.00129    8
   28      0.450D-12      0.405D-13      -225.06239760    393.112857   -0.33314   -0.48289    0.00129    9
   29      0.389D-12      0.350D-13      -225.06239760    393.112857   -0.33314   -0.48289    0.00129    9
   30      0.208D-12      0.419D-13      -225.06239760    393.112857   -0.33314   -0.48289    0.00129    9
   31      0.195D-12      0.287D-13      -225.06239760    393.112857   -0.33314   -0.48289    0.00129    9
   32      0.238D-12      0.252D-13      -225.06239760    393.112857   -0.33314   -0.48289    0.00129    9
   33      0.155D-12      0.262D-13      -225.06239760    393.112857   -0.33314   -0.48289    0.00129    9
   34      0.174D-12      0.323D-13      -225.06239760    393.112857   -0.33314   -0.48289    0.00129    9
   35      0.984D-13      0.246D-13      -225.06239760    393.112857   -0.33314   -0.48289    0.00129    0

 Final occupancy:  17

 !RHF STATE 1.1 Energy               -225.062397601613
 Nuclear energy                       117.38250957
 One-electron energy                 -539.00133576
 Two-electron energy                  196.55642858
 Virial quotient                       -1.00219599
 !RHF STATE 1.1 Dipole moment          -0.33313992    -0.48289479     0.00128869
 Dipole moment /Debye                  -0.84670177    -1.22731574     0.00327530

 Orbital energies:

         1.1          2.1          3.1          4.1          5.1          6.1          7.1          8.1          9.1         10.1
    -20.640277   -15.714604   -15.549187   -11.271038    -1.515021    -1.140353    -1.076054    -0.862259    -0.691238    -0.675848

        11.1         12.1         13.1         14.1         15.1         16.1         17.1         18.1         19.1
     -0.636132    -0.624169    -0.623657    -0.555504    -0.534388    -0.428442    -0.406067     0.077607     0.084545


 **********************************************************************************************************************************
 DATASETS  * FILE   NREC   LENGTH (MB)   RECORD NAMES
              1      19      202.24       500      610      700      900      950      970     1000      129      960     1100   
                                          VAR    BASINP    GEOM    SYMINP    ZMAT    AOBASIS   BASIS     P2S    ABASIS      S 
                                         1400     1410     1200     1210     1080     1600     1650     1300     1700   
                                           T        V       H0       H01     AOSYM     SMH    MOLCAS    ERIS     OPER   

              2       3        0.72       700     1000     2100   
                                         GEOM     BASIS     RHF  

 PROGRAMS   *        TOTAL       RHF       INT
 CPU TIMES  *        10.15      8.02      2.09
 REAL TIME  *        11.57 SEC
 DISK USED  *       777.49 MB      
 GA USED    *         0.00 MB       (max)       0.00 MB       (current)
 **********************************************************************************************************************************


1PROGRAM * CCSD (Closed-shell coupled cluster)     Authors: C. Hampel, H.-J. Werner, 1991, M. Deegan, P.J. Knowles, 1992


 Convergence thresholds:  THRVAR = 1.00D-08  THRDEN = 1.00D-12

 CCSD(T)     terms to be evaluated (factor= 1.000)


 Number of core orbitals:           4 (   4 )
 Number of closed-shell orbitals:  13 (  13 )
 Number of external orbitals:     105 ( 105 )

 Molecular orbitals read from record     2100.2  Type=RHF/CANONICAL (state 1.1)

 Number of N-1 electron functions:              13
 Number of N-2 electron functions:              91
 Number of singly external CSFs:              1365
 Number of doubly external CSFs:            932295
 Total number of CSFs:                      933661

 Length of J-op  integral file:               0.00 MB
 Length of K-op  integral file:               1.06 MB
 Length of 3-ext integral record:             0.00 MB

 Memory could be reduced to 20.68 Mwords without degradation in triples

 Integral transformation finished. Total CPU:   1.25 sec, npass=  1  Memory used:  15.40 MW

 Reference energy:                   -225.06239760

 MP2 singlet pair energy:              -0.44860162
 MP2 triplet pair energy:              -0.26464027
 MP2 correlation energy:               -0.71324189
 MP2 total energy:                   -225.77563949

 SCS-MP2 correlation energy:           -0.70298700   (PS=  1.200000  PT=  0.333333)
 SCS-MP2 total energy:               -225.76538460

 ITER.      SQ.NORM     CORR.ENERGY   TOTAL ENERGY   ENERGY CHANGE        DEN1      VAR(S)    VAR(P)  DIIS     TIME
   1      1.24159895    -0.74723034  -225.80962794    -0.03398845    -0.01022465  0.52D-02  0.49D-02  1  1     3.88
   2      1.26337908    -0.75031862  -225.81271622    -0.00308828    -0.02110834  0.17D-03  0.87D-03  2  2     6.54
   3      1.27338408    -0.75102351  -225.81342111    -0.00070489    -0.00461172  0.12D-03  0.62D-04  3  3     9.20
   4      1.27753861    -0.75098899  -225.81338659     0.00003452    -0.00137319  0.11D-04  0.11D-04  4  4    11.87
   5      1.27919173    -0.75100700  -225.81340460    -0.00001801    -0.00036054  0.19D-05  0.17D-05  5  5    14.54
   6      1.27965152    -0.75097619  -225.81337379     0.00003081    -0.00005483  0.15D-06  0.33D-06  6  6    17.21
   7      1.27975204    -0.75097339  -225.81337099     0.00000280    -0.00000375  0.33D-07  0.87D-07  6  2    19.89
   8      1.27977576    -0.75097414  -225.81337174    -0.00000075    -0.00000032  0.43D-08  0.20D-07  6  1    22.57
   9      1.27977604    -0.75097353  -225.81337113     0.00000061     0.00000435  0.26D-08  0.32D-08  6  4    25.24
  10      1.27977836    -0.75097432  -225.81337192    -0.00000079    -0.00000121  0.52D-09  0.44D-09  6  3    27.90
  11      1.27977628    -0.75097453  -225.81337213    -0.00000021     0.00000043  0.17D-09  0.78D-10  6  5    30.58
  12      1.27977478    -0.75097460  -225.81337220    -0.00000007     0.00000032  0.39D-10  0.17D-10  6  6    33.25
  13      1.27977316    -0.75097472  -225.81337232    -0.00000012     0.00000040  0.55D-11  0.39D-11  6  1    35.93
  14      1.27977248    -0.75097473  -225.81337234    -0.00000001     0.00000018  0.12D-11  0.56D-12  6  2    38.60
  15      1.27977222    -0.75097474  -225.81337234    -0.00000001     0.00000005  0.20D-12  0.86D-13  6  4    41.28
  16      1.27977216    -0.75097475  -225.81337235    -0.00000000     0.00000001  0.57D-13  0.23D-13  6  3    43.95
  17      1.27977214    -0.75097475  -225.81337235     0.00000000    -0.00000000  0.99D-14  0.48D-14  6  6    46.61
  18      1.27977214    -0.75097475  -225.81337235    -0.00000000    -0.00000000  0.15D-14  0.10D-14  6  5    49.28
  19      1.27977214    -0.75097475  -225.81337235     0.00000000    -0.00000000  0.28D-15  0.23D-15  6  1    51.96
  20      1.27977214    -0.75097475  -225.81337235     0.00000000    -0.00000000  0.13D-15  0.71D-16  6  2    54.64
  21      1.27977214    -0.75097475  -225.81337235     0.00000000     0.00000000  0.70D-16  0.19D-16  6  6    57.31
  22      1.27977214    -0.75097475  -225.81337235     0.00000000    -0.00000000  0.41D-16  0.68D-17  6  4    59.98
  23      1.27977214    -0.75097475  -225.81337235     0.00000000    -0.00000000  0.23D-16  0.28D-17  6  3    62.66
  24      1.27977214    -0.75097475  -225.81337235    -0.00000000    -0.00000000  0.11D-16  0.17D-17  6  5    65.34
  25      1.27977214    -0.75097475  -225.81337235     0.00000000    -0.00000000  0.45D-17  0.12D-17  6  1    68.01
  26      1.27977214    -0.75097475  -225.81337235    -0.00000000    -0.00000000  0.77D-18  0.49D-18  6  2    70.68
  27      1.27977214    -0.75097475  -225.81337235    -0.00000000     0.00000000  0.74D-19  0.13D-18  6  6    73.36
  28      1.27977214    -0.75097475  -225.81337235    -0.00000000     0.00000000  0.20D-19  0.29D-19  6  3    76.02

 Norm of t1 vector:      0.11115544      S-energy:     0.00000000      T1 diagnostic:  0.01541449
                                                                       D1 diagnostic:  0.04945538

 Doubles amplitudes (print threshold =  0.500E-01):

         I         J         SYM. A    SYM. B    A         B      T(IJ, AB)

        11        11         1         1         2         2     -0.05746102


 Total CPU time for triples:     38.90 sec


 RESULTS
 =======

  Reference energy                   -225.062397601613
  CCSD singlet pair energy             -0.516899880968
  CCSD triplet pair energy             -0.234074864453
  CCSD correlation energy              -0.750974745419

  Triples (T) contribution             -0.026301620589
  Total correlation energy             -0.777276366009

  CCSD total energy                  -225.813372347032
  CCSD[T] energy                     -225.841281932679
  CCSD-T energy                      -225.839182084069
 !CCSD(T) total energy               -225.839673967621

 Timing summary (sec):

 STEP                 CPU(USER)    SYS     CPU(TOT)    WALL
 Transformation          1.29      0.13      1.42      1.43
 CCSD iterations        74.73      2.05     76.78     76.85
 Triples                38.90      0.81     39.71     39.72

 Program statistics:

 Available memory in ccsd:               999999224
 Min. memory needed in ccsd:               2510565
 Max. memory used in ccsd:                 3320127
 Max. memory used in cckext:               2903072 (28 integral passes)



 **********************************************************************************************************************************
 DATASETS  * FILE   NREC   LENGTH (MB)   RECORD NAMES
              1      20      279.63       500      610      700      900      950      970     1000      129      960     1100   
                                          VAR    BASINP    GEOM    SYMINP    ZMAT    AOBASIS   BASIS     P2S    ABASIS      S 
                                         1400     1410     1200     1210     1080     1600     1650     1300     1700     1380   
                                           T        V       H0       H01     AOSYM     SMH    MOLCAS    ERIS     OPER     JKOP   

              2       3        0.72       700     1000     2100   
                                         GEOM     BASIS     RHF  

 PROGRAMS   *        TOTAL   CCSD(T)       RHF       INT
 CPU TIMES  *       125.08    114.93      8.02      2.09
 REAL TIME  *       129.62 SEC
 DISK USED  *       777.49 MB      
 GA USED    *         0.00 MB       (max)       0.00 MB       (current)
 **********************************************************************************************************************************

        CCSD(T)         RHF-SCF 
   -225.83967397   -225.06239760
 **********************************************************************************************************************************
 Variable memory released
