
 Primary working directories    : /tmp/943417.148.gen6.q
 Secondary working directories  : /tmp/943417.148.gen6.q
 Wavefunction directory         : /home/vulcan/mel64643/wfu/
 Main file repository           : /tmp/943417.148.gen6.q/

 ARCHNAME  : Linux/x86_64
 FC        : /opt/intel/compilers_and_libraries_2016.1.150/linux/bin/intel64/ifort
 FCVERSION : 16.0.1
 BLASLIB   : -mkl
 id        : ccgc

 Nodes     nprocs
 n091         1
 ga_uses_ma=false, calling ma_init with nominal heap.
 GA-space will be limited to   8.0 MW (determined by -G option)

 Using customized tuning parameters: mindgm=10; mindgv=16; mindgc=4; mindgr=1; noblas=0; mincuda=1000; minvec=7
 default implementation of scratch files=df  

 ***,Optimization of nh3_nitrosmethane
 memory,1000,m
 gthresh,energy=1.0d-12,orbital=1.0d-10,oneint=1.0d-16,twoint=1.0d-16,optgrad=1.0d-6,compress=1.0d-13
 geomtyp=xyz
 
 bohr
 geometry = {
  N   -5.2252811581   -0.1829920774   -0.0008970626
  H   -6.2987263935    0.2350359488   -1.5350105095
  H   -3.7609417557    1.0600917139    0.0022985058
  H   -6.3004916885    0.2292271735    1.5335519516
  H   -0.9224202122   -2.4030127982    0.0039475433
  H    1.8865309286   -3.4405749598   -1.6696530306
  H    1.8837656932   -3.4314765173    1.6637240044
  C    1.1381318357   -2.4721713018    0.0025465885
  N    2.2674276100    0.0961643437   -0.0001744498
  O    0.6961236304    1.7867654836   -0.0003335412
 }
 
 basis=cc-pvdz
 {rhf;maxit,200}
 {ccsd(t);maxit,200}

 Variables initialized (661), CPU time= 0.01 sec
 Commands  initialized (458), CPU time= 0.00 sec, 486 directives.
 Default parameters read. Elapsed time= 0.05 sec

 Checking input...
 Passed
1


                                         ***  PROGRAM SYSTEM MOLPRO  ***
                         Copyright, University College Cardiff Consultants Limited, 2008

                                    Version 2010.1 linked May 16 2016 07:17:05


 **********************************************************************************************************************************
 LABEL *   Optimization of nh3_nitrosmethane                                             
 Linux-4.4.3/n091(x86_64) 64 bit mpp version                                             DATE: 25-Oct-23          TIME: 16:44:49  
 **********************************************************************************************************************************

 SHA1:             9e8077add272b0f3cad6f7df79ec5211205f459d
 **********************************************************************************************************************************

 THRESHOLDS:

 ZERO    =  1.00D-12  ONEINT  =  1.00D-16  TWOINT  =  1.00D-16  PREFAC  =  1.00D-14  LOCALI  =  1.00D-09  EORDER  =  1.00D-04
 ENERGY  =  1.00D-12  ETEST   =  0.00D+00  EDENS   =  0.00D+00  THRDEDEF=  1.00D-06  GRADIENT=  1.00D-02  STEP    =  1.00D-03
 ORBITAL =  1.00D-10  CIVEC   =  1.00D-05  COEFF   =  1.00D-04  PRINTCI =  5.00D-02  PUNCHCI =  9.90D+01  OPTGRAD =  1.00D-06
 OPTENERG=  1.00D-06  OPTSTEP =  3.00D-04  THRGRAD =  1.00D-10  COMPRESS=  1.00D-13  VARMIN  =  1.00D-07  VARMAX  =  1.00D-03
 THRDOUB =  0.00D+00  THRDIV  =  1.00D-05  THRRED  =  1.00D-07  THRPSP  =  1.00D+00  THRDC   =  1.00D-10  THRCS   =  1.00D-10
 THRNRM  =  1.00D-08  THREQ   =  0.00D+00  THRDE   =  1.00D+00  THRREF  =  1.00D-05  SPARFAC =  1.00D+00  THRDLP  =  1.00D-07
 THRDIA  =  1.00D-10  THRDLS  =  1.00D-07  THRGPS  =  0.00D+00  THRKEX  =  0.00D+00  THRDIS  =  2.00D-01  THRVAR  =  1.00D-10
 THRLOC  =  1.00D-06  THRGAP  =  1.00D-06  THRLOCT = -1.00D+00  THRGAPT = -1.00D+00  THRORB  =  1.00D-06  THRMLTP =  0.00D+00
 THRCPQCI=  1.00D-10  KEXTA   =  0.00D+00  THRCOARS=  0.00D+00  SYMTOL  =  1.00D-06  GRADTOL =  1.00D-06  THROVL  =  1.00D-08
 THRORTH =  1.00D-08  GRID    =  1.00D-06  GRIDMAX =  1.00D-03  DTMAX   =  0.00D+00

 SETTING GEOMTYP        =    XYZ
 ZUNIT=BOHR
 

 Variable memory set to 1000000000 words,  buffer space   230000 words

 SETTING BASIS          =    CC-PVDZ


 Recomputing integrals since basis changed


 Using spherical harmonics

 Library entry N      S cc-pVDZ              selected for orbital group  1
 Library entry N      P cc-pVDZ              selected for orbital group  1
 Library entry N      D cc-pVDZ              selected for orbital group  1
 Library entry H      S cc-pVDZ              selected for orbital group  2
 Library entry H      P cc-pVDZ              selected for orbital group  2
 Library entry C      S cc-pVDZ              selected for orbital group  3
 Library entry C      P cc-pVDZ              selected for orbital group  3
 Library entry C      D cc-pVDZ              selected for orbital group  3
 Library entry O      S cc-pVDZ              selected for orbital group  5
 Library entry O      P cc-pVDZ              selected for orbital group  5
 Library entry O      D cc-pVDZ              selected for orbital group  5

1PROGRAM * SEWARD (Integral evaluation for generally contracted gaussian basis sets)     Author: Roland Lindh, 1990

 Geometry written to block  1 of record 700


 Point group  C1  



 ATOMIC COORDINATES

 NR  ATOM    CHARGE       X              Y              Z

   1  N       7.00   -5.225281158   -0.182992077   -0.000897063
   2  H       1.00   -6.298726393    0.235035949   -1.535010509
   3  H       1.00   -3.760941756    1.060091714    0.002298506
   4  H       1.00   -6.300491689    0.229227173    1.533551952
   5  H       1.00   -0.922420212   -2.403012798    0.003947543
   6  H       1.00    1.886530929   -3.440574960   -1.669653031
   7  H       1.00    1.883765693   -3.431476517    1.663724004
   8  C       6.00    1.138131836   -2.472171302    0.002546588
   9  N       7.00    2.267427610    0.096164344   -0.000174450
  10  O       8.00    0.696123630    1.786765484   -0.000333541

 Bond lengths in Bohr (Angstrom)

 1-2  1.918472354  1-3  1.920822066  1-4  1.918472354  5-8  2.061712784  6-8  2.072235125
     ( 1.015211846)     ( 1.016455260)     ( 1.015211846)     ( 1.091011417)     ( 1.096579600)

  7- 8  2.058092989   8- 9  2.805648648   9-10  2.308057286
       ( 1.089095904)       ( 1.484685321)       ( 1.221371313)

 Bond angles

  2-1-3  106.67095330   2-1-4  106.21107541   3-1-4  106.67095305   5-8-6  112.15889658

  5-8-7  112.15890075   5-8-9  111.81278832   6-8-7  107.61734862   6-8-9  106.35838523

  7- 8- 9  106.35838748   8- 9-10  113.35946297

 NUCLEAR CHARGE:                   34
 NUMBER OF PRIMITIVE AOS:         150
 NUMBER OF SYMMETRY AOS:          146
 NUMBER OF CONTRACTIONS:           86   (  86A   )
 NUMBER OF CORE ORBITALS:           4   (   4A   )
 NUMBER OF VALENCE ORBITALS:       22   (  22A   )


 NUCLEAR REPULSION ENERGY  117.25091941


 Eigenvalues of metric

         1 0.632E-02 0.978E-02 0.151E-01 0.180E-01 0.299E-01 0.370E-01 0.392E-01 0.407E-01


 Contracted 2-electron integrals neglected if value below      1.0D-16
 AO integral compression algorithm  1   Integral accuracy      1.0D-16

     52.429 MB (compressed) written to integral file ( 81.7%)

     Node minimum: 52.429 MB, node maximum: 52.429 MB


 NUMBER OF SORTED TWO-ELECTRON INTEGRALS:    6999411.     BUFFER LENGTH:  32768
 NUMBER OF SEGMENTS:   1  SEGMENT LENGTH:    6999411      RECORD LENGTH: 524288

 Memory used in sort:       7.56 MW

 SORT1 READ     8004259. AND WROTE     6868734. INTEGRALS IN     20 RECORDS. CPU TIME:     0.07 SEC, REAL TIME:     0.11 SEC
 SORT2 READ     6868734. AND WROTE     6999411. INTEGRALS IN    200 RECORDS. CPU TIME:     0.08 SEC, REAL TIME:     0.11 SEC

 FILE SIZES:   FILE 1:    48.2 MBYTE,  FILE 4:    83.9 MBYTE,   TOTAL:    132.1 MBYTE

 OPERATOR DM      FOR CENTER  0  COORDINATES:    0.000000    0.000000    0.000000


 **********************************************************************************************************************************
 DATASETS  * FILE   NREC   LENGTH (MB)   RECORD NAMES
              1      19       48.29       500      610      700      900      950      970     1000      129      960     1100   
                                          VAR    BASINP    GEOM    SYMINP    ZMAT    AOBASIS   BASIS     P2S    ABASIS      S 
                                         1400     1410     1200     1210     1080     1600     1650     1300     1700   
                                           T        V       H0       H01     AOSYM     SMH    MOLCAS    ERIS     OPER   

 PROGRAMS   *        TOTAL       INT
 CPU TIMES  *         0.77      0.73
 REAL TIME  *         1.05 SEC
 DISK USED  *       185.33 MB      
 GA USED    *         0.00 MB       (max)       0.00 MB       (current)
 **********************************************************************************************************************************

1PROGRAM * RHF-SCF (CLOSED SHELL)       Authors: W. Meyer, H.-J. Werner


 NUMBER OF ELECTRONS:      17+   17-    SPACE SYMMETRY=1    SPIN SYMMETRY: Singlet 
 CONVERGENCE THRESHOLDS:    1.00E-10 (Density)    1.00E-13 (Energy)
 MAX. NUMBER OF ITERATIONS:      200
 INTERPOLATION TYPE:            DIIS
 INTERPOLATION STEPS:              2 (START)      1 (STEP)
 LEVEL SHIFTS:                  0.00 (CLOSED)  0.00 (OPEN) 



 Orbital guess generated from atomic densities. Full valence occupancy:   26

 Molecular orbital dump at record        2100.2

 ITERATION    DDIFF          GRAD             ENERGY        2-EL.EN.            DIPOLE MOMENTS         DIIS
    1      0.000D+00      0.000D+00      -224.94431517    393.539988    0.11492   -0.59079   -0.00148    0
    2      0.000D+00      0.101D-01      -225.00531064    392.983323   -0.59566   -0.30440    0.00173    1
    3      0.190D-01      0.704D-02      -225.03905587    393.504955   -0.24414   -0.52588    0.00203    2
    4      0.835D-02      0.140D-02      -225.04125519    393.397166   -0.32406   -0.43205    0.00236    3
    5      0.218D-02      0.534D-03      -225.04163820    393.392085   -0.32545   -0.45866    0.00258    4
    6      0.916D-03      0.129D-03      -225.04167510    393.414691   -0.33035   -0.45683    0.00264    5
    7      0.306D-03      0.514D-04      -225.04168098    393.402367   -0.33195   -0.45703    0.00265    6
    8      0.124D-03      0.201D-04      -225.04168187    393.407936   -0.33273   -0.45699    0.00265    7
    9      0.441D-04      0.848D-05      -225.04168205    393.406571   -0.33293   -0.45668    0.00264    8
   10      0.234D-04      0.238D-05      -225.04168207    393.406388   -0.33299   -0.45651    0.00264    8
   11      0.688D-05      0.714D-06      -225.04168207    393.406438   -0.33300   -0.45644    0.00264    8
   12      0.194D-05      0.228D-06      -225.04168207    393.406401   -0.33301   -0.45642    0.00264    8
   13      0.784D-06      0.752D-07      -225.04168207    393.406395   -0.33301   -0.45642    0.00264    8
   14      0.193D-06      0.389D-07      -225.04168207    393.406396   -0.33301   -0.45642    0.00264    8
   15      0.102D-06      0.141D-07      -225.04168207    393.406396   -0.33301   -0.45642    0.00264    8
   16      0.319D-07      0.103D-07      -225.04168207    393.406395   -0.33301   -0.45642    0.00264    8
   17      0.464D-07      0.679D-08      -225.04168207    393.406396   -0.33301   -0.45642    0.00264    8
   18      0.628D-07      0.189D-08      -225.04168207    393.406396   -0.33301   -0.45642    0.00264    9
   19      0.157D-07      0.568D-09      -225.04168207    393.406396   -0.33301   -0.45642    0.00264    9
   20      0.236D-08      0.167D-09      -225.04168207    393.406396   -0.33301   -0.45642    0.00264    9
   21      0.462D-09      0.405D-10      -225.04168207    393.406396   -0.33301   -0.45642    0.00264    9
   22      0.117D-09      0.127D-10      -225.04168207    393.406396   -0.33301   -0.45642    0.00264    9
   23      0.291D-10      0.501D-11      -225.04168207    393.406396   -0.33301   -0.45642    0.00264    0

 Final occupancy:  17

 !RHF STATE 1.1 Energy               -225.041682069798
 Nuclear energy                       117.25091941
 One-electron energy                 -538.99579941
 Two-electron energy                  196.70319793
 Virial quotient                       -1.00165543
 !RHF STATE 1.1 Dipole moment          -0.33301031    -0.45641521     0.00264143
 Dipole moment /Debye                  -0.84637234    -1.16001578     0.00671341

 Orbital energies:

         1.1          2.1          3.1          4.1          5.1          6.1          7.1          8.1          9.1         10.1
    -20.626264   -15.699930   -15.537165   -11.266466    -1.502440    -1.130524    -1.070833    -0.855734    -0.683289    -0.666747

        11.1         12.1         13.1         14.1         15.1         16.1         17.1         18.1         19.1
     -0.630088    -0.614877    -0.613601    -0.550467    -0.526541    -0.420070    -0.399666     0.107570     0.186970


 **********************************************************************************************************************************
 DATASETS  * FILE   NREC   LENGTH (MB)   RECORD NAMES
              1      19       48.29       500      610      700      900      950      970     1000      129      960     1100   
                                          VAR    BASINP    GEOM    SYMINP    ZMAT    AOBASIS   BASIS     P2S    ABASIS      S 
                                         1400     1410     1200     1210     1080     1600     1650     1300     1700   
                                           T        V       H0       H01     AOSYM     SMH    MOLCAS    ERIS     OPER   

              2       3        0.57       700     1000     2100   
                                         GEOM     BASIS     RHF  

 PROGRAMS   *        TOTAL       RHF       INT
 CPU TIMES  *         1.84      1.07      0.73
 REAL TIME  *         2.26 SEC
 DISK USED  *       185.33 MB      
 GA USED    *         0.00 MB       (max)       0.00 MB       (current)
 **********************************************************************************************************************************


1PROGRAM * CCSD (Closed-shell coupled cluster)     Authors: C. Hampel, H.-J. Werner, 1991, M. Deegan, P.J. Knowles, 1992


 Convergence thresholds:  THRVAR = 1.00D-08  THRDEN = 1.00D-12

 CCSD(T)     terms to be evaluated (factor= 1.000)


 Number of core orbitals:           4 (   4 )
 Number of closed-shell orbitals:  13 (  13 )
 Number of external orbitals:      69 (  69 )

 Molecular orbitals read from record     2100.2  Type=RHF/CANONICAL (state 1.1)

 Number of N-1 electron functions:              13
 Number of N-2 electron functions:              91
 Number of singly external CSFs:               897
 Number of doubly external CSFs:            402753
 Total number of CSFs:                      403651

 Length of J-op  integral file:               0.00 MB
 Length of K-op  integral file:               0.54 MB
 Length of 3-ext integral record:             0.00 MB

 Memory could be reduced to 6.46 Mwords without degradation in triples

 Integral transformation finished. Total CPU:   0.25 sec, npass=  1  Memory used:   5.81 MW

 Reference energy:                   -225.04168207

 MP2 singlet pair energy:              -0.43045617
 MP2 triplet pair energy:              -0.25043221
 MP2 correlation energy:               -0.68088838
 MP2 total energy:                   -225.72257045

 SCS-MP2 correlation energy:           -0.67237189   (PS=  1.200000  PT=  0.333333)
 SCS-MP2 total energy:               -225.71405396

 ITER.      SQ.NORM     CORR.ENERGY   TOTAL ENERGY   ENERGY CHANGE        DEN1      VAR(S)    VAR(P)  DIIS     TIME
   1      1.22736164    -0.71649754  -225.75817961    -0.03560916    -0.01284828  0.45D-02  0.47D-02  1  1     0.92
   2      1.24817039    -0.71977486  -225.76145693    -0.00327732    -0.02068608  0.13D-03  0.83D-03  2  2     1.60
   3      1.25729785    -0.72047982  -225.76216189    -0.00070496    -0.00436889  0.10D-03  0.61D-04  3  3     2.28
   4      1.26110673    -0.72047023  -225.76215230     0.00000958    -0.00128976  0.80D-05  0.11D-04  4  4     2.97
   5      1.26258809    -0.72049096  -225.76217303    -0.00002073    -0.00033415  0.15D-05  0.17D-05  5  5     3.65
   6      1.26299945    -0.72046225  -225.76214432     0.00002871    -0.00004827  0.84D-07  0.36D-06  6  6     4.34
   7      1.26309129    -0.72046044  -225.76214251     0.00000181    -0.00000211  0.20D-07  0.97D-07  6  2     5.02
   8      1.26311064    -0.72046123  -225.76214330    -0.00000078    -0.00000003  0.44D-08  0.21D-07  6  1     5.70
   9      1.26310961    -0.72046059  -225.76214266     0.00000063     0.00000407  0.36D-08  0.27D-08  6  4     6.38
  10      1.26311043    -0.72046169  -225.76214376    -0.00000109    -0.00000128  0.38D-09  0.34D-09  6  3     7.07
  11      1.26310865    -0.72046181  -225.76214388    -0.00000013     0.00000038  0.11D-09  0.57D-10  6  5     7.76
  12      1.26310765    -0.72046186  -225.76214393    -0.00000005     0.00000022  0.27D-10  0.12D-10  6  6     8.45
  13      1.26310666    -0.72046195  -225.76214402    -0.00000008     0.00000031  0.46D-11  0.32D-11  6  2     9.13
  14      1.26310603    -0.72046196  -225.76214403    -0.00000002     0.00000017  0.19D-11  0.73D-12  6  1     9.81
  15      1.26310568    -0.72046198  -225.76214405    -0.00000002     0.00000009  0.50D-12  0.19D-12  6  4    10.49
  16      1.26310557    -0.72046199  -225.76214406    -0.00000001     0.00000002  0.31D-12  0.79D-13  6  3    11.18
  17      1.26310553    -0.72046199  -225.76214406    -0.00000000     0.00000000  0.19D-12  0.36D-13  6  5    11.85
  18      1.26310551    -0.72046199  -225.76214406    -0.00000000     0.00000000  0.10D-12  0.14D-13  6  6    12.54
  19      1.26310551    -0.72046199  -225.76214406     0.00000000    -0.00000000  0.37D-13  0.65D-14  6  2    13.22
  20      1.26310551    -0.72046199  -225.76214406     0.00000000     0.00000000  0.12D-13  0.36D-14  6  1    13.90
  21      1.26310552    -0.72046199  -225.76214406     0.00000000    -0.00000000  0.22D-14  0.16D-14  6  4    14.58
  22      1.26310553    -0.72046199  -225.76214406     0.00000000    -0.00000000  0.40D-15  0.42D-15  6  5    15.27
  23      1.26310553    -0.72046199  -225.76214406     0.00000000    -0.00000000  0.93D-16  0.65D-16  6  1    15.95
  24      1.26310553    -0.72046199  -225.76214406    -0.00000000    -0.00000000  0.27D-16  0.14D-16  6  3    16.64
  25      1.26310553    -0.72046199  -225.76214406    -0.00000000     0.00000000  0.56D-17  0.40D-17  6  6    17.32
  26      1.26310553    -0.72046199  -225.76214406    -0.00000000     0.00000000  0.83D-18  0.58D-18  6  2    18.00
  27      1.26310553    -0.72046199  -225.76214406    -0.00000000     0.00000000  0.56D-19  0.46D-19  6  1    18.68
  28      1.26310553    -0.72046199  -225.76214406     0.00000000     0.00000000  0.13D-19  0.97D-20  6  4    19.37
  29      1.26310553    -0.72046199  -225.76214406    -0.00000000     0.00000000  0.36D-20  0.15D-20  6  5    20.05
  30      1.26310553    -0.72046199  -225.76214406     0.00000000    -0.00000000  0.72D-21  0.23D-21  6  3    20.74

 Norm of t1 vector:      0.10113805      S-energy:    -0.00000000      T1 diagnostic:  0.01402532
                                                                       D1 diagnostic:  0.05174911

 Doubles amplitudes (print threshold =  0.500E-01):

         I         J         SYM. A    SYM. B    A         B      T(IJ, AB)

         7         7         1         1         1         1     -0.05946962
        11         7         1         1         1         1     -0.06608373
        11        11         1         1         1         1     -0.09906755


 Total CPU time for triples:      6.14 sec


 RESULTS
 =======

  Reference energy                   -225.041682069798
  CCSD singlet pair energy             -0.499666234266
  CCSD triplet pair energy             -0.220795753417
  CCSD correlation energy              -0.720461987687

  Triples (T) contribution             -0.021812432270
  Total correlation energy             -0.742274419956

  CCSD total energy                  -225.762144057485
  CCSD[T] energy                     -225.785361428549
  CCSD-T energy                      -225.783549734915
 !CCSD(T) total energy               -225.783956489755

 Timing summary (sec):

 STEP                 CPU(USER)    SYS     CPU(TOT)    WALL
 Transformation          0.27      0.04      0.31      0.30
 CCSD iterations        20.47      0.67     21.14     21.20
 Triples                 6.14      0.16      6.30      6.31

 Program statistics:

 Available memory in ccsd:               999999224
 Min. memory needed in ccsd:               1143606
 Max. memory used in ccsd:                 1480488
 Max. memory used in cckext:               1471436 (30 integral passes)



 **********************************************************************************************************************************
 DATASETS  * FILE   NREC   LENGTH (MB)   RECORD NAMES
              1      20       73.92       500      610      700      900      950      970     1000      129      960     1100   
                                          VAR    BASINP    GEOM    SYMINP    ZMAT    AOBASIS   BASIS     P2S    ABASIS      S 
                                         1400     1410     1200     1210     1080     1600     1650     1300     1700     1380   
                                           T        V       H0       H01     AOSYM     SMH    MOLCAS    ERIS     OPER     JKOP   

              2       3        0.57       700     1000     2100   
                                         GEOM     BASIS     RHF  

 PROGRAMS   *        TOTAL   CCSD(T)       RHF       INT
 CPU TIMES  *        28.73     26.89      1.07      0.73
 REAL TIME  *        30.11 SEC
 DISK USED  *       197.97 MB      
 GA USED    *         0.00 MB       (max)       0.00 MB       (current)
 **********************************************************************************************************************************

        CCSD(T)         RHF-SCF 
   -225.78395649   -225.04168207
 **********************************************************************************************************************************
 Variable memory released
