
 Primary working directories    : /tmp/1011018.231.gen5.q
 Secondary working directories  : /tmp/1011018.231.gen5.q
 Wavefunction directory         : /home/vulcan/mel64643/wfu/
 Main file repository           : /tmp/1011018.231.gen5.q/

 ARCHNAME  : Linux/x86_64
 FC        : /opt/intel/compilers_and_libraries_2016.1.150/linux/bin/intel64/ifort
 FCVERSION : 16.0.1
 BLASLIB   : -mkl
 id        : ccgc

 Nodes     nprocs
 n071         1
 ga_uses_ma=false, calling ma_init with nominal heap.
 GA-space will be limited to   8.0 MW (determined by -G option)

 Using customized tuning parameters: mindgm=10; mindgv=16; mindgc=4; mindgr=1; noblas=0; mincuda=1000; minvec=7
 default implementation of scratch files=df  

 ***,Optimization of ethene_ethyne
 memory,1000,m
 gthresh,energy=1.0d-12,orbital=1.0d-10,oneint=1.0d-16,twoint=1.0d-16,optgrad=1.0d-6,compress=1.0d-13
 geomtyp=xyz
 
 
 
 bohr
 geometry = {
  C   -0.0000000000   -1.2648809110   -3.9698457917
  C    0.0000000000    1.2648809110   -3.9698457917
  H    1.7447851464   -2.3383635094   -3.9715217304
  H   -1.7447851465   -2.3383635094   -3.9715217304
  H   -1.7447851464    2.3383635094   -3.9715217304
  H    1.7447851465    2.3383635094   -3.9715217304
  C   -0.0000000000    0.0000000000    5.3924252803
  C    0.0000000000   -0.0000000000    3.1140329043
  H    0.0000000000   -0.0000000000    1.0986544323
  H   -0.0000000000    0.0000000000    7.4036173393
  X    2.0000000000    0.0000000000    5.4004221540
  X    0.0000000000    2.0000000000    5.4004221540
  X    2.0000000000    0.0000000000    3.1120297780
  X    0.0000000000    2.0000000000    3.1120297780
 }
 
 basis=aug-cc-pvdz, H=cc-pvdz
 {rhf;maxit,200}
 {mp2}

 Variables initialized (661), CPU time= 0.01 sec
 Commands  initialized (458), CPU time= 0.01 sec, 486 directives.
 Default parameters read. Elapsed time= 0.10 sec

 Checking input...
 Passed
1


                                         ***  PROGRAM SYSTEM MOLPRO  ***
                         Copyright, University College Cardiff Consultants Limited, 2008

                                    Version 2010.1 linked May 16 2016 07:17:05


 **********************************************************************************************************************************
 LABEL *   Optimization of ethene_ethyne                                                 
 Linux-4.4.3/n071(x86_64) 64 bit mpp version                                             DATE: 25-Feb-24          TIME: 03:24:39  
 **********************************************************************************************************************************

 SHA1:             9e8077add272b0f3cad6f7df79ec5211205f459d
 **********************************************************************************************************************************

 THRESHOLDS:

 ZERO    =  1.00D-12  ONEINT  =  1.00D-16  TWOINT  =  1.00D-16  PREFAC  =  1.00D-14  LOCALI  =  1.00D-09  EORDER  =  1.00D-04
 ENERGY  =  1.00D-12  ETEST   =  0.00D+00  EDENS   =  0.00D+00  THRDEDEF=  1.00D-06  GRADIENT=  1.00D-02  STEP    =  1.00D-03
 ORBITAL =  1.00D-10  CIVEC   =  1.00D-05  COEFF   =  1.00D-04  PRINTCI =  5.00D-02  PUNCHCI =  9.90D+01  OPTGRAD =  1.00D-06
 OPTENERG=  1.00D-06  OPTSTEP =  3.00D-04  THRGRAD =  1.00D-10  COMPRESS=  1.00D-13  VARMIN  =  1.00D-07  VARMAX  =  1.00D-03
 THRDOUB =  0.00D+00  THRDIV  =  1.00D-05  THRRED  =  1.00D-07  THRPSP  =  1.00D+00  THRDC   =  1.00D-10  THRCS   =  1.00D-10
 THRNRM  =  1.00D-08  THREQ   =  0.00D+00  THRDE   =  1.00D+00  THRREF  =  1.00D-05  SPARFAC =  1.00D+00  THRDLP  =  1.00D-07
 THRDIA  =  1.00D-10  THRDLS  =  1.00D-07  THRGPS  =  0.00D+00  THRKEX  =  0.00D+00  THRDIS  =  2.00D-01  THRVAR  =  1.00D-10
 THRLOC  =  1.00D-06  THRGAP  =  1.00D-06  THRLOCT = -1.00D+00  THRGAPT = -1.00D+00  THRORB  =  1.00D-06  THRMLTP =  0.00D+00
 THRCPQCI=  1.00D-10  KEXTA   =  0.00D+00  THRCOARS=  0.00D+00  SYMTOL  =  1.00D-06  GRADTOL =  1.00D-06  THROVL  =  1.00D-08
 THRORTH =  1.00D-08  GRID    =  1.00D-06  GRIDMAX =  1.00D-03  DTMAX   =  0.00D+00

 SETTING GEOMTYP        =    XYZ
 ZUNIT=BOHR
 

 Variable memory set to 1000000000 words,  buffer space   230000 words

 SETTING BASIS          =    AUG-CC-PVDZ,H=CC-PVDZ


 Recomputing integrals since basis changed


 Using spherical harmonics

 Library entry C      S aug-cc-pVDZ          selected for orbital group  1
 Library entry C      P aug-cc-pVDZ          selected for orbital group  1
 Library entry C      D aug-cc-pVDZ          selected for orbital group  1
 Library entry H      S cc-pVDZ              selected for orbital group  2
 Library entry H      P cc-pVDZ              selected for orbital group  2

1PROGRAM * SEWARD (Integral evaluation for generally contracted gaussian basis sets)     Author: Roland Lindh, 1990

 Geometry written to block  1 of record 700


 Point group  C2v 



 ATOMIC COORDINATES

 NR  ATOM    CHARGE       X              Y              Z

   1  C       6.00    0.000000000   -1.264880911   -3.969845792
   2  C       6.00    0.000000000    1.264880911   -3.969845792
   3  H       1.00    1.744785146   -2.338363509   -3.971521730
   4  H       1.00   -1.744785146   -2.338363509   -3.971521730
   5  H       1.00   -1.744785146    2.338363509   -3.971521730
   6  H       1.00    1.744785146    2.338363509   -3.971521730
   7  C       6.00    0.000000000    0.000000000    5.392425280
   8  C       6.00    0.000000000    0.000000000    3.114032904
   9  H       1.00    0.000000000    0.000000000    1.098654432
  10  H       1.00    0.000000000    0.000000000    7.403617339

 Bond lengths in Bohr (Angstrom)

 1-2  2.529761822  1-3  2.048570942  1-4  2.048570942  2-5  2.048570942  2-6  2.048570942
     ( 1.338692300)     ( 1.084057054)     ( 1.084057054)     ( 1.084057054)     ( 1.084057054)

  7- 8  2.278392376   7-10  2.011192059   8- 9  2.015378472
       ( 1.205673319)       ( 1.064277001)       ( 1.066492355)

 Bond angles

  1-2-5  121.60198004   1-2-6  121.60198004   2-1-3  121.60198004   2-1-4  121.60198004

  3- 1- 4  116.79595400   5- 2- 6  116.79595400   7- 8- 9  180.00000000   8- 7-10  179.99999879

 NUCLEAR CHARGE:                   30
 NUMBER OF PRIMITIVE AOS:         190
 NUMBER OF SYMMETRY AOS:          182
 NUMBER OF CONTRACTIONS:          122   (  49A1  +  24B1  +  33B2  +  16A2  )
 NUMBER OF CORE ORBITALS:           4   (   3A1  +   0B1  +   1B2  +   0A2  )
 NUMBER OF VALENCE ORBITALS:       22   (  10A1  +   4B1  +   6B2  +   2A2  )


 NUCLEAR REPULSION ENERGY   85.57624157


 Eigenvalues of metric

         1 0.810E-04 0.223E-03 0.291E-02 0.484E-02 0.661E-02 0.102E-01 0.125E-01 0.139E-01
         2 0.561E-02 0.959E-02 0.382E-01 0.443E-01 0.894E-01 0.144E+00 0.153E+00 0.283E+00
         3 0.172E-03 0.269E-03 0.487E-02 0.851E-02 0.112E-01 0.182E-01 0.336E-01 0.504E-01
         4 0.676E-02 0.849E-02 0.271E-01 0.625E-01 0.159E+00 0.200E+00 0.237E+00 0.248E+00


 Contracted 2-electron integrals neglected if value below      1.0D-16
 AO integral compression algorithm  1   Integral accuracy      1.0D-16

     62.915 MB (compressed) written to integral file ( 86.8%)

     Node minimum: 62.915 MB, node maximum: 62.915 MB


 NUMBER OF SORTED TWO-ELECTRON INTEGRALS:    7345979.     BUFFER LENGTH:  32768
 NUMBER OF SEGMENTS:   1  SEGMENT LENGTH:    7345979      RECORD LENGTH: 524288

 Memory used in sort:       7.90 MW

 SORT1 READ     9079163. AND WROTE     7054928. INTEGRALS IN     21 RECORDS. CPU TIME:     0.16 SEC, REAL TIME:     0.22 SEC
 SORT2 READ     7054928. AND WROTE     7345979. INTEGRALS IN    240 RECORDS. CPU TIME:     0.15 SEC, REAL TIME:     0.18 SEC

 FILE SIZES:   FILE 1:    55.4 MBYTE,  FILE 4:    88.1 MBYTE,   TOTAL:    143.5 MBYTE

 OPERATOR DM      FOR CENTER  0  COORDINATES:    0.000000    0.000000    0.000000


 **********************************************************************************************************************************
 DATASETS  * FILE   NREC   LENGTH (MB)   RECORD NAMES
              1      19       55.44       500      610      700      900      950      970     1000      129      960     1100   
                                          VAR    BASINP    GEOM    SYMINP    ZMAT    AOBASIS   BASIS     P2S    ABASIS      S 
                                         1400     1410     1200     1210     1080     1600     1650     1300     1700   
                                           T        V       H0       H01     AOSYM     SMH    MOLCAS    ERIS     OPER   

 PROGRAMS   *        TOTAL       INT
 CPU TIMES  *         1.82      1.69
 REAL TIME  *         2.49 SEC
 DISK USED  *       207.35 MB      
 GA USED    *         0.00 MB       (max)       0.00 MB       (current)
 **********************************************************************************************************************************

1PROGRAM * RHF-SCF (CLOSED SHELL)       Authors: W. Meyer, H.-J. Werner


 NUMBER OF ELECTRONS:      15+   15-
 CONVERGENCE THRESHOLDS:    1.00E-10 (Density)    1.00E-13 (Energy)
 MAX. NUMBER OF ITERATIONS:      200
 INTERPOLATION TYPE:            DIIS
 INTERPOLATION STEPS:              2 (START)      1 (STEP)
 LEVEL SHIFTS:                  0.00 (CLOSED)  0.00 (OPEN) 



 Orbital guess generated from atomic densities. Full valence occupancy:   13   4   7   2

 Molecular orbital dump at record        2100.2

 Initial alpha occupancy:   9   2   3   1
 Initial beta  occupancy:   9   2   3   1
 Wave function symmetry:    1

 ITERATION    DDIFF          GRAD             ENERGY        2-EL.EN.            DIPOLE MOMENTS         DIIS
    1      0.000D+00      0.000D+00      -154.83530497    273.570291    0.00000    0.00000   -0.05893    0
    2      0.000D+00      0.639D-02      -154.86749563    271.190279    0.00000    0.00000   -0.14565    1
    3      0.158D-01      0.199D-02      -154.87044527    272.094957    0.00000    0.00000   -0.12191    2
    4      0.389D-02      0.572D-03      -154.87083628    271.884256    0.00000    0.00000   -0.14117    3
    5      0.164D-02      0.117D-03      -154.87084841    271.901336    0.00000    0.00000   -0.13423    4
    6      0.286D-03      0.521D-04      -154.87085039    271.901740    0.00000    0.00000   -0.13912    5
    7      0.899D-04      0.116D-04      -154.87085053    271.901153    0.00000    0.00000   -0.13883    6
    8      0.284D-04      0.268D-05      -154.87085054    271.901079    0.00000    0.00000   -0.13904    7
    9      0.726D-05      0.649D-06      -154.87085054    271.901115    0.00000    0.00000   -0.13908    7
   10      0.224D-05      0.934D-07      -154.87085054    271.901113    0.00000    0.00000   -0.13908    7
   11      0.397D-06      0.228D-07      -154.87085054    271.901116    0.00000    0.00000   -0.13909    6
   12      0.802D-07      0.100D-07      -154.87085054    271.901114    0.00000    0.00000   -0.13909    6
   13      0.301D-07      0.553D-08      -154.87085054    271.901115    0.00000    0.00000   -0.13909    6
   14      0.241D-07      0.227D-08      -154.87085054    271.901115    0.00000    0.00000   -0.13909    7
   15      0.101D-07      0.816D-09      -154.87085054    271.901115    0.00000    0.00000   -0.13909    8
   16      0.276D-08      0.181D-09      -154.87085054    271.901115    0.00000    0.00000   -0.13909    8
   17      0.478D-09      0.338D-10      -154.87085054    271.901115    0.00000    0.00000   -0.13909    8
   18      0.118D-09      0.967D-11      -154.87085054    271.901115    0.00000    0.00000   -0.13909    8
   19      0.316D-10      0.209D-11      -154.87085054    271.901115    0.00000    0.00000   -0.13909    8
   20      0.113D-10      0.677D-12      -154.87085054    271.901115    0.00000    0.00000   -0.13909    0

 Final occupancy:   9   2   3   1

 !RHF STATE 1.1 Energy               -154.870850540820
 Nuclear energy                        85.57624157
 One-electron energy                 -376.39764954
 Two-electron energy                  135.95055743
 Virial quotient                       -1.00203864
 !RHF STATE 1.1 Dipole moment           0.00000000     0.00000000    -0.13908534
 Dipole moment /Debye                   0.00000000     0.00000000    -0.35349653

 Orbital energies:

         1.1          2.1          3.1          4.1          5.1          6.1          7.1          8.1          9.1         10.1
    -11.250449   -11.246701   -11.242940    -1.044354    -1.025778    -0.759536    -0.671745    -0.595833    -0.386440     0.065150

        11.1
      0.080427

         1.2          2.2          3.2          4.2
     -0.650738    -0.403194     0.092702     0.116053

         1.3          2.3          3.3          4.3          5.3
    -11.248835    -0.803131    -0.403198     0.065102     0.093788

         1.4          2.4          3.4
     -0.515396     0.122321     0.400524


 **********************************************************************************************************************************
 DATASETS  * FILE   NREC   LENGTH (MB)   RECORD NAMES
              1      19       55.44       500      610      700      900      950      970     1000      129      960     1100   
                                          VAR    BASINP    GEOM    SYMINP    ZMAT    AOBASIS   BASIS     P2S    ABASIS      S 
                                         1400     1410     1200     1210     1080     1600     1650     1300     1700   
                                           T        V       H0       H01     AOSYM     SMH    MOLCAS    ERIS     OPER   

              2       3        0.58       700     1000     2100   
                                         GEOM     BASIS     RHF  

 PROGRAMS   *        TOTAL       RHF       INT
 CPU TIMES  *         2.41      0.59      1.69
 REAL TIME  *         3.22 SEC
 DISK USED  *       207.35 MB      
 GA USED    *         0.00 MB       (max)       0.00 MB       (current)
 **********************************************************************************************************************************


1PROGRAM * MP2 (Closed-shell)     Authors: C. Hampel, H.-J. Werner, 1991, M. Deegan, P.J. Knowles, 1992


 Convergence thresholds:  THRVAR = 1.00D-08  THRDEN = 1.00D-12

 Number of core orbitals:           4 (   3   0   1   0 )
 Number of closed-shell orbitals:  11 (   6   2   2   1 )
 Number of external orbitals:     107 (  40  22  30  15 )

 Molecular orbitals read from record     2100.2  Type=RHF/CANONICAL (state 1.1)

 Number of N-1 electron functions:              11
 Number of N-2 electron functions:              66
 Number of singly external CSFs:               359
 Number of doubly external CSFs:            178071
 Total number of CSFs:                      178431

 Length of J-op  integral file:               0.00 MB
 Length of K-op  integral file:               0.33 MB

 Integral transformation finished. Total CPU:   0.08 sec, npass=  1  Memory used:   0.33 MW

 Memory needed for MP2:                      0.02 MW

 SCS-MP2 correlation energy:           -0.547226558873   (PS=  1.200000  PT=  0.333333)
 SCS-MP2 total energy:               -155.418077099693


  Reference energy                   -154.870850540820
  MP2 singlet pair energy              -0.357352473686
  MP2 triplet pair energy              -0.190291484653
  MP2 correlation energy               -0.547643958338

 !MP2 total energy                   -155.418494499158


 **********************************************************************************************************************************
 DATASETS  * FILE   NREC   LENGTH (MB)   RECORD NAMES
              1      20       58.67       500      610      700      900      950      970     1000      129      960     1100   
                                          VAR    BASINP    GEOM    SYMINP    ZMAT    AOBASIS   BASIS     P2S    ABASIS      S 
                                         1400     1410     1200     1210     1080     1600     1650     1300     1700     1380   
                                           T        V       H0       H01     AOSYM     SMH    MOLCAS    ERIS     OPER     JKOP   

              2       3        0.58       700     1000     2100   
                                         GEOM     BASIS     RHF  

 PROGRAMS   *        TOTAL       MP2       RHF       INT
 CPU TIMES  *         2.51      0.09      0.59      1.69
 REAL TIME  *         3.36 SEC
 DISK USED  *       207.35 MB      
 GA USED    *         0.00 MB       (max)       0.00 MB       (current)
 **********************************************************************************************************************************

        MP2             RHF-SCF 
   -155.41849450   -154.87085054
 **********************************************************************************************************************************
 Variable memory released
