
 Primary working directories    : /tmp/662446.164.gen6.q
 Secondary working directories  : /tmp/662446.164.gen6.q
 Wavefunction directory         : /home/vulcan/mel64643/wfu/
 Main file repository           : /tmp/662446.164.gen6.q/

 ARCHNAME  : Linux/x86_64
 FC        : /opt/intel/compilers_and_libraries_2016.1.150/linux/bin/intel64/ifort
 FCVERSION : 16.0.1
 BLASLIB   : -mkl
 id        : ccgc

 Nodes     nprocs
 n074         1
 ga_uses_ma=false, calling ma_init with nominal heap.
 GA-space will be limited to   8.0 MW (determined by -G option)

 Using customized tuning parameters: mindgm=10; mindgv=16; mindgc=4; mindgr=1; noblas=0; mincuda=1000; minvec=7
 default implementation of scratch files=df  

 ***,Optimization of min3
 memory,1000,m
 gthresh,energy=1.0d-12,orbital=1.0d-10,oneint=1.0d-16,twoint=1.0d-16,optgrad=1.0d-6,compress=1.0d-13
 geomtyp=xyz
 
 
 
  bohr
  geometry = {
  C    0.0000000000   -0.0000000000    1.6733153326
  H   -0.0046015243   -1.7271069238    2.7839167150
  H    0.0046015243    1.7271069238    2.7839167150
  C    1.2323876244    0.0004925519   -0.9087204824
  C   -1.2323876244   -0.0004925519   -0.9087204824
  H    2.9933955977    0.0024623004   -1.9227358639
  H   -2.9933955977   -0.0024623004   -1.9227358639
 }
 
 basis=cc-pvdz
 {rhf;maxit,200}
 {ccsd(t);maxit,200}

 Variables initialized (661), CPU time= 0.01 sec
 Commands  initialized (458), CPU time= 0.00 sec, 486 directives.
 Default parameters read. Elapsed time= 0.04 sec

 Checking input...
 Passed
1


                                         ***  PROGRAM SYSTEM MOLPRO  ***
                         Copyright, University College Cardiff Consultants Limited, 2008

                                    Version 2010.1 linked May 16 2016 07:17:05


 **********************************************************************************************************************************
 LABEL *   Optimization of min3                                                          
 Linux-4.4.3/n074(x86_64) 64 bit mpp version                                             DATE: 18-Mar-22          TIME: 17:55:46  
 **********************************************************************************************************************************

 SHA1:             9e8077add272b0f3cad6f7df79ec5211205f459d
 **********************************************************************************************************************************

 THRESHOLDS:

 ZERO    =  1.00D-12  ONEINT  =  1.00D-16  TWOINT  =  1.00D-16  PREFAC  =  1.00D-14  LOCALI  =  1.00D-09  EORDER  =  1.00D-04
 ENERGY  =  1.00D-12  ETEST   =  0.00D+00  EDENS   =  0.00D+00  THRDEDEF=  1.00D-06  GRADIENT=  1.00D-02  STEP    =  1.00D-03
 ORBITAL =  1.00D-10  CIVEC   =  1.00D-05  COEFF   =  1.00D-04  PRINTCI =  5.00D-02  PUNCHCI =  9.90D+01  OPTGRAD =  1.00D-06
 OPTENERG=  1.00D-06  OPTSTEP =  3.00D-04  THRGRAD =  1.00D-10  COMPRESS=  1.00D-13  VARMIN  =  1.00D-07  VARMAX  =  1.00D-03
 THRDOUB =  0.00D+00  THRDIV  =  1.00D-05  THRRED  =  1.00D-07  THRPSP  =  1.00D+00  THRDC   =  1.00D-10  THRCS   =  1.00D-10
 THRNRM  =  1.00D-08  THREQ   =  0.00D+00  THRDE   =  1.00D+00  THRREF  =  1.00D-05  SPARFAC =  1.00D+00  THRDLP  =  1.00D-07
 THRDIA  =  1.00D-10  THRDLS  =  1.00D-07  THRGPS  =  0.00D+00  THRKEX  =  0.00D+00  THRDIS  =  2.00D-01  THRVAR  =  1.00D-10
 THRLOC  =  1.00D-06  THRGAP  =  1.00D-06  THRLOCT = -1.00D+00  THRGAPT = -1.00D+00  THRORB  =  1.00D-06  THRMLTP =  0.00D+00
 THRCPQCI=  1.00D-10  KEXTA   =  0.00D+00  THRCOARS=  0.00D+00  SYMTOL  =  1.00D-06  GRADTOL =  1.00D-06  THROVL  =  1.00D-08
 THRORTH =  1.00D-08  GRID    =  1.00D-06  GRIDMAX =  1.00D-03  DTMAX   =  0.00D+00

 SETTING GEOMTYP        =    XYZ
 ZUNIT=BOHR
 

 Variable memory set to 1000000000 words,  buffer space   230000 words

 SETTING BASIS          =    CC-PVDZ


 Recomputing integrals since basis changed


 Using spherical harmonics

 Library entry C      S cc-pVDZ              selected for orbital group  1
 Library entry C      P cc-pVDZ              selected for orbital group  1
 Library entry C      D cc-pVDZ              selected for orbital group  1
 Library entry H      S cc-pVDZ              selected for orbital group  2
 Library entry H      P cc-pVDZ              selected for orbital group  2

1PROGRAM * SEWARD (Integral evaluation for generally contracted gaussian basis sets)     Author: Roland Lindh, 1990

 Geometry written to block  1 of record 700


 Point group  C2  



 ATOMIC COORDINATES

 NR  ATOM    CHARGE       X              Y              Z

   1  C       6.00    0.000000000    0.000000000    1.673315333
   2  H       1.00   -0.004601524   -1.727106924    2.783916715
   3  H       1.00    0.004601524    1.727106924    2.783916715
   4  C       6.00    1.232387624    0.000492552   -0.908720482
   5  C       6.00   -1.232387624   -0.000492552   -0.908720482
   6  H       1.00    2.993395598    0.002462300   -1.922735864
   7  H       1.00   -2.993395598   -0.002462300   -1.922735864

 Bond lengths in Bohr (Angstrom)

 1-2  2.053376471  1-3  2.053376471  1-4  2.861064216  1-5  2.861064216  4-5  2.464775446
     ( 1.086600030)     ( 1.086600030)     ( 1.514009977)     ( 1.514009977)     ( 1.304302991)

 4-6  2.032087635  5-7  2.032087635
     ( 1.075334463)     ( 1.075334463)

 Bond angles

  1-4-5   64.48518168   1-4-6  145.44878994   1-5-4   64.48518168   1-5-7  145.44878994

  2-1-3  114.51478762   2-1-4  119.28981847   2-1-5  119.14407006   3-1-4  119.14407006

  3-1-5  119.28981847   4-1-5   51.02963663   4-5-7  150.06599292   5-4-6  150.06599292

 NUCLEAR CHARGE:                   22
 NUMBER OF PRIMITIVE AOS:         109
 NUMBER OF SYMMETRY AOS:          106
 NUMBER OF CONTRACTIONS:           62   (  32A   +  30B   )
 NUMBER OF CORE ORBITALS:           3   (   2A   +   1B   )
 NUMBER OF VALENCE ORBITALS:       16   (   8A   +   8B   )


 NUCLEAR REPULSION ENERGY   63.62355055


 Eigenvalues of metric

         1 0.414E-02 0.174E-01 0.239E-01 0.396E-01 0.464E-01 0.522E-01 0.102E+00 0.117E+00
         2 0.172E-02 0.196E-01 0.255E-01 0.332E-01 0.366E-01 0.483E-01 0.653E-01 0.119E+00


 Contracted 2-electron integrals neglected if value below      1.0D-16
 AO integral compression algorithm  1   Integral accuracy      1.0D-16

     10.486 MB (compressed) written to integral file ( 96.9%)

     Node minimum: 10.486 MB, node maximum: 10.486 MB


 NUMBER OF SORTED TWO-ELECTRON INTEGRALS:     984561.     BUFFER LENGTH:  32768
 NUMBER OF SEGMENTS:   1  SEGMENT LENGTH:     984561      RECORD LENGTH: 524288

 Memory used in sort:       1.54 MW

 SORT1 READ     1346430. AND WROTE      960798. INTEGRALS IN      3 RECORDS. CPU TIME:     0.01 SEC, REAL TIME:     0.02 SEC
 SORT2 READ      960798. AND WROTE      984561. INTEGRALS IN     40 RECORDS. CPU TIME:     0.02 SEC, REAL TIME:     0.02 SEC

 FILE SIZES:   FILE 1:    10.4 MBYTE,  FILE 4:    12.6 MBYTE,   TOTAL:     23.0 MBYTE

 OPERATOR DM      FOR CENTER  0  COORDINATES:    0.000000    0.000000    0.000000


 **********************************************************************************************************************************
 DATASETS  * FILE   NREC   LENGTH (MB)   RECORD NAMES
              1      19       10.42       500      610      700      900      950      970     1000      129      960     1100   
                                          VAR    BASINP    GEOM    SYMINP    ZMAT    AOBASIS   BASIS     P2S    ABASIS      S 
                                         1400     1410     1200     1210     1080     1600     1650     1300     1700   
                                           T        V       H0       H01     AOSYM     SMH    MOLCAS    ERIS     OPER   

 PROGRAMS   *        TOTAL       INT
 CPU TIMES  *         0.26      0.22
 REAL TIME  *         0.47 SEC
 DISK USED  *        34.16 MB      
 GA USED    *         0.00 MB       (max)       0.00 MB       (current)
 **********************************************************************************************************************************

1PROGRAM * RHF-SCF (CLOSED SHELL)       Authors: W. Meyer, H.-J. Werner


 NUMBER OF ELECTRONS:      11+   11-
 CONVERGENCE THRESHOLDS:    1.00E-10 (Density)    1.00E-13 (Energy)
 MAX. NUMBER OF ITERATIONS:      200
 INTERPOLATION TYPE:            DIIS
 INTERPOLATION STEPS:              2 (START)      1 (STEP)
 LEVEL SHIFTS:                  0.00 (CLOSED)  0.00 (OPEN) 



 Orbital guess generated from atomic densities. Full valence occupancy:   10   9

 Molecular orbital dump at record        2100.2

 Initial alpha occupancy:   6   5
 Initial beta  occupancy:   6   5
 Wave function symmetry:    1

 ITERATION    DDIFF          GRAD             ENERGY        2-EL.EN.            DIPOLE MOMENTS         DIIS
    1      0.000D+00      0.000D+00      -115.81212652    203.484999    0.00000    0.00000   -0.29748    0
    2      0.000D+00      0.711D-02      -115.83025845    202.394946    0.00000    0.00000   -0.19758    1
    3      0.149D-01      0.224D-02      -115.83188826    203.005722    0.00000    0.00000   -0.21940    2
    4      0.492D-02      0.840D-03      -115.83214489    202.833659    0.00000    0.00000   -0.19487    3
    5      0.159D-02      0.126D-03      -115.83215375    202.836236    0.00000    0.00000   -0.19495    4
    6      0.394D-03      0.334D-04      -115.83215445    202.840374    0.00000    0.00000   -0.19302    5
    7      0.101D-03      0.121D-04      -115.83215453    202.839007    0.00000    0.00000   -0.19291    6
    8      0.334D-04      0.236D-05      -115.83215453    202.839087    0.00000    0.00000   -0.19281    7
    9      0.816D-05      0.407D-06      -115.83215453    202.839089    0.00000    0.00000   -0.19279    7
   10      0.138D-05      0.818D-07      -115.83215453    202.839090    0.00000    0.00000   -0.19279    6
   11      0.369D-06      0.135D-07      -115.83215453    202.839092    0.00000    0.00000   -0.19279    6
   12      0.593D-07      0.268D-08      -115.83215453    202.839091    0.00000    0.00000   -0.19279    6
   13      0.878D-08      0.101D-08      -115.83215453    202.839091    0.00000    0.00000   -0.19279    6
   14      0.232D-08      0.435D-09      -115.83215453    202.839091    0.00000    0.00000   -0.19279    6
   15      0.107D-08      0.149D-09      -115.83215453    202.839091    0.00000    0.00000   -0.19279    6
   16      0.464D-09      0.391D-10      -115.83215453    202.839091    0.00000    0.00000   -0.19279    7
   17      0.139D-09      0.807D-11      -115.83215453    202.839091    0.00000    0.00000   -0.19279    7
   18      0.202D-10      0.251D-11      -115.83215453    202.839091    0.00000    0.00000   -0.19279    0

 Final occupancy:   6   5

 !RHF STATE 1.1 Energy               -115.832154532490
 Nuclear energy                        63.62355055
 One-electron energy                 -280.87525076
 Two-electron energy                  101.41954567
 Virial quotient                       -1.00187783
 !RHF STATE 1.1 Dipole moment           0.00000000     0.00000000    -0.19278757
 Dipole moment /Debye                   0.00000000     0.00000000    -0.48998503

 Orbital energies:

         1.1          2.1          3.1          4.1          5.1          6.1          7.1          8.1
    -11.251197   -11.244758    -1.152480    -0.822568    -0.677122    -0.487125     0.166403     0.220315

         1.2          2.2          3.2          4.2          5.2          6.2          7.2
    -11.249192    -0.766324    -0.594889    -0.418220    -0.354206     0.215488     0.270167


 **********************************************************************************************************************************
 DATASETS  * FILE   NREC   LENGTH (MB)   RECORD NAMES
              1      19       10.42       500      610      700      900      950      970     1000      129      960     1100   
                                          VAR    BASINP    GEOM    SYMINP    ZMAT    AOBASIS   BASIS     P2S    ABASIS      S 
                                         1400     1410     1200     1210     1080     1600     1650     1300     1700   
                                           T        V       H0       H01     AOSYM     SMH    MOLCAS    ERIS     OPER   

              2       3        0.40       700     1000     2100   
                                         GEOM     BASIS     RHF  

 PROGRAMS   *        TOTAL       RHF       INT
 CPU TIMES  *         0.34      0.07      0.22
 REAL TIME  *         0.58 SEC
 DISK USED  *        34.16 MB      
 GA USED    *         0.00 MB       (max)       0.00 MB       (current)
 **********************************************************************************************************************************


1PROGRAM * CCSD (Closed-shell coupled cluster)     Authors: C. Hampel, H.-J. Werner, 1991, M. Deegan, P.J. Knowles, 1992


 Convergence thresholds:  THRVAR = 1.00D-08  THRDEN = 1.00D-12

 CCSD(T)     terms to be evaluated (factor= 1.000)


 Number of core orbitals:           3 (   2   1 )
 Number of closed-shell orbitals:   8 (   4   4 )
 Number of external orbitals:      51 (  26  25 )

 Molecular orbitals read from record     2100.2  Type=RHF/CANONICAL (state 1.1)

 Number of N-1 electron functions:               8
 Number of N-2 electron functions:              36
 Number of singly external CSFs:               204
 Number of doubly external CSFs:             41820
 Total number of CSFs:                       42025

 Length of J-op  integral file:               0.00 MB
 Length of K-op  integral file:               0.17 MB
 Length of 3-ext integral record:             0.00 MB

 Memory could be reduced to 1.10 Mwords without degradation in triples

 Integral transformation finished. Total CPU:   0.01 sec, npass=  1  Memory used:   0.56 MW

 Reference energy:                   -115.83215453

 MP2 singlet pair energy:              -0.25596386
 MP2 triplet pair energy:              -0.14574910
 MP2 correlation energy:               -0.40171296
 MP2 total energy:                   -116.23386749

 SCS-MP2 correlation energy:           -0.39784496   (PS=  1.200000  PT=  0.333333)
 SCS-MP2 total energy:               -116.22999949

 ITER.      SQ.NORM     CORR.ENERGY   TOTAL ENERGY   ENERGY CHANGE        DEN1      VAR(S)    VAR(P)  DIIS     TIME
   1      1.16408291    -0.42792794  -116.26008247    -0.02621498    -0.01440545  0.14D-02  0.29D-02  1  1     0.04
   2      1.17891065    -0.43112137  -116.26327591    -0.00319344    -0.01248408  0.29D-04  0.37D-03  2  2     0.07
   3      1.18344547    -0.43130923  -116.26346377    -0.00018786    -0.00211097  0.70D-05  0.37D-04  3  3     0.10
   4      1.18536748    -0.43138972  -116.26354425    -0.00008049    -0.00058015  0.37D-06  0.33D-05  4  4     0.13
   5      1.18579201    -0.43139576  -116.26355029    -0.00000604    -0.00009083  0.35D-07  0.29D-06  5  5     0.16
   6      1.18586008    -0.43139276  -116.26354729     0.00000300    -0.00000928  0.39D-08  0.18D-07  6  6     0.18
   7      1.18586856    -0.43139303  -116.26354756    -0.00000027     0.00000077  0.45D-09  0.12D-08  6  2     0.21
   8      1.18586992    -0.43139290  -116.26354743     0.00000013    -0.00000002  0.34D-10  0.98D-10  6  1     0.24
   9      1.18587021    -0.43139287  -116.26354740     0.00000003    -0.00000009  0.64D-11  0.81D-11  6  3     0.27
  10      1.18587009    -0.43139288  -116.26354741    -0.00000001     0.00000010  0.41D-12  0.65D-12  6  4     0.30
  11      1.18587000    -0.43139289  -116.26354742    -0.00000001     0.00000005  0.75D-13  0.77D-13  6  5     0.33
  12      1.18586994    -0.43139289  -116.26354742    -0.00000000     0.00000002  0.62D-14  0.14D-13  6  6     0.36
  13      1.18586991    -0.43139289  -116.26354742    -0.00000000     0.00000001  0.61D-15  0.27D-14  6  2     0.38
  14      1.18586990    -0.43139289  -116.26354742    -0.00000000     0.00000000  0.55D-16  0.31D-15  6  1     0.41
  15      1.18586990    -0.43139289  -116.26354742    -0.00000000     0.00000000  0.17D-16  0.33D-16  6  3     0.44
  16      1.18586990    -0.43139289  -116.26354742    -0.00000000     0.00000000  0.30D-17  0.40D-17  6  4     0.47
  17      1.18586990    -0.43139289  -116.26354742    -0.00000000     0.00000000  0.63D-18  0.47D-18  6  5     0.50
  18      1.18586990    -0.43139289  -116.26354742    -0.00000000     0.00000000  0.72D-19  0.51D-19  6  6     0.53
  19      1.18586990    -0.43139289  -116.26354742     0.00000000    -0.00000000  0.13D-19  0.59D-20  6  2     0.56
  20      1.18586990    -0.43139289  -116.26354742     0.00000000    -0.00000000  0.18D-20  0.10D-20  6  1     0.59

 Norm of t1 vector:      0.05177228      S-energy:    -0.00000000      T1 diagnostic:  0.00915213
                                                                       D1 diagnostic:  0.02739873

 Doubles amplitudes (print threshold =  0.500E-01):

         I         J         SYM. A    SYM. B    A         B      T(IJ, AB)

         8         8         1         1         1         1     -0.10785471


 Total CPU time for triples:      0.21 sec


 RESULTS
 =======

  Reference energy                   -115.832154532490
  CCSD singlet pair energy             -0.301400195046
  CCSD triplet pair energy             -0.129992694440
  CCSD correlation energy              -0.431392889486

  Triples (T) contribution             -0.016275586965
  Total correlation energy             -0.447668476451

  CCSD total energy                  -116.263547421976
  CCSD[T] energy                     -116.280181128963
  CCSD-T energy                      -116.279647466564
 !CCSD(T) total energy               -116.279823008942

 Timing summary (sec):

 STEP                 CPU(USER)    SYS     CPU(TOT)    WALL
 Transformation          0.01      0.01      0.02      0.03
 CCSD iterations         0.58      0.06      0.64      0.66
 Triples                 0.21      0.00      0.21      0.22

 Program statistics:

 Available memory in ccsd:               999999644
 Min. memory needed in ccsd:                142235
 Max. memory used in ccsd:                  174307
 Max. memory used in cckext:                219012 (20 integral passes)



 **********************************************************************************************************************************
 DATASETS  * FILE   NREC   LENGTH (MB)   RECORD NAMES
              1      20       13.48       500      610      700      900      950      970     1000      129      960     1100   
                                          VAR    BASINP    GEOM    SYMINP    ZMAT    AOBASIS   BASIS     P2S    ABASIS      S 
                                         1400     1410     1200     1210     1080     1600     1650     1300     1700     1380   
                                           T        V       H0       H01     AOSYM     SMH    MOLCAS    ERIS     OPER     JKOP   

              2       3        0.40       700     1000     2100   
                                         GEOM     BASIS     RHF  

 PROGRAMS   *        TOTAL   CCSD(T)       RHF       INT
 CPU TIMES  *         1.15      0.80      0.07      0.22
 REAL TIME  *         1.51 SEC
 DISK USED  *        34.16 MB      
 GA USED    *         0.00 MB       (max)       0.00 MB       (current)
 **********************************************************************************************************************************

        CCSD(T)         RHF-SCF 
   -116.27982301   -115.83215453
 **********************************************************************************************************************************
 Variable memory released
