
 Primary working directories    : /tmp/943420.406.gen4.q
 Secondary working directories  : /tmp/943420.406.gen4.q
 Wavefunction directory         : /home/vulcan/mel64643/wfu/
 Main file repository           : /tmp/943420.406.gen4.q/

 ARCHNAME  : Linux/x86_64
 FC        : /opt/intel/compilers_and_libraries_2016.1.150/linux/bin/intel64/ifort
 FCVERSION : 16.0.1
 BLASLIB   : -mkl
 id        : ccgc

 Nodes     nprocs
 n027         1
 ga_uses_ma=false, calling ma_init with nominal heap.
 GA-space will be limited to   8.0 MW (determined by -G option)

 Using customized tuning parameters: mindgm=10; mindgv=16; mindgc=4; mindgr=1; noblas=0; mincuda=1000; minvec=7
 default implementation of scratch files=df  

 ***,Optimization of nh3_nitrosmethane
 memory,1000,m
 gthresh,energy=1.0d-12,orbital=1.0d-10,oneint=1.0d-16,twoint=1.0d-16,optgrad=1.0d-6,compress=1.0d-13
 geomtyp=xyz
 
 bohr
 geometry = {
  N   -5.2300269860   -0.1859655572   -0.0049962737
  H   -6.3074698831    0.2374747133   -1.5348169545
  H   -3.7552925403    1.0447371894    0.0043030904
  H   -6.2941696723    0.2389158592    1.5337084749
  H   -0.9227925019   -2.4021642261    0.0000608352
  H    1.8856675372   -3.4332779165   -1.6663077924
  H    1.8852850117   -3.4332805495    1.6670723652
  C    1.1378061865   -2.4699328984    0.0002972477
  N    2.2653709655    0.0991646065    0.0004286720
  O    0.6997403725    1.7813857883    0.0002503353
 }
 
 basis=aug-cc-pvdz, H=cc-pvdz
 {rhf;maxit,200}
 {ccsd(t);maxit,200}

 Variables initialized (661), CPU time= 0.00 sec
 Commands  initialized (458), CPU time= 0.01 sec, 486 directives.
 Default parameters read. Elapsed time= 0.06 sec

 Checking input...
 Passed
1


                                         ***  PROGRAM SYSTEM MOLPRO  ***
                         Copyright, University College Cardiff Consultants Limited, 2008

                                    Version 2010.1 linked May 16 2016 07:17:05


 **********************************************************************************************************************************
 LABEL *   Optimization of nh3_nitrosmethane                                             
 Linux-4.4.3/n027(x86_64) 64 bit mpp version                                             DATE: 26-Oct-23          TIME: 08:06:04  
 **********************************************************************************************************************************

 SHA1:             9e8077add272b0f3cad6f7df79ec5211205f459d
 **********************************************************************************************************************************

 THRESHOLDS:

 ZERO    =  1.00D-12  ONEINT  =  1.00D-16  TWOINT  =  1.00D-16  PREFAC  =  1.00D-14  LOCALI  =  1.00D-09  EORDER  =  1.00D-04
 ENERGY  =  1.00D-12  ETEST   =  0.00D+00  EDENS   =  0.00D+00  THRDEDEF=  1.00D-06  GRADIENT=  1.00D-02  STEP    =  1.00D-03
 ORBITAL =  1.00D-10  CIVEC   =  1.00D-05  COEFF   =  1.00D-04  PRINTCI =  5.00D-02  PUNCHCI =  9.90D+01  OPTGRAD =  1.00D-06
 OPTENERG=  1.00D-06  OPTSTEP =  3.00D-04  THRGRAD =  1.00D-10  COMPRESS=  1.00D-13  VARMIN  =  1.00D-07  VARMAX  =  1.00D-03
 THRDOUB =  0.00D+00  THRDIV  =  1.00D-05  THRRED  =  1.00D-07  THRPSP  =  1.00D+00  THRDC   =  1.00D-10  THRCS   =  1.00D-10
 THRNRM  =  1.00D-08  THREQ   =  0.00D+00  THRDE   =  1.00D+00  THRREF  =  1.00D-05  SPARFAC =  1.00D+00  THRDLP  =  1.00D-07
 THRDIA  =  1.00D-10  THRDLS  =  1.00D-07  THRGPS  =  0.00D+00  THRKEX  =  0.00D+00  THRDIS  =  2.00D-01  THRVAR  =  1.00D-10
 THRLOC  =  1.00D-06  THRGAP  =  1.00D-06  THRLOCT = -1.00D+00  THRGAPT = -1.00D+00  THRORB  =  1.00D-06  THRMLTP =  0.00D+00
 THRCPQCI=  1.00D-10  KEXTA   =  0.00D+00  THRCOARS=  0.00D+00  SYMTOL  =  1.00D-06  GRADTOL =  1.00D-06  THROVL  =  1.00D-08
 THRORTH =  1.00D-08  GRID    =  1.00D-06  GRIDMAX =  1.00D-03  DTMAX   =  0.00D+00

 SETTING GEOMTYP        =    XYZ
 ZUNIT=BOHR
 

 Variable memory set to 1000000000 words,  buffer space   230000 words

 SETTING BASIS          =    AUG-CC-PVDZ,H=CC-PVDZ


 Recomputing integrals since basis changed


 Using spherical harmonics

 Library entry N      S aug-cc-pVDZ          selected for orbital group  1
 Library entry N      P aug-cc-pVDZ          selected for orbital group  1
 Library entry N      D aug-cc-pVDZ          selected for orbital group  1
 Library entry H      S cc-pVDZ              selected for orbital group  2
 Library entry H      P cc-pVDZ              selected for orbital group  2
 Library entry C      S aug-cc-pVDZ          selected for orbital group  3
 Library entry C      P aug-cc-pVDZ          selected for orbital group  3
 Library entry C      D aug-cc-pVDZ          selected for orbital group  3
 Library entry O      S aug-cc-pVDZ          selected for orbital group  5
 Library entry O      P aug-cc-pVDZ          selected for orbital group  5
 Library entry O      D aug-cc-pVDZ          selected for orbital group  5

1PROGRAM * SEWARD (Integral evaluation for generally contracted gaussian basis sets)     Author: Roland Lindh, 1990

 Geometry written to block  1 of record 700


 Point group  C1  



 ATOMIC COORDINATES

 NR  ATOM    CHARGE       X              Y              Z

   1  N       7.00   -5.230026986   -0.185965557   -0.004996274
   2  H       1.00   -6.307469883    0.237474713   -1.534816955
   3  H       1.00   -3.755292540    1.044737189    0.004303090
   4  H       1.00   -6.294169672    0.238915859    1.533708475
   5  H       1.00   -0.922792502   -2.402164226    0.000060835
   6  H       1.00    1.885667537   -3.433277916   -1.666307792
   7  H       1.00    1.885285012   -3.433280550    1.667072365
   8  C       6.00    1.137806186   -2.469932898    0.000297248
   9  N       7.00    2.265370965    0.099164607    0.000428672
  10  O       8.00    0.699740372    1.781385788    0.000250335

 Bond lengths in Bohr (Angstrom)

 1-2  1.918472354  1-3  1.920822067  1-4  1.918472355  5-8  2.061712784  6-8  2.065164057
     ( 1.015211846)     ( 1.016455261)     ( 1.015211847)     ( 1.091011417)     ( 1.092837752)

  7- 8  2.065164057   8- 9  2.805648648   9-10  2.298057286
       ( 1.092837752)       ( 1.484685321)       ( 1.216079541)

 Bond angles

  2-1-3  107.07540320   2-1-4  106.21038509   3-1-4  106.26512582   5-8-6  112.15889787

  5-8-7  112.15889786   5-8-9  111.81278754   6-8-7  107.61735051   6-8-9  106.35838670

  7- 8- 9  106.35838669   8- 9-10  113.35946297

 NUCLEAR CHARGE:                   34
 NUMBER OF PRIMITIVE AOS:         190
 NUMBER OF SYMMETRY AOS:          182
 NUMBER OF CONTRACTIONS:          122   ( 122A   )
 NUMBER OF CORE ORBITALS:           4   (   4A   )
 NUMBER OF VALENCE ORBITALS:       22   (  22A   )


 NUCLEAR REPULSION ENERGY  117.37196696


 Eigenvalues of metric

         1 0.465E-03 0.142E-02 0.195E-02 0.431E-02 0.527E-02 0.748E-02 0.800E-02 0.856E-02


 Contracted 2-electron integrals neglected if value below      1.0D-16
 AO integral compression algorithm  1   Integral accuracy      1.0D-16

     230.687 MB (compressed) written to integral file ( 85.8%)

     Node minimum: 230.687 MB, node maximum: 230.687 MB


 NUMBER OF SORTED TWO-ELECTRON INTEGRALS:   28151256.     BUFFER LENGTH:  32768
 NUMBER OF SEGMENTS:   2  SEGMENT LENGTH:   15997996      RECORD LENGTH: 524288

 Memory used in sort:      16.56 MW

 SORT1 READ    33603370. AND WROTE    27858568. INTEGRALS IN     81 RECORDS. CPU TIME:     0.35 SEC, REAL TIME:     0.53 SEC
 SORT2 READ    27858568. AND WROTE    28151256. INTEGRALS IN    880 RECORDS. CPU TIME:     0.31 SEC, REAL TIME:     0.42 SEC

 FILE SIZES:   FILE 1:   198.9 MBYTE,  FILE 4:   339.8 MBYTE,   TOTAL:    538.7 MBYTE

 OPERATOR DM      FOR CENTER  0  COORDINATES:    0.000000    0.000000    0.000000


 **********************************************************************************************************************************
 DATASETS  * FILE   NREC   LENGTH (MB)   RECORD NAMES
              1      19      199.07       500      610      700      900      950      970     1000      129      960     1100   
                                          VAR    BASINP    GEOM    SYMINP    ZMAT    AOBASIS   BASIS     P2S    ABASIS      S 
                                         1400     1410     1200     1210     1080     1600     1650     1300     1700   
                                           T        V       H0       H01     AOSYM     SMH    MOLCAS    ERIS     OPER   

 PROGRAMS   *        TOTAL       INT
 CPU TIMES  *         2.39      2.33
 REAL TIME  *         2.97 SEC
 DISK USED  *       770.14 MB      
 GA USED    *         0.00 MB       (max)       0.00 MB       (current)
 **********************************************************************************************************************************

1PROGRAM * RHF-SCF (CLOSED SHELL)       Authors: W. Meyer, H.-J. Werner


 NUMBER OF ELECTRONS:      17+   17-    SPACE SYMMETRY=1    SPIN SYMMETRY: Singlet 
 CONVERGENCE THRESHOLDS:    1.00E-10 (Density)    1.00E-13 (Energy)
 MAX. NUMBER OF ITERATIONS:      200
 INTERPOLATION TYPE:            DIIS
 INTERPOLATION STEPS:              2 (START)      1 (STEP)
 LEVEL SHIFTS:                  0.00 (CLOSED)  0.00 (OPEN) 



 Orbital guess generated from atomic densities. Full valence occupancy:   26

 Molecular orbital dump at record        2100.2

 ITERATION    DDIFF          GRAD             ENERGY        2-EL.EN.            DIPOLE MOMENTS         DIIS
    1      0.000D+00      0.000D+00      -224.96499024    393.038999    0.08147   -0.57134    0.00534    0
    2      0.000D+00      0.710D-02      -225.02580829    392.676934   -0.57337   -0.37430    0.00198    1
    3      0.132D-01      0.496D-02      -225.05965831    393.219746   -0.22753   -0.55257    0.00283    2
    4      0.572D-02      0.994D-03      -225.06192661    393.054224   -0.30559   -0.45519    0.00298    3
    5      0.147D-02      0.393D-03      -225.06235095    393.066223   -0.30330   -0.48464    0.00287    4
    6      0.638D-03      0.952D-04      -225.06239324    393.093392   -0.30864   -0.48181    0.00289    5
    7      0.217D-03      0.363D-04      -225.06239930    393.077338   -0.31026   -0.48191    0.00289    6
    8      0.864D-04      0.148D-04      -225.06240029    393.083814   -0.31126   -0.48183    0.00289    7
    9      0.332D-04      0.633D-05      -225.06240051    393.082647   -0.31154   -0.48153    0.00289    8
   10      0.184D-04      0.193D-05      -225.06240053    393.082362   -0.31162   -0.48135    0.00289    8
   11      0.562D-05      0.650D-06      -225.06240053    393.082467   -0.31164   -0.48126    0.00289    8
   12      0.183D-05      0.197D-06      -225.06240053    393.082432   -0.31164   -0.48124    0.00289    8
   13      0.685D-06      0.621D-07      -225.06240053    393.082426   -0.31164   -0.48123    0.00289    8
   14      0.166D-06      0.316D-07      -225.06240053    393.082428   -0.31164   -0.48123    0.00289    9
   15      0.782D-07      0.502D-08      -225.06240053    393.082428   -0.31164   -0.48123    0.00289    8
   16      0.128D-07      0.335D-08      -225.06240053    393.082428   -0.31164   -0.48123    0.00289    7
   17      0.141D-07      0.220D-08      -225.06240053    393.082429   -0.31164   -0.48123    0.00289    7
   18      0.174D-07      0.932D-09      -225.06240053    393.082428   -0.31164   -0.48123    0.00289    8
   19      0.863D-08      0.244D-09      -225.06240053    393.082428   -0.31164   -0.48123    0.00289    9
   20      0.136D-08      0.611D-10      -225.06240053    393.082428   -0.31164   -0.48123    0.00289    9
   21      0.237D-09      0.229D-10      -225.06240053    393.082428   -0.31164   -0.48123    0.00289    9
   22      0.520D-10      0.688D-11      -225.06240053    393.082428   -0.31164   -0.48123    0.00289    9
   23      0.188D-10      0.200D-11      -225.06240053    393.082428   -0.31164   -0.48123    0.00289    9
   24      0.642D-11      0.780D-12      -225.06240053    393.082428   -0.31164   -0.48123    0.00289    0

 Final occupancy:  17

 !RHF STATE 1.1 Energy               -225.062400531253
 Nuclear energy                       117.37196696
 One-electron energy                 -538.97558169
 Two-electron energy                  196.54121421
 Virial quotient                       -1.00219806
 !RHF STATE 1.1 Dipole moment          -0.31164215    -0.48123135     0.00289076
 Dipole moment /Debye                  -0.79206346    -1.22308798     0.00734711

 Orbital energies:

         1.1          2.1          3.1          4.1          5.1          6.1          7.1          8.1          9.1         10.1
    -20.640589   -15.714949   -15.548803   -11.271496    -1.515354    -1.139958    -1.076416    -0.862642    -0.691601    -0.676231

        11.1         12.1         13.1         14.1         15.1         16.1         17.1         18.1         19.1
     -0.636469    -0.624539    -0.622478    -0.555844    -0.534728    -0.428041    -0.406438     0.077476     0.084287


 **********************************************************************************************************************************
 DATASETS  * FILE   NREC   LENGTH (MB)   RECORD NAMES
              1      19      199.07       500      610      700      900      950      970     1000      129      960     1100   
                                          VAR    BASINP    GEOM    SYMINP    ZMAT    AOBASIS   BASIS     P2S    ABASIS      S 
                                         1400     1410     1200     1210     1080     1600     1650     1300     1700   
                                           T        V       H0       H01     AOSYM     SMH    MOLCAS    ERIS     OPER   

              2       3        0.72       700     1000     2100   
                                         GEOM     BASIS     RHF  

 PROGRAMS   *        TOTAL       RHF       INT
 CPU TIMES  *         8.17      5.78      2.33
 REAL TIME  *         9.29 SEC
 DISK USED  *       770.14 MB      
 GA USED    *         0.00 MB       (max)       0.00 MB       (current)
 **********************************************************************************************************************************


1PROGRAM * CCSD (Closed-shell coupled cluster)     Authors: C. Hampel, H.-J. Werner, 1991, M. Deegan, P.J. Knowles, 1992


 Convergence thresholds:  THRVAR = 1.00D-08  THRDEN = 1.00D-12

 CCSD(T)     terms to be evaluated (factor= 1.000)


 Number of core orbitals:           4 (   4 )
 Number of closed-shell orbitals:  13 (  13 )
 Number of external orbitals:     105 ( 105 )

 Molecular orbitals read from record     2100.2  Type=RHF/CANONICAL (state 1.1)

 Number of N-1 electron functions:              13
 Number of N-2 electron functions:              91
 Number of singly external CSFs:              1365
 Number of doubly external CSFs:            932295
 Total number of CSFs:                      933661

 Length of J-op  integral file:               0.00 MB
 Length of K-op  integral file:               1.06 MB
 Length of 3-ext integral record:             0.00 MB

 Memory could be reduced to 20.68 Mwords without degradation in triples

 Integral transformation finished. Total CPU:   1.52 sec, npass=  1  Memory used:  15.40 MW

 Reference energy:                   -225.06240053

 MP2 singlet pair energy:              -0.44860002
 MP2 triplet pair energy:              -0.26463163
 MP2 correlation energy:               -0.71323164
 MP2 total energy:                   -225.77563218

 SCS-MP2 correlation energy:           -0.70297970   (PS=  1.200000  PT=  0.333333)
 SCS-MP2 total energy:               -225.76538023

 ITER.      SQ.NORM     CORR.ENERGY   TOTAL ENERGY   ENERGY CHANGE        DEN1      VAR(S)    VAR(P)  DIIS     TIME
   1      1.24159754    -0.74722051  -225.80962104    -0.03398886    -0.01022355  0.52D-02  0.49D-02  1  1     5.15
   2      1.26338021    -0.75030858  -225.81270911    -0.00308807    -0.02111149  0.17D-03  0.87D-03  2  2     8.81
   3      1.27338448    -0.75101338  -225.81341391    -0.00070480    -0.00461043  0.12D-03  0.62D-04  3  3    12.48
   4      1.27753738    -0.75097882  -225.81337935     0.00003456    -0.00137250  0.11D-04  0.11D-04  4  4    16.15
   5      1.27918954    -0.75099686  -225.81339739    -0.00001804    -0.00036026  0.19D-05  0.17D-05  5  5    19.82
   6      1.27964990    -0.75096600  -225.81336653     0.00003086    -0.00005504  0.15D-06  0.33D-06  6  6    23.51
   7      1.27975048    -0.75096319  -225.81336372     0.00000281    -0.00000382  0.33D-07  0.86D-07  6  2    27.19
   8      1.27977412    -0.75096394  -225.81336448    -0.00000075    -0.00000033  0.43D-08  0.20D-07  6  1    30.87
   9      1.27977435    -0.75096333  -225.81336386     0.00000061     0.00000435  0.26D-08  0.32D-08  6  4    34.54
  10      1.27977663    -0.75096413  -225.81336466    -0.00000080    -0.00000120  0.52D-09  0.44D-09  6  3    38.22
  11      1.27977455    -0.75096433  -225.81336487    -0.00000021     0.00000043  0.17D-09  0.78D-10  6  5    41.91
  12      1.27977305    -0.75096441  -225.81336494    -0.00000007     0.00000032  0.39D-10  0.17D-10  6  6    45.59
  13      1.27977144    -0.75096453  -225.81336506    -0.00000012     0.00000039  0.58D-11  0.40D-11  6  1    49.27
  14      1.27977076    -0.75096454  -225.81336507    -0.00000001     0.00000018  0.15D-11  0.58D-12  6  2    52.93
  15      1.27977050    -0.75096455  -225.81336508    -0.00000001     0.00000005  0.39D-12  0.10D-12  6  4    56.62
  16      1.27977044    -0.75096455  -225.81336508    -0.00000000     0.00000001  0.20D-12  0.36D-13  6  3    60.30
  17      1.27977042    -0.75096455  -225.81336508     0.00000000    -0.00000000  0.11D-12  0.14D-13  6  6    63.98
  18      1.27977041    -0.75096455  -225.81336508    -0.00000000    -0.00000000  0.61D-13  0.72D-14  6  5    67.66
  19      1.27977042    -0.75096455  -225.81336508     0.00000000    -0.00000000  0.29D-13  0.43D-14  6  2    71.33
  20      1.27977042    -0.75096455  -225.81336508    -0.00000000     0.00000000  0.91D-14  0.20D-14  6  1    75.02
  21      1.27977042    -0.75096455  -225.81336508     0.00000000    -0.00000000  0.13D-14  0.71D-15  6  3    78.70
  22      1.27977042    -0.75096455  -225.81336508     0.00000000     0.00000000  0.18D-15  0.17D-15  6  4    82.38
  23      1.27977042    -0.75096455  -225.81336508    -0.00000000    -0.00000000  0.25D-16  0.36D-16  6  5    86.06
  24      1.27977042    -0.75096455  -225.81336508     0.00000000    -0.00000000  0.66D-17  0.10D-16  6  6    89.74
  25      1.27977042    -0.75096455  -225.81336508     0.00000000    -0.00000000  0.18D-17  0.33D-17  6  2    93.42
  26      1.27977042    -0.75096455  -225.81336508    -0.00000000     0.00000000  0.32D-18  0.11D-17  6  4    97.10
  27      1.27977042    -0.75096455  -225.81336508    -0.00000000     0.00000000  0.16D-18  0.15D-18  6  1   100.77
  28      1.27977042    -0.75096455  -225.81336508    -0.00000000     0.00000000  0.91D-19  0.31D-19  6  3   104.46

 Norm of t1 vector:      0.11115055      S-energy:    -0.00000000      T1 diagnostic:  0.01541381
                                                                       D1 diagnostic:  0.04946199

 Doubles amplitudes (print threshold =  0.500E-01):

         I         J         SYM. A    SYM. B    A         B      T(IJ, AB)

        11        11         1         1         2         2     -0.05778432


 Total CPU time for triples:     51.21 sec


 RESULTS
 =======

  Reference energy                   -225.062400531254
  CCSD singlet pair energy             -0.516900447697
  CCSD triplet pair energy             -0.234064103014
  CCSD correlation energy              -0.750964550712

  Triples (T) contribution             -0.026300221604
  Total correlation energy             -0.777264772316

  CCSD total energy                  -225.813365081966
  CCSD[T] energy                     -225.841273405783
  CCSD-T energy                      -225.839173424555
 !CCSD(T) total energy               -225.839665303570

 Timing summary (sec):

 STEP                 CPU(USER)    SYS     CPU(TOT)    WALL
 Transformation          1.59      0.13      1.72      1.73
 CCSD iterations       102.87      2.03    104.90    104.98
 Triples                51.21      0.75     51.96     51.98

 Program statistics:

 Available memory in ccsd:               999999224
 Min. memory needed in ccsd:               2510565
 Max. memory used in ccsd:                 3320127
 Max. memory used in cckext:               2903072 (28 integral passes)



 **********************************************************************************************************************************
 DATASETS  * FILE   NREC   LENGTH (MB)   RECORD NAMES
              1      20      276.47       500      610      700      900      950      970     1000      129      960     1100   
                                          VAR    BASINP    GEOM    SYMINP    ZMAT    AOBASIS   BASIS     P2S    ABASIS      S 
                                         1400     1410     1200     1210     1080     1600     1650     1300     1700     1380   
                                           T        V       H0       H01     AOSYM     SMH    MOLCAS    ERIS     OPER     JKOP   

              2       3        0.72       700     1000     2100   
                                         GEOM     BASIS     RHF  

 PROGRAMS   *        TOTAL   CCSD(T)       RHF       INT
 CPU TIMES  *       163.86    155.68      5.78      2.33
 REAL TIME  *       168.03 SEC
 DISK USED  *       770.14 MB      
 GA USED    *         0.00 MB       (max)       0.00 MB       (current)
 **********************************************************************************************************************************

        CCSD(T)         RHF-SCF 
   -225.83966530   -225.06240053
 **********************************************************************************************************************************
 Variable memory released
