
 Primary working directories    : /tmp/917057.106.gen4.q
 Secondary working directories  : /tmp/917057.106.gen4.q
 Wavefunction directory         : /home/vulcan/lo21740/wfu/
 Main file repository           : /tmp/917057.106.gen4.q/

 ARCHNAME  : Linux/x86_64
 FC        : /opt/intel/compilers_and_libraries_2016.1.150/linux/bin/intel64/ifort
 FCVERSION : 16.0.1
 BLASLIB   : -mkl
 id        : ccgc

 Nodes     nprocs
 n054         1
 ga_uses_ma=false, calling ma_init with nominal heap.
 GA-space will be limited to   8.0 MW (determined by -G option)

 Using customized tuning parameters: mindgm=10; mindgv=16; mindgc=4; mindgr=1; noblas=0; mincuda=1000; minvec=7
 default implementation of scratch files=df  

 ***,Optimization of h2o_2
 memory,1000,m
 gthresh,energy=1.0d-12,orbital=1.0d-10,oneint=1.0d-16,twoint=1.0d-16,optgrad=1.0d-6,compress=1.0d-13
 geomtyp=xyz
 
 bohr
 geometry = {
  C   -0.0004903544   -3.4230804905    0.0016342938
  H   -0.9734429650   -2.7326929644   -1.6837166034
  H   -0.9687315396   -2.7343688384    1.6781387724
  H    1.9450713651   -2.7313684123    0.0012906350
  H   -0.0001497158   -5.4778920640    0.0026560466
  C   -0.0013940635    3.4204099645    0.0016317091
  H   -0.0029267940    5.4852209997    0.0026598622
  H    0.9719566601    2.7305846569   -1.6837195268
  H    0.9672437896    2.7322554895    1.6781358495
  H   -1.9371363824    2.7309316589    0.0012889617
 }
 
 basis=AVDZ
 {rhf;maxit,200}
 {ccsd(t);maxit,200}

 Variables initialized (661), CPU time= 0.00 sec
 Commands  initialized (458), CPU time= 0.01 sec, 486 directives.
 Default parameters read. Elapsed time= 0.04 sec

 Checking input...
 Passed
1


                                         ***  PROGRAM SYSTEM MOLPRO  ***
                         Copyright, University College Cardiff Consultants Limited, 2008

                                    Version 2010.1 linked May 16 2016 07:17:05


 **********************************************************************************************************************************
 LABEL *   Optimization of h2o_2                                                         
 Linux-4.4.3/n054(x86_64) 64 bit mpp version                                             DATE: 20-Jul-23          TIME: 14:05:41  
 **********************************************************************************************************************************

 SHA1:             9e8077add272b0f3cad6f7df79ec5211205f459d
 **********************************************************************************************************************************

 THRESHOLDS:

 ZERO    =  1.00D-12  ONEINT  =  1.00D-16  TWOINT  =  1.00D-16  PREFAC  =  1.00D-14  LOCALI  =  1.00D-09  EORDER  =  1.00D-04
 ENERGY  =  1.00D-12  ETEST   =  0.00D+00  EDENS   =  0.00D+00  THRDEDEF=  1.00D-06  GRADIENT=  1.00D-02  STEP    =  1.00D-03
 ORBITAL =  1.00D-10  CIVEC   =  1.00D-05  COEFF   =  1.00D-04  PRINTCI =  5.00D-02  PUNCHCI =  9.90D+01  OPTGRAD =  1.00D-06
 OPTENERG=  1.00D-06  OPTSTEP =  3.00D-04  THRGRAD =  1.00D-10  COMPRESS=  1.00D-13  VARMIN  =  1.00D-07  VARMAX  =  1.00D-03
 THRDOUB =  0.00D+00  THRDIV  =  1.00D-05  THRRED  =  1.00D-07  THRPSP  =  1.00D+00  THRDC   =  1.00D-10  THRCS   =  1.00D-10
 THRNRM  =  1.00D-08  THREQ   =  0.00D+00  THRDE   =  1.00D+00  THRREF  =  1.00D-05  SPARFAC =  1.00D+00  THRDLP  =  1.00D-07
 THRDIA  =  1.00D-10  THRDLS  =  1.00D-07  THRGPS  =  0.00D+00  THRKEX  =  0.00D+00  THRDIS  =  2.00D-01  THRVAR  =  1.00D-10
 THRLOC  =  1.00D-06  THRGAP  =  1.00D-06  THRLOCT = -1.00D+00  THRGAPT = -1.00D+00  THRORB  =  1.00D-06  THRMLTP =  0.00D+00
 THRCPQCI=  1.00D-10  KEXTA   =  0.00D+00  THRCOARS=  0.00D+00  SYMTOL  =  1.00D-06  GRADTOL =  1.00D-06  THROVL  =  1.00D-08
 THRORTH =  1.00D-08  GRID    =  1.00D-06  GRIDMAX =  1.00D-03  DTMAX   =  0.00D+00

 SETTING GEOMTYP        =    XYZ
 ZUNIT=BOHR
 

 Variable memory set to 1000000000 words,  buffer space   230000 words

 SETTING BASIS          =    AVDZ


 Recomputing integrals since basis changed


 Using spherical harmonics

 Library entry C      S aug-cc-pVDZ          selected for orbital group  1
 Library entry C      P aug-cc-pVDZ          selected for orbital group  1
 Library entry C      D aug-cc-pVDZ          selected for orbital group  1
 Library entry H      S aug-cc-pVDZ          selected for orbital group  2
 Library entry H      P aug-cc-pVDZ          selected for orbital group  2

1PROGRAM * SEWARD (Integral evaluation for generally contracted gaussian basis sets)     Author: Roland Lindh, 1990

 Geometry written to block  1 of record 700


 Point group  C1  



 ATOMIC COORDINATES

 NR  ATOM    CHARGE       X              Y              Z

   1  C       6.00   -0.000490354   -3.423080490    0.001634294
   2  H       1.00   -0.973442965   -2.732692964   -1.683716603
   3  H       1.00   -0.968731540   -2.734368838    1.678138772
   4  H       1.00    1.945071365   -2.731368412    0.001290635
   5  H       1.00   -0.000149716   -5.477892064    0.002656047
   6  C       6.00   -0.001394064    3.420409965    0.001631709
   7  H       1.00   -0.002926794    5.485221000    0.002659862
   8  H       1.00    0.971956660    2.730584657   -1.683719527
   9  H       1.00    0.967243790    2.732255489    1.678135850
  10  H       1.00   -1.937136382    2.730931659    0.001288962

 Bond lengths in Bohr (Angstrom)

 1-2  2.064867881  1-3  2.054867879  1-4  2.064867095  1-5  2.054811856  6-7  2.064811860
     ( 1.092681022)     ( 1.087389249)     ( 1.092680606)     ( 1.087359603)     ( 1.092651377)

  6- 8  2.064867883   6- 9  2.054867880   6-10  2.054867095
       ( 1.092681023)       ( 1.087389250)       ( 1.087388834)

 Bond angles

  2-1-3  109.37992586   2-1-4  109.37980970   2-1-5  109.56240827   3-1-4  109.37980982

  3-1-5  109.56240831   4-1-5  109.56250036   7-6-8  109.56240830   7-6-9  109.56240835

  7- 6-10  109.56250044   8- 6- 9  109.37992572   8- 6-10  109.37980968   9- 6-10  109.37980981

 NUCLEAR CHARGE:                   20
 NUMBER OF PRIMITIVE AOS:         162
 NUMBER OF SYMMETRY AOS:          158
 NUMBER OF CONTRACTIONS:          118   ( 118A   )
 NUMBER OF CORE ORBITALS:           2   (   2A   )
 NUMBER OF VALENCE ORBITALS:       16   (  16A   )


 NUCLEAR REPULSION ENERGY   41.34210907


 Eigenvalues of metric

         1 0.370E-03 0.572E-03 0.572E-03 0.611E-03 0.729E-03 0.729E-03 0.778E-03 0.101E-02


 Contracted 2-electron integrals neglected if value below      1.0D-16
 AO integral compression algorithm  1   Integral accuracy      1.0D-16

     209.191 MB (compressed) written to integral file ( 91.5%)

     Node minimum: 209.191 MB, node maximum: 209.191 MB


 NUMBER OF SORTED TWO-ELECTRON INTEGRALS:   24650731.     BUFFER LENGTH:  32768
 NUMBER OF SEGMENTS:   2  SEGMENT LENGTH:   15997996      RECORD LENGTH: 524288

 Memory used in sort:      16.56 MW

 SORT1 READ    28594353. AND WROTE    24428945. INTEGRALS IN     71 RECORDS. CPU TIME:     0.29 SEC, REAL TIME:     0.42 SEC
 SORT2 READ    24428945. AND WROTE    24650731. INTEGRALS IN    798 RECORDS. CPU TIME:     0.23 SEC, REAL TIME:     0.33 SEC

 FILE SIZES:   FILE 1:   186.8 MBYTE,  FILE 4:   297.8 MBYTE,   TOTAL:    484.6 MBYTE

 OPERATOR DM      FOR CENTER  0  COORDINATES:    0.000000    0.000000    0.000000


 **********************************************************************************************************************************
 DATASETS  * FILE   NREC   LENGTH (MB)   RECORD NAMES
              1      19      186.97       500      610      700      900      950      970     1000      129      960     1100   
                                          VAR    BASINP    GEOM    SYMINP    ZMAT    AOBASIS   BASIS     P2S    ABASIS      S 
                                         1400     1410     1200     1210     1080     1600     1650     1300     1700   
                                           T        V       H0       H01     AOSYM     SMH    MOLCAS    ERIS     OPER   

 PROGRAMS   *        TOTAL       INT
 CPU TIMES  *         1.63      1.59
 REAL TIME  *         2.14 SEC
 DISK USED  *       694.60 MB      
 GA USED    *         0.00 MB       (max)       0.00 MB       (current)
 **********************************************************************************************************************************

1PROGRAM * RHF-SCF (CLOSED SHELL)       Authors: W. Meyer, H.-J. Werner


 NUMBER OF ELECTRONS:      10+   10-    SPACE SYMMETRY=1    SPIN SYMMETRY: Singlet 
 CONVERGENCE THRESHOLDS:    1.00E-10 (Density)    1.00E-13 (Energy)
 MAX. NUMBER OF ITERATIONS:      200
 INTERPOLATION TYPE:            DIIS
 INTERPOLATION STEPS:              2 (START)      1 (STEP)
 LEVEL SHIFTS:                  0.00 (CLOSED)  0.00 (OPEN) 



 Orbital guess generated from atomic densities. Full valence occupancy:   18

 Molecular orbital dump at record        2100.2

 ITERATION    DDIFF          GRAD             ENERGY        2-EL.EN.            DIPOLE MOMENTS         DIIS
    1      0.000D+00      0.000D+00       -80.36230062    134.794270    0.00238    0.00328   -0.00412    0
    2      0.000D+00      0.368D-02       -80.39419399    132.489437   -0.00129   -0.00170    0.00223    1
    3      0.809D-02      0.137D-02       -80.39816872    133.316823   -0.00114   -0.00184    0.00198    2
    4      0.256D-02      0.371D-03       -80.39875568    133.186057   -0.00148   -0.00248    0.00257    3
    5      0.868D-03      0.458D-04       -80.39876441    133.192954   -0.00153   -0.00258    0.00266    4
    6      0.877D-04      0.296D-05       -80.39876446    133.192790   -0.00153   -0.00259    0.00265    5
    7      0.107D-04      0.225D-06       -80.39876446    133.192772   -0.00153   -0.00259    0.00266    5
    8      0.155D-05      0.359D-07       -80.39876446    133.192772   -0.00153   -0.00259    0.00266    4
    9      0.290D-06      0.615D-08       -80.39876446    133.192773   -0.00153   -0.00259    0.00266    4
   10      0.217D-07      0.125D-08       -80.39876446    133.192773   -0.00153   -0.00259    0.00266    5
   11      0.303D-08      0.285D-09       -80.39876446    133.192773   -0.00153   -0.00259    0.00266    5
   12      0.128D-08      0.888D-10       -80.39876446    133.192773   -0.00153   -0.00259    0.00266    6
   13      0.291D-09      0.195D-10       -80.39876446    133.192773   -0.00153   -0.00259    0.00266    6
   14      0.513D-10      0.541D-11       -80.39876446    133.192773   -0.00153   -0.00259    0.00266    0

 Final occupancy:  10

 !RHF STATE 1.1 Energy                -80.398764455522
 Nuclear energy                        41.34210907
 One-electron energy                 -188.33726004
 Two-electron energy                   66.59638651
 Virial quotient                       -1.00196055
 !RHF STATE 1.1 Dipole moment          -0.00153423    -0.00259214     0.00265929
 Dipole moment /Debye                  -0.00389936    -0.00658812     0.00675881

 Orbital energies:

         1.1          2.1          3.1          4.1          5.1          6.1          7.1          8.1          9.1         10.1
    -11.214668   -11.214621    -0.945582    -0.939618    -0.550962    -0.546626    -0.546509    -0.539101    -0.538962    -0.535596

        11.1         12.1
      0.035477     0.045876


 **********************************************************************************************************************************
 DATASETS  * FILE   NREC   LENGTH (MB)   RECORD NAMES
              1      19      186.97       500      610      700      900      950      970     1000      129      960     1100   
                                          VAR    BASINP    GEOM    SYMINP    ZMAT    AOBASIS   BASIS     P2S    ABASIS      S 
                                         1400     1410     1200     1210     1080     1600     1650     1300     1700   
                                           T        V       H0       H01     AOSYM     SMH    MOLCAS    ERIS     OPER   

              2       3        0.70       700     1000     2100   
                                         GEOM     BASIS     RHF  

 PROGRAMS   *        TOTAL       RHF       INT
 CPU TIMES  *         4.37      2.74      1.59
 REAL TIME  *         5.21 SEC
 DISK USED  *       694.60 MB      
 GA USED    *         0.00 MB       (max)       0.00 MB       (current)
 **********************************************************************************************************************************


1PROGRAM * CCSD (Closed-shell coupled cluster)     Authors: C. Hampel, H.-J. Werner, 1991, M. Deegan, P.J. Knowles, 1992


 Convergence thresholds:  THRVAR = 1.00D-08  THRDEN = 1.00D-12

 CCSD(T)     terms to be evaluated (factor= 1.000)


 Number of core orbitals:           2 (   2 )
 Number of closed-shell orbitals:   8 (   8 )
 Number of external orbitals:     108 ( 108 )

 Molecular orbitals read from record     2100.2  Type=RHF/CANONICAL (state 1.1)

 Number of N-1 electron functions:               8
 Number of N-2 electron functions:              36
 Number of singly external CSFs:               864
 Number of doubly external CSFs:            373680
 Total number of CSFs:                      374545

 Length of J-op  integral file:               0.00 MB
 Length of K-op  integral file:               1.00 MB
 Length of 3-ext integral record:             0.00 MB

 Memory could be reduced to 14.62 Mwords without degradation in triples

 Integral transformation finished. Total CPU:   0.72 sec, npass=  1  Memory used:   8.61 MW

 Reference energy:                    -80.39876446

 MP2 singlet pair energy:              -0.24106662
 MP2 triplet pair energy:              -0.09675970
 MP2 correlation energy:               -0.33782633
 MP2 total energy:                    -80.73659078

 SCS-MP2 correlation energy:           -0.34948599   (PS=  1.200000  PT=  0.333333)
 SCS-MP2 total energy:                -80.74825044

 ITER.      SQ.NORM     CORR.ENERGY   TOTAL ENERGY   ENERGY CHANGE        DEN1      VAR(S)    VAR(P)  DIIS     TIME
   1      1.14044094    -0.38147836   -80.78024282    -0.04365204    -0.03251914  0.70D-03  0.24D-02  1  1     1.57
   2      1.15349231    -0.38423407   -80.78299853    -0.00275571    -0.01269580  0.16D-04  0.11D-03  2  2     2.47
   3      1.15560373    -0.38436688   -80.78313134    -0.00013281    -0.00112935  0.25D-05  0.71D-05  3  3     3.37
   4      1.15605103    -0.38438503   -80.78314949    -0.00001815    -0.00017679  0.10D-06  0.45D-06  4  4     4.29
   5      1.15612210    -0.38438172   -80.78314618     0.00000331    -0.00003215  0.39D-08  0.31D-07  5  5     5.20
   6      1.15612596    -0.38438072   -80.78314517     0.00000100    -0.00000139  0.28D-09  0.20D-08  6  6     6.10
   7      1.15612634    -0.38438094   -80.78314539    -0.00000022    -0.00000002  0.24D-10  0.13D-09  6  1     7.00
   8      1.15612640    -0.38438096   -80.78314541    -0.00000002    -0.00000006  0.24D-11  0.96D-11  6  2     7.91
   9      1.15612635    -0.38438096   -80.78314542    -0.00000000     0.00000003  0.45D-12  0.75D-12  6  3     8.82
  10      1.15612631    -0.38438096   -80.78314542    -0.00000000     0.00000002  0.36D-13  0.66D-13  6  4     9.73
  11      1.15612628    -0.38438096   -80.78314542    -0.00000000     0.00000002  0.33D-14  0.72D-14  6  5    10.62
  12      1.15612626    -0.38438096   -80.78314542    -0.00000000     0.00000001  0.28D-15  0.86D-15  6  6    11.53
  13      1.15612626    -0.38438096   -80.78314542    -0.00000000     0.00000000  0.23D-16  0.10D-15  6  1    12.44
  14      1.15612626    -0.38438096   -80.78314542    -0.00000000     0.00000000  0.26D-17  0.11D-16  6  3    13.36
  15      1.15612626    -0.38438096   -80.78314542    -0.00000000     0.00000000  0.20D-18  0.60D-18  6  2    14.26
  16      1.15612626    -0.38438096   -80.78314542    -0.00000000     0.00000000  0.26D-19  0.47D-19  6  4    15.16
  17      1.15612626    -0.38438096   -80.78314542    -0.00000000     0.00000000  0.32D-20  0.59D-20  6  5    16.07
  18      1.15612626    -0.38438096   -80.78314542    -0.00000000     0.00000000  0.36D-21  0.49D-21  6  6    16.99

 Norm of t1 vector:      0.03916558      S-energy:    -0.00000000      T1 diagnostic:  0.00692356
                                                                       D1 diagnostic:  0.01253276


 Total CPU time for triples:     10.61 sec


 RESULTS
 =======

  Reference energy                    -80.398764455522
  CCSD singlet pair energy             -0.290158323982
  CCSD triplet pair energy             -0.094222638343
  CCSD correlation energy              -0.384380962327

  Triples (T) contribution             -0.009219797037
  Total correlation energy             -0.393600759364

  CCSD total energy                   -80.783145417849
  CCSD[T] energy                      -80.792586147732
  CCSD-T energy                       -80.792247984319
 !CCSD(T) total energy                -80.792365214886

 Timing summary (sec):

 STEP                 CPU(USER)    SYS     CPU(TOT)    WALL
 Transformation          0.74      0.08      0.82      0.81
 CCSD iterations        16.25      0.73     16.98     17.03
 Triples                10.61      0.19     10.80     10.81

 Program statistics:

 Available memory in ccsd:               999999644
 Min. memory needed in ccsd:               1156281
 Max. memory used in ccsd:                 1468601
 Max. memory used in cckext:               1135046 (18 integral passes)



 **********************************************************************************************************************************
 DATASETS  * FILE   NREC   LENGTH (MB)   RECORD NAMES
              1      20      233.95       500      610      700      900      950      970     1000      129      960     1100   
                                          VAR    BASINP    GEOM    SYMINP    ZMAT    AOBASIS   BASIS     P2S    ABASIS      S 
                                         1400     1410     1200     1210     1080     1600     1650     1300     1700     1380   
                                           T        V       H0       H01     AOSYM     SMH    MOLCAS    ERIS     OPER     JKOP   

              2       3        0.70       700     1000     2100   
                                         GEOM     BASIS     RHF  

 PROGRAMS   *        TOTAL   CCSD(T)       RHF       INT
 CPU TIMES  *        31.98     27.61      2.74      1.59
 REAL TIME  *        34.09 SEC
 DISK USED  *       694.60 MB      
 GA USED    *         0.00 MB       (max)       0.00 MB       (current)
 **********************************************************************************************************************************

        CCSD(T)         RHF-SCF 
    -80.79236521    -80.39876446
 **********************************************************************************************************************************
 Variable memory released
