
 Primary working directories    : /tmp/943183.86.gen6.q
 Secondary working directories  : /tmp/943183.86.gen6.q
 Wavefunction directory         : /home/vulcan/mel64643/wfu/
 Main file repository           : /tmp/943183.86.gen6.q/

 ARCHNAME  : Linux/x86_64
 FC        : /opt/intel/compilers_and_libraries_2016.1.150/linux/bin/intel64/ifort
 FCVERSION : 16.0.1
 BLASLIB   : -mkl
 id        : ccgc

 Nodes     nprocs
 n074         1
 ga_uses_ma=false, calling ma_init with nominal heap.
 GA-space will be limited to   8.0 MW (determined by -G option)

 Using customized tuning parameters: mindgm=10; mindgv=16; mindgc=4; mindgr=1; noblas=0; mincuda=1000; minvec=7
 default implementation of scratch files=df  

 ***,Optimization of h2o_2
 memory,1000,m
 gthresh,energy=1.0d-12,orbital=1.0d-10,oneint=1.0d-16,twoint=1.0d-16,optgrad=1.0d-6,compress=1.0d-13
 geomtyp=xyz
 
 bohr
 geometry = {
  C   -0.0005354690   -3.4210805036    0.0025304062
  H   -0.9756317268   -2.7308177498   -1.6816322895
  H   -0.9756163368   -2.7449636802    1.6801970405
  H    1.9310491518   -2.7200563012    0.0074995908
  H    0.0133392097   -5.4858350926   -0.0041012246
  C    0.0014789487    3.4224164229   -0.0008996389
  H    0.0014228927    5.4822280218   -0.0019311087
  H    0.9696111404    2.7318878359   -1.6828467294
  H    0.9743475201    2.7335714424    1.6790036385
  H   -1.9394653309    2.7326496044    0.0021803152
 }
 
 basis=AVDZ, H=VDZ
 {rhf;maxit,200}
 {ccsd(t);maxit,200}

 Variables initialized (661), CPU time= 0.00 sec
 Commands  initialized (458), CPU time= 0.01 sec, 486 directives.
 Default parameters read. Elapsed time= 0.04 sec

 Checking input...
 Passed
1


                                         ***  PROGRAM SYSTEM MOLPRO  ***
                         Copyright, University College Cardiff Consultants Limited, 2008

                                    Version 2010.1 linked May 16 2016 07:17:05


 **********************************************************************************************************************************
 LABEL *   Optimization of h2o_2                                                         
 Linux-4.4.3/n074(x86_64) 64 bit mpp version                                             DATE: 23-Oct-23          TIME: 11:39:03  
 **********************************************************************************************************************************

 SHA1:             9e8077add272b0f3cad6f7df79ec5211205f459d
 **********************************************************************************************************************************

 THRESHOLDS:

 ZERO    =  1.00D-12  ONEINT  =  1.00D-16  TWOINT  =  1.00D-16  PREFAC  =  1.00D-14  LOCALI  =  1.00D-09  EORDER  =  1.00D-04
 ENERGY  =  1.00D-12  ETEST   =  0.00D+00  EDENS   =  0.00D+00  THRDEDEF=  1.00D-06  GRADIENT=  1.00D-02  STEP    =  1.00D-03
 ORBITAL =  1.00D-10  CIVEC   =  1.00D-05  COEFF   =  1.00D-04  PRINTCI =  5.00D-02  PUNCHCI =  9.90D+01  OPTGRAD =  1.00D-06
 OPTENERG=  1.00D-06  OPTSTEP =  3.00D-04  THRGRAD =  1.00D-10  COMPRESS=  1.00D-13  VARMIN  =  1.00D-07  VARMAX  =  1.00D-03
 THRDOUB =  0.00D+00  THRDIV  =  1.00D-05  THRRED  =  1.00D-07  THRPSP  =  1.00D+00  THRDC   =  1.00D-10  THRCS   =  1.00D-10
 THRNRM  =  1.00D-08  THREQ   =  0.00D+00  THRDE   =  1.00D+00  THRREF  =  1.00D-05  SPARFAC =  1.00D+00  THRDLP  =  1.00D-07
 THRDIA  =  1.00D-10  THRDLS  =  1.00D-07  THRGPS  =  0.00D+00  THRKEX  =  0.00D+00  THRDIS  =  2.00D-01  THRVAR  =  1.00D-10
 THRLOC  =  1.00D-06  THRGAP  =  1.00D-06  THRLOCT = -1.00D+00  THRGAPT = -1.00D+00  THRORB  =  1.00D-06  THRMLTP =  0.00D+00
 THRCPQCI=  1.00D-10  KEXTA   =  0.00D+00  THRCOARS=  0.00D+00  SYMTOL  =  1.00D-06  GRADTOL =  1.00D-06  THROVL  =  1.00D-08
 THRORTH =  1.00D-08  GRID    =  1.00D-06  GRIDMAX =  1.00D-03  DTMAX   =  0.00D+00

 SETTING GEOMTYP        =    XYZ
 ZUNIT=BOHR
 

 Variable memory set to 1000000000 words,  buffer space   230000 words

 SETTING BASIS          =    AVDZ,H=VDZ


 Recomputing integrals since basis changed


 Using spherical harmonics

 Library entry C      S aug-cc-pVDZ          selected for orbital group  1
 Library entry C      P aug-cc-pVDZ          selected for orbital group  1
 Library entry C      D aug-cc-pVDZ          selected for orbital group  1
 Library entry H      S cc-pVDZ              selected for orbital group  2
 Library entry H      P cc-pVDZ              selected for orbital group  2

1PROGRAM * SEWARD (Integral evaluation for generally contracted gaussian basis sets)     Author: Roland Lindh, 1990

 Geometry written to block  1 of record 700


 Point group  C1  



 ATOMIC COORDINATES

 NR  ATOM    CHARGE       X              Y              Z

   1  C       6.00   -0.000535469   -3.421080504    0.002530406
   2  H       1.00   -0.975631727   -2.730817750   -1.681632289
   3  H       1.00   -0.975616337   -2.744963680    1.680197040
   4  H       1.00    1.931049152   -2.720056301    0.007499591
   5  H       1.00    0.013339210   -5.485835093   -0.004101225
   6  C       6.00    0.001478949    3.422416423   -0.000899639
   7  H       1.00    0.001422893    5.482228022   -0.001931109
   8  H       1.00    0.969611140    2.731887836   -1.682846729
   9  H       1.00    0.974347520    2.733571442    1.679003639
  10  H       1.00   -1.939465331    2.732649604    0.002180315

 Bond lengths in Bohr (Angstrom)

 1-2  2.064867881  1-3  2.054867877  1-4  2.054867094  1-5  2.064811855  6-7  2.059811858
     ( 1.092681022)     ( 1.087389248)     ( 1.087388833)     ( 1.092651375)     ( 1.090005490)

  6- 8  2.059867881   6- 9  2.059867881   6-10  2.059867094
       ( 1.090035136)       ( 1.090035136)       ( 1.090034720)

 Bond angles

  2-1-3  109.37992574   2-1-4  109.37980973   2-1-5  109.56240836   3-1-4  109.37980979

  3-1-5  109.56240844   4-1-5  109.56250024   7-6-8  109.56240831   7-6-9  109.56240831

  7- 6-10  109.56250040   8- 6- 9  109.37992579   8- 6-10  109.37980975   9- 6-10  109.37980975

 NUCLEAR CHARGE:                   20
 NUMBER OF PRIMITIVE AOS:         130
 NUMBER OF SYMMETRY AOS:          126
 NUMBER OF CONTRACTIONS:           86   (  86A   )
 NUMBER OF CORE ORBITALS:           2   (   2A   )
 NUMBER OF VALENCE ORBITALS:       16   (  16A   )


 NUCLEAR REPULSION ENERGY   41.34136251


 Eigenvalues of metric

         1 0.534E-02 0.664E-02 0.909E-02 0.115E-01 0.117E-01 0.118E-01 0.139E-01 0.140E-01


 Contracted 2-electron integrals neglected if value below      1.0D-16
 AO integral compression algorithm  1   Integral accuracy      1.0D-16

     57.934 MB (compressed) written to integral file ( 87.6%)

     Node minimum: 57.934 MB, node maximum: 57.934 MB


 NUMBER OF SORTED TWO-ELECTRON INTEGRALS:    6999411.     BUFFER LENGTH:  32768
 NUMBER OF SEGMENTS:   1  SEGMENT LENGTH:    6999411      RECORD LENGTH: 524288

 Memory used in sort:       7.56 MW

 SORT1 READ     8242194. AND WROTE     6854781. INTEGRALS IN     20 RECORDS. CPU TIME:     0.07 SEC, REAL TIME:     0.11 SEC
 SORT2 READ     6854781. AND WROTE     6999411. INTEGRALS IN    221 RECORDS. CPU TIME:     0.08 SEC, REAL TIME:     0.11 SEC

 FILE SIZES:   FILE 1:    52.2 MBYTE,  FILE 4:    83.9 MBYTE,   TOTAL:    136.2 MBYTE

 OPERATOR DM      FOR CENTER  0  COORDINATES:    0.000000    0.000000    0.000000


 **********************************************************************************************************************************
 DATASETS  * FILE   NREC   LENGTH (MB)   RECORD NAMES
              1      19       52.33       500      610      700      900      950      970     1000      129      960     1100   
                                          VAR    BASINP    GEOM    SYMINP    ZMAT    AOBASIS   BASIS     P2S    ABASIS      S 
                                         1400     1410     1200     1210     1080     1600     1650     1300     1700   
                                           T        V       H0       H01     AOSYM     SMH    MOLCAS    ERIS     OPER   

 PROGRAMS   *        TOTAL       INT
 CPU TIMES  *         0.61      0.57
 REAL TIME  *         0.90 SEC
 DISK USED  *       194.86 MB      
 GA USED    *         0.00 MB       (max)       0.00 MB       (current)
 **********************************************************************************************************************************

1PROGRAM * RHF-SCF (CLOSED SHELL)       Authors: W. Meyer, H.-J. Werner


 NUMBER OF ELECTRONS:      10+   10-    SPACE SYMMETRY=1    SPIN SYMMETRY: Singlet 
 CONVERGENCE THRESHOLDS:    1.00E-10 (Density)    1.00E-13 (Energy)
 MAX. NUMBER OF ITERATIONS:      200
 INTERPOLATION TYPE:            DIIS
 INTERPOLATION STEPS:              2 (START)      1 (STEP)
 LEVEL SHIFTS:                  0.00 (CLOSED)  0.00 (OPEN) 



 Orbital guess generated from atomic densities. Full valence occupancy:   18

 Molecular orbital dump at record        2100.2

 ITERATION    DDIFF          GRAD             ENERGY        2-EL.EN.            DIPOLE MOMENTS         DIIS
    1      0.000D+00      0.000D+00       -80.36118439    134.779367   -0.00121   -0.00165   -0.00207    0
    2      0.000D+00      0.502D-02       -80.39312498    132.489766    0.00055    0.00084    0.00115    1
    3      0.106D-01      0.186D-02       -80.39707916    133.310707    0.00052    0.00092    0.00100    2
    4      0.347D-02      0.507D-03       -80.39766276    133.178341    0.00071    0.00124    0.00129    3
    5      0.114D-02      0.611D-04       -80.39767058    133.185717    0.00074    0.00128    0.00134    4
    6      0.162D-03      0.345D-05       -80.39767061    133.185551    0.00074    0.00129    0.00133    5
    7      0.156D-04      0.271D-06       -80.39767061    133.185540    0.00074    0.00129    0.00134    5
    8      0.872D-06      0.493D-07       -80.39767061    133.185540    0.00074    0.00129    0.00134    4
    9      0.117D-06      0.871D-08       -80.39767061    133.185541    0.00074    0.00129    0.00134    4
   10      0.237D-07      0.170D-08       -80.39767061    133.185541    0.00074    0.00129    0.00134    5
   11      0.466D-08      0.413D-09       -80.39767061    133.185541    0.00074    0.00129    0.00134    5
   12      0.959D-09      0.127D-09       -80.39767061    133.185541    0.00074    0.00129    0.00134    6
   13      0.347D-09      0.244D-10       -80.39767061    133.185541    0.00074    0.00129    0.00134    6
   14      0.601D-10      0.546D-11       -80.39767061    133.185541    0.00074    0.00129    0.00134    6
   15      0.227D-10      0.506D-12       -80.39767061    133.185541    0.00074    0.00129    0.00134    0

 Final occupancy:  10

 !RHF STATE 1.1 Energy                -80.397670611759
 Nuclear energy                        41.34136251
 One-electron energy                 -188.33180375
 Two-electron energy                   66.59277062
 Virial quotient                       -1.00212467
 !RHF STATE 1.1 Dipole moment           0.00073795     0.00129134     0.00133589
 Dipole moment /Debye                   0.00187557     0.00328204     0.00339528

 Orbital energies:

         1.1          2.1          3.1          4.1          5.1          6.1          7.1          8.1          9.1         10.1
    -11.215504   -11.215478    -0.945499    -0.939604    -0.550491    -0.546825    -0.546238    -0.539417    -0.538854    -0.535222

        11.1         12.1
      0.080166     0.084276


 **********************************************************************************************************************************
 DATASETS  * FILE   NREC   LENGTH (MB)   RECORD NAMES
              1      19       52.33       500      610      700      900      950      970     1000      129      960     1100   
                                          VAR    BASINP    GEOM    SYMINP    ZMAT    AOBASIS   BASIS     P2S    ABASIS      S 
                                         1400     1410     1200     1210     1080     1600     1650     1300     1700   
                                           T        V       H0       H01     AOSYM     SMH    MOLCAS    ERIS     OPER   

              2       3        0.57       700     1000     2100   
                                         GEOM     BASIS     RHF  

 PROGRAMS   *        TOTAL       RHF       INT
 CPU TIMES  *         1.31      0.70      0.57
 REAL TIME  *         1.67 SEC
 DISK USED  *       194.86 MB      
 GA USED    *         0.00 MB       (max)       0.00 MB       (current)
 **********************************************************************************************************************************


1PROGRAM * CCSD (Closed-shell coupled cluster)     Authors: C. Hampel, H.-J. Werner, 1991, M. Deegan, P.J. Knowles, 1992


 Convergence thresholds:  THRVAR = 1.00D-08  THRDEN = 1.00D-12

 CCSD(T)     terms to be evaluated (factor= 1.000)


 Number of core orbitals:           2 (   2 )
 Number of closed-shell orbitals:   8 (   8 )
 Number of external orbitals:      76 (  76 )

 Molecular orbitals read from record     2100.2  Type=RHF/CANONICAL (state 1.1)

 Number of N-1 electron functions:               8
 Number of N-2 electron functions:              36
 Number of singly external CSFs:               608
 Number of doubly external CSFs:            185136
 Total number of CSFs:                      185745

 Length of J-op  integral file:               0.00 MB
 Length of K-op  integral file:               0.54 MB
 Length of 3-ext integral record:             0.00 MB

 Memory could be reduced to 5.45 Mwords without degradation in triples

 Integral transformation finished. Total CPU:   0.16 sec, npass=  1  Memory used:   3.53 MW

 Reference energy:                    -80.39767061

 MP2 singlet pair energy:              -0.23821302
 MP2 triplet pair energy:              -0.09578748
 MP2 correlation energy:               -0.33400050
 MP2 total energy:                    -80.73167111

 SCS-MP2 correlation energy:           -0.34545672   (PS=  1.200000  PT=  0.333333)
 SCS-MP2 total energy:                -80.74312733

 ITER.      SQ.NORM     CORR.ENERGY   TOTAL ENERGY   ENERGY CHANGE        DEN1      VAR(S)    VAR(P)  DIIS     TIME
   1      1.13988376    -0.37811839   -80.77578900    -0.04411790    -0.03297254  0.68D-03  0.24D-02  1  1     0.40
   2      1.15302689    -0.38091185   -80.77858246    -0.00279346    -0.01280943  0.15D-04  0.11D-03  2  2     0.67
   3      1.15509790    -0.38105004   -80.77872065    -0.00013819    -0.00107881  0.24D-05  0.62D-05  3  3     0.93
   4      1.15552596    -0.38106768   -80.77873830    -0.00001764    -0.00017337  0.60D-07  0.37D-06  4  4     1.19
   5      1.15558651    -0.38106373   -80.77873434     0.00000395    -0.00002810  0.29D-08  0.21D-07  5  5     1.45
   6      1.15558877    -0.38106309   -80.77873370     0.00000064    -0.00000061  0.20D-09  0.15D-08  6  6     1.72
   7      1.15558894    -0.38106337   -80.77873398    -0.00000028     0.00000005  0.15D-10  0.95D-10  6  1     1.99
   8      1.15558900    -0.38106338   -80.77873399    -0.00000001    -0.00000010  0.18D-11  0.64D-11  6  2     2.25
   9      1.15558892    -0.38106337   -80.77873399     0.00000000     0.00000002  0.37D-12  0.44D-12  6  4     2.52
  10      1.15558891    -0.38106338   -80.77873399    -0.00000000    -0.00000000  0.29D-13  0.33D-13  6  3     2.78
  11      1.15558890    -0.38106338   -80.77873399    -0.00000000     0.00000000  0.25D-14  0.30D-14  6  5     3.05
  12      1.15558889    -0.38106338   -80.77873399    -0.00000000     0.00000000  0.20D-15  0.31D-15  6  6     3.31
  13      1.15558889    -0.38106338   -80.77873399    -0.00000000     0.00000000  0.12D-16  0.40D-16  6  1     3.58
  14      1.15558889    -0.38106338   -80.77873399    -0.00000000     0.00000000  0.16D-17  0.49D-17  6  2     3.84
  15      1.15558889    -0.38106338   -80.77873399    -0.00000000     0.00000000  0.11D-18  0.52D-18  6  4     4.10
  16      1.15558889    -0.38106338   -80.77873399    -0.00000000     0.00000000  0.11D-19  0.44D-19  6  3     4.37
  17      1.15558889    -0.38106338   -80.77873399     0.00000000    -0.00000000  0.24D-21  0.38D-20  6  6     4.63
  18      1.15558889    -0.38106338   -80.77873399     0.00000000    -0.00000000  0.38D-22  0.81D-22  6  5     4.90

 Norm of t1 vector:      0.03875882      S-energy:    -0.00000000      T1 diagnostic:  0.00685166
                                                                       D1 diagnostic:  0.01215414


 Total CPU time for triples:      2.17 sec


 RESULTS
 =======

  Reference energy                    -80.397670611759
  CCSD singlet pair energy             -0.287790016163
  CCSD triplet pair energy             -0.093273360785
  CCSD correlation energy              -0.381063376948

  Triples (T) contribution             -0.008788148628
  Total correlation energy             -0.389851525576

  CCSD total energy                   -80.778733988708
  CCSD[T] energy                      -80.787736763623
  CCSD-T energy                       -80.787410082084
 !CCSD(T) total energy                -80.787522137335

 Timing summary (sec):

 STEP                 CPU(USER)    SYS     CPU(TOT)    WALL
 Transformation          0.17      0.03      0.20      0.20
 CCSD iterations         4.73      0.25      4.98      5.01
 Triples                 2.17      0.08      2.25      2.26

 Program statistics:

 Available memory in ccsd:               999999644
 Min. memory needed in ccsd:                591289
 Max. memory used in ccsd:                  742713
 Max. memory used in cckext:                619606 (18 integral passes)



 **********************************************************************************************************************************
 DATASETS  * FILE   NREC   LENGTH (MB)   RECORD NAMES
              1      20       69.91       500      610      700      900      950      970     1000      129      960     1100   
                                          VAR    BASINP    GEOM    SYMINP    ZMAT    AOBASIS   BASIS     P2S    ABASIS      S 
                                         1400     1410     1200     1210     1080     1600     1650     1300     1700     1380   
                                           T        V       H0       H01     AOSYM     SMH    MOLCAS    ERIS     OPER     JKOP   

              2       3        0.57       700     1000     2100   
                                         GEOM     BASIS     RHF  

 PROGRAMS   *        TOTAL   CCSD(T)       RHF       INT
 CPU TIMES  *         8.39      7.08      0.70      0.57
 REAL TIME  *         9.16 SEC
 DISK USED  *       194.86 MB      
 GA USED    *         0.00 MB       (max)       0.00 MB       (current)
 **********************************************************************************************************************************

        CCSD(T)         RHF-SCF 
    -80.78752214    -80.39767061
 **********************************************************************************************************************************
 Variable memory released
