
 Primary working directories    : /tmp/943417.76.gen6.q
 Secondary working directories  : /tmp/943417.76.gen6.q
 Wavefunction directory         : /home/vulcan/mel64643/wfu/
 Main file repository           : /tmp/943417.76.gen6.q/

 ARCHNAME  : Linux/x86_64
 FC        : /opt/intel/compilers_and_libraries_2016.1.150/linux/bin/intel64/ifort
 FCVERSION : 16.0.1
 BLASLIB   : -mkl
 id        : ccgc

 Nodes     nprocs
 n088         1
 ga_uses_ma=false, calling ma_init with nominal heap.
 GA-space will be limited to   8.0 MW (determined by -G option)

 Using customized tuning parameters: mindgm=10; mindgv=16; mindgc=4; mindgr=1; noblas=0; mincuda=1000; minvec=7
 default implementation of scratch files=df  

 ***,Optimization of nh3_nitrosmethane
 memory,1000,m
 gthresh,energy=1.0d-12,orbital=1.0d-10,oneint=1.0d-16,twoint=1.0d-16,optgrad=1.0d-6,compress=1.0d-13
 geomtyp=xyz
 
 bohr
 geometry = {
  N   -5.2274228265   -0.1860823745    0.0015233674
  H   -6.2996513934    0.2285795953   -1.5292509234
  H   -3.7548767810    1.0599495932   -0.0003336359
  H   -6.2979584526    0.2311423550    1.5327861066
  H   -0.9249375378   -2.3992243996   -0.0001635908
  H    1.8920110350   -3.4344639722   -1.6663467825
  H    1.8719587371   -3.4334368448    1.6669687916
  C    1.1355678572   -2.4696411641   -0.0044763745
  N    2.2664392428    0.0979955133    0.0015353830
  O    0.7029886094    1.7822387072   -0.0022423416
 }
 
 basis=cc-pvdz
 {rhf;maxit,200}
 {ccsd(t);maxit,200}

 Variables initialized (661), CPU time= 0.01 sec
 Commands  initialized (458), CPU time= 0.00 sec, 486 directives.
 Default parameters read. Elapsed time= 0.05 sec

 Checking input...
 Passed
1


                                         ***  PROGRAM SYSTEM MOLPRO  ***
                         Copyright, University College Cardiff Consultants Limited, 2008

                                    Version 2010.1 linked May 16 2016 07:17:05


 **********************************************************************************************************************************
 LABEL *   Optimization of nh3_nitrosmethane                                             
 Linux-4.4.3/n088(x86_64) 64 bit mpp version                                             DATE: 25-Oct-23          TIME: 16:33:19  
 **********************************************************************************************************************************

 SHA1:             9e8077add272b0f3cad6f7df79ec5211205f459d
 **********************************************************************************************************************************

 THRESHOLDS:

 ZERO    =  1.00D-12  ONEINT  =  1.00D-16  TWOINT  =  1.00D-16  PREFAC  =  1.00D-14  LOCALI  =  1.00D-09  EORDER  =  1.00D-04
 ENERGY  =  1.00D-12  ETEST   =  0.00D+00  EDENS   =  0.00D+00  THRDEDEF=  1.00D-06  GRADIENT=  1.00D-02  STEP    =  1.00D-03
 ORBITAL =  1.00D-10  CIVEC   =  1.00D-05  COEFF   =  1.00D-04  PRINTCI =  5.00D-02  PUNCHCI =  9.90D+01  OPTGRAD =  1.00D-06
 OPTENERG=  1.00D-06  OPTSTEP =  3.00D-04  THRGRAD =  1.00D-10  COMPRESS=  1.00D-13  VARMIN  =  1.00D-07  VARMAX  =  1.00D-03
 THRDOUB =  0.00D+00  THRDIV  =  1.00D-05  THRRED  =  1.00D-07  THRPSP  =  1.00D+00  THRDC   =  1.00D-10  THRCS   =  1.00D-10
 THRNRM  =  1.00D-08  THREQ   =  0.00D+00  THRDE   =  1.00D+00  THRREF  =  1.00D-05  SPARFAC =  1.00D+00  THRDLP  =  1.00D-07
 THRDIA  =  1.00D-10  THRDLS  =  1.00D-07  THRGPS  =  0.00D+00  THRKEX  =  0.00D+00  THRDIS  =  2.00D-01  THRVAR  =  1.00D-10
 THRLOC  =  1.00D-06  THRGAP  =  1.00D-06  THRLOCT = -1.00D+00  THRGAPT = -1.00D+00  THRORB  =  1.00D-06  THRMLTP =  0.00D+00
 THRCPQCI=  1.00D-10  KEXTA   =  0.00D+00  THRCOARS=  0.00D+00  SYMTOL  =  1.00D-06  GRADTOL =  1.00D-06  THROVL  =  1.00D-08
 THRORTH =  1.00D-08  GRID    =  1.00D-06  GRIDMAX =  1.00D-03  DTMAX   =  0.00D+00

 SETTING GEOMTYP        =    XYZ
 ZUNIT=BOHR
 

 Variable memory set to 1000000000 words,  buffer space   230000 words

 SETTING BASIS          =    CC-PVDZ


 Recomputing integrals since basis changed


 Using spherical harmonics

 Library entry N      S cc-pVDZ              selected for orbital group  1
 Library entry N      P cc-pVDZ              selected for orbital group  1
 Library entry N      D cc-pVDZ              selected for orbital group  1
 Library entry H      S cc-pVDZ              selected for orbital group  2
 Library entry H      P cc-pVDZ              selected for orbital group  2
 Library entry C      S cc-pVDZ              selected for orbital group  3
 Library entry C      P cc-pVDZ              selected for orbital group  3
 Library entry C      D cc-pVDZ              selected for orbital group  3
 Library entry O      S cc-pVDZ              selected for orbital group  5
 Library entry O      P cc-pVDZ              selected for orbital group  5
 Library entry O      D cc-pVDZ              selected for orbital group  5

1PROGRAM * SEWARD (Integral evaluation for generally contracted gaussian basis sets)     Author: Roland Lindh, 1990

 Geometry written to block  1 of record 700


 Point group  C1  



 ATOMIC COORDINATES

 NR  ATOM    CHARGE       X              Y              Z

   1  N       7.00   -5.227422826   -0.186082375    0.001523367
   2  H       1.00   -6.299651393    0.228579595   -1.529250923
   3  H       1.00   -3.754876781    1.059949593   -0.000333636
   4  H       1.00   -6.297958453    0.231142355    1.532786107
   5  H       1.00   -0.924937538   -2.399224400   -0.000163591
   6  H       1.00    1.892011035   -3.434463972   -1.666346783
   7  H       1.00    1.871958737   -3.433436845    1.666968792
   8  C       6.00    1.135567857   -2.469641164   -0.004476374
   9  N       7.00    2.266439243    0.097995513    0.001535383
  10  O       8.00    0.702988609    1.782238707   -0.002242342

 Bond lengths in Bohr (Angstrom)

 1-2  1.914389871  1-3  1.928987032  1-4  1.914389871  5-8  2.061712784  6-8  2.065164058
     ( 1.013051489)     ( 1.020775974)     ( 1.013051489)     ( 1.091011417)     ( 1.092837752)

  7- 8  2.065164058   8- 9  2.805648649   9-10  2.298057286
       ( 1.092837752)       ( 1.484685321)       ( 1.216079541)

 Bond angles

  2-1-3  106.67095379   2-1-4  106.21107417   3-1-4  106.67095378   5-8-6  112.56384403

  5-8-7  111.75356309   5-8-9  111.81259323   6-8-7  107.61715628   6-8-9  106.35819140

  7- 8- 9  106.35819341   8- 9-10  113.35946296

 NUCLEAR CHARGE:                   34
 NUMBER OF PRIMITIVE AOS:         150
 NUMBER OF SYMMETRY AOS:          146
 NUMBER OF CONTRACTIONS:           86   (  86A   )
 NUMBER OF CORE ORBITALS:           4   (   4A   )
 NUMBER OF VALENCE ORBITALS:       22   (  22A   )


 NUCLEAR REPULSION ENERGY  117.37860991


 Eigenvalues of metric

         1 0.629E-02 0.972E-02 0.152E-01 0.180E-01 0.298E-01 0.370E-01 0.392E-01 0.405E-01


 Contracted 2-electron integrals neglected if value below      1.0D-16
 AO integral compression algorithm  1   Integral accuracy      1.0D-16

     52.691 MB (compressed) written to integral file ( 82.3%)

     Node minimum: 52.691 MB, node maximum: 52.691 MB


 NUMBER OF SORTED TWO-ELECTRON INTEGRALS:    6999411.     BUFFER LENGTH:  32768
 NUMBER OF SEGMENTS:   1  SEGMENT LENGTH:    6999411      RECORD LENGTH: 524288

 Memory used in sort:       7.56 MW

 SORT1 READ     8004340. AND WROTE     6866356. INTEGRALS IN     20 RECORDS. CPU TIME:     0.07 SEC, REAL TIME:     0.11 SEC
 SORT2 READ     6866356. AND WROTE     6999411. INTEGRALS IN    201 RECORDS. CPU TIME:     0.10 SEC, REAL TIME:     0.12 SEC

 FILE SIZES:   FILE 1:    48.5 MBYTE,  FILE 4:    83.9 MBYTE,   TOTAL:    132.4 MBYTE

 OPERATOR DM      FOR CENTER  0  COORDINATES:    0.000000    0.000000    0.000000


 **********************************************************************************************************************************
 DATASETS  * FILE   NREC   LENGTH (MB)   RECORD NAMES
              1      19       48.55       500      610      700      900      950      970     1000      129      960     1100   
                                          VAR    BASINP    GEOM    SYMINP    ZMAT    AOBASIS   BASIS     P2S    ABASIS      S 
                                         1400     1410     1200     1210     1080     1600     1650     1300     1700   
                                           T        V       H0       H01     AOSYM     SMH    MOLCAS    ERIS     OPER   

 PROGRAMS   *        TOTAL       INT
 CPU TIMES  *         0.81      0.77
 REAL TIME  *         1.06 SEC
 DISK USED  *       185.84 MB      
 GA USED    *         0.00 MB       (max)       0.00 MB       (current)
 **********************************************************************************************************************************

1PROGRAM * RHF-SCF (CLOSED SHELL)       Authors: W. Meyer, H.-J. Werner


 NUMBER OF ELECTRONS:      17+   17-    SPACE SYMMETRY=1    SPIN SYMMETRY: Singlet 
 CONVERGENCE THRESHOLDS:    1.00E-10 (Density)    1.00E-13 (Energy)
 MAX. NUMBER OF ITERATIONS:      200
 INTERPOLATION TYPE:            DIIS
 INTERPOLATION STEPS:              2 (START)      1 (STEP)
 LEVEL SHIFTS:                  0.00 (CLOSED)  0.00 (OPEN) 



 Orbital guess generated from atomic densities. Full valence occupancy:   26

 Molecular orbital dump at record        2100.2

 ITERATION    DDIFF          GRAD             ENERGY        2-EL.EN.            DIPOLE MOMENTS         DIIS
    1      0.000D+00      0.000D+00      -224.94600052    393.763996    0.11057   -0.56879    0.00229    0
    2      0.000D+00      0.101D-01      -225.00728885    393.223719   -0.58904   -0.30303   -0.00055    1
    3      0.189D-01      0.693D-02      -225.03991663    393.738624   -0.24660   -0.51411    0.00030    2
    4      0.825D-02      0.139D-02      -225.04207899    393.630076   -0.32588   -0.42235    0.00004    3
    5      0.216D-02      0.531D-03      -225.04245592    393.626354   -0.32754   -0.44901   -0.00003    4
    6      0.908D-03      0.129D-03      -225.04249248    393.648686   -0.33248   -0.44719   -0.00007    5
    7      0.304D-03      0.512D-04      -225.04249829    393.636478   -0.33411   -0.44740   -0.00008    6
    8      0.124D-03      0.198D-04      -225.04249914    393.642041   -0.33488   -0.44737   -0.00009    7
    9      0.434D-04      0.827D-05      -225.04249932    393.640700   -0.33506   -0.44707   -0.00009    8
   10      0.226D-04      0.230D-05      -225.04249933    393.640520   -0.33512   -0.44691   -0.00009    8
   11      0.659D-05      0.695D-06      -225.04249933    393.640571   -0.33514   -0.44684   -0.00009    8
   12      0.187D-05      0.223D-06      -225.04249933    393.640535   -0.33514   -0.44682   -0.00009    8
   13      0.761D-06      0.755D-07      -225.04249933    393.640529   -0.33514   -0.44681   -0.00009    8
   14      0.191D-06      0.425D-07      -225.04249933    393.640530   -0.33514   -0.44681   -0.00009    8
   15      0.113D-06      0.208D-07      -225.04249933    393.640530   -0.33514   -0.44681   -0.00009    8
   16      0.586D-07      0.154D-07      -225.04249933    393.640529   -0.33514   -0.44681   -0.00009    8
   17      0.100D-06      0.800D-08      -225.04249933    393.640530   -0.33514   -0.44681   -0.00009    9
   18      0.780D-07      0.176D-08      -225.04249933    393.640530   -0.33514   -0.44681   -0.00009    9
   19      0.933D-08      0.582D-09      -225.04249933    393.640530   -0.33514   -0.44681   -0.00009    9
   20      0.170D-08      0.166D-09      -225.04249933    393.640530   -0.33514   -0.44681   -0.00009    9
   21      0.411D-09      0.426D-10      -225.04249933    393.640530   -0.33514   -0.44681   -0.00009    9
   22      0.118D-09      0.163D-10      -225.04249933    393.640530   -0.33514   -0.44681   -0.00009    9
   23      0.371D-10      0.746D-11      -225.04249933    393.640530   -0.33514   -0.44681   -0.00009    9
   24      0.190D-10      0.339D-11      -225.04249933    393.640530   -0.33514   -0.44681   -0.00009    8
   25      0.863D-11      0.156D-11      -225.04249933    393.640530   -0.33514   -0.44681   -0.00009    8
   26      0.404D-11      0.548D-12      -225.04249933    393.640530   -0.33514   -0.44681   -0.00009    8
   27      0.125D-11      0.355D-12      -225.04249933    393.640530   -0.33514   -0.44681   -0.00009    8
   28      0.946D-12      0.242D-12      -225.04249933    393.640530   -0.33514   -0.44681   -0.00009    0

 Final occupancy:  17

 !RHF STATE 1.1 Energy               -225.042499331425
 Nuclear energy                       117.37860991
 One-electron energy                 -539.24137420
 Two-electron energy                  196.82026496
 Virial quotient                       -1.00156550
 !RHF STATE 1.1 Dipole moment          -0.33514099    -0.44681240    -0.00009303
 Dipole moment /Debye                  -0.85178765    -1.13560947    -0.00023644

 Orbital energies:

         1.1          2.1          3.1          4.1          5.1          6.1          7.1          8.1          9.1         10.1
    -20.626116   -15.699163   -15.537203   -11.265857    -1.506825    -1.130622    -1.070143    -0.855469    -0.684732    -0.667711

        11.1         12.1         13.1         14.1         15.1         16.1         17.1         18.1         19.1
     -0.630955    -0.615815    -0.612920    -0.550677    -0.527845    -0.420062    -0.398307     0.109444     0.187102


 **********************************************************************************************************************************
 DATASETS  * FILE   NREC   LENGTH (MB)   RECORD NAMES
              1      19       48.55       500      610      700      900      950      970     1000      129      960     1100   
                                          VAR    BASINP    GEOM    SYMINP    ZMAT    AOBASIS   BASIS     P2S    ABASIS      S 
                                         1400     1410     1200     1210     1080     1600     1650     1300     1700   
                                           T        V       H0       H01     AOSYM     SMH    MOLCAS    ERIS     OPER   

              2       3        0.57       700     1000     2100   
                                         GEOM     BASIS     RHF  

 PROGRAMS   *        TOTAL       RHF       INT
 CPU TIMES  *         2.24      1.43      0.77
 REAL TIME  *         2.64 SEC
 DISK USED  *       185.84 MB      
 GA USED    *         0.00 MB       (max)       0.00 MB       (current)
 **********************************************************************************************************************************


1PROGRAM * CCSD (Closed-shell coupled cluster)     Authors: C. Hampel, H.-J. Werner, 1991, M. Deegan, P.J. Knowles, 1992


 Convergence thresholds:  THRVAR = 1.00D-08  THRDEN = 1.00D-12

 CCSD(T)     terms to be evaluated (factor= 1.000)


 Number of core orbitals:           4 (   4 )
 Number of closed-shell orbitals:  13 (  13 )
 Number of external orbitals:      69 (  69 )

 Molecular orbitals read from record     2100.2  Type=RHF/CANONICAL (state 1.1)

 Number of N-1 electron functions:              13
 Number of N-2 electron functions:              91
 Number of singly external CSFs:               897
 Number of doubly external CSFs:            402753
 Total number of CSFs:                      403651

 Length of J-op  integral file:               0.00 MB
 Length of K-op  integral file:               0.54 MB
 Length of 3-ext integral record:             0.00 MB

 Memory could be reduced to 6.46 Mwords without degradation in triples

 Integral transformation finished. Total CPU:   0.25 sec, npass=  1  Memory used:   5.81 MW

 Reference energy:                   -225.04249933

 MP2 singlet pair energy:              -0.42990019
 MP2 triplet pair energy:              -0.25006451
 MP2 correlation energy:               -0.67996470
 MP2 total energy:                   -225.72246403

 SCS-MP2 correlation energy:           -0.67147592   (PS=  1.200000  PT=  0.333333)
 SCS-MP2 total energy:               -225.71397525

 ITER.      SQ.NORM     CORR.ENERGY   TOTAL ENERGY   ENERGY CHANGE        DEN1      VAR(S)    VAR(P)  DIIS     TIME
   1      1.22680968    -0.71575424  -225.75825357    -0.03578954    -0.01323661  0.44D-02  0.46D-02  1  1     0.94
   2      1.24749244    -0.71906440  -225.76156373    -0.00331016    -0.02058345  0.13D-03  0.82D-03  2  2     1.65
   3      1.25646284    -0.71975236  -225.76225169    -0.00068796    -0.00431093  0.10D-03  0.59D-04  3  3     2.36
   4      1.26018979    -0.71974323  -225.76224256     0.00000913    -0.00126904  0.77D-05  0.10D-04  4  4     3.07
   5      1.26162365    -0.71976287  -225.76226220    -0.00001964    -0.00032501  0.14D-05  0.17D-05  5  5     3.77
   6      1.26202323    -0.71973520  -225.76223453     0.00002768    -0.00004704  0.78D-07  0.36D-06  6  6     4.48
   7      1.26211364    -0.71973336  -225.76223269     0.00000183    -0.00000210  0.20D-07  0.96D-07  6  2     5.19
   8      1.26213604    -0.71973344  -225.76223277    -0.00000008     0.00000226  0.86D-08  0.24D-07  6  5     5.90
   9      1.26213126    -0.71973431  -225.76223364    -0.00000087     0.00000162  0.17D-08  0.27D-08  6  1     6.61
  10      1.26213120    -0.71973457  -225.76223390    -0.00000027    -0.00000145  0.40D-09  0.30D-09  6  3     7.32
  11      1.26212969    -0.71973484  -225.76223417    -0.00000027     0.00000087  0.78D-10  0.49D-10  6  4     8.03
  12      1.26212895    -0.71973490  -225.76223423    -0.00000006     0.00000022  0.19D-10  0.11D-10  6  6     8.73
  13      1.26212821    -0.71973494  -225.76223427    -0.00000003     0.00000017  0.40D-11  0.18D-11  6  2     9.44
  14      1.26212784    -0.71973496  -225.76223429    -0.00000002     0.00000012  0.11D-11  0.51D-12  6  1    10.15
  15      1.26212757    -0.71973496  -225.76223430    -0.00000001     0.00000005  0.34D-12  0.96D-13  6  5    10.85
  16      1.26212750    -0.71973497  -225.76223430    -0.00000000     0.00000001  0.23D-12  0.45D-13  6  3    11.56
  17      1.26212746    -0.71973497  -225.76223430    -0.00000000     0.00000001  0.13D-12  0.20D-13  6  4    12.26
  18      1.26212745    -0.71973497  -225.76223430    -0.00000000    -0.00000000  0.70D-13  0.90D-14  6  6    12.97
  19      1.26212745    -0.71973497  -225.76223430     0.00000000    -0.00000000  0.19D-13  0.42D-14  6  2    13.67
  20      1.26212746    -0.71973497  -225.76223430     0.00000000    -0.00000000  0.51D-14  0.23D-14  6  1    14.38
  21      1.26212746    -0.71973497  -225.76223430    -0.00000000     0.00000000  0.10D-14  0.99D-15  6  5    15.09
  22      1.26212747    -0.71973497  -225.76223430     0.00000000    -0.00000000  0.13D-15  0.27D-15  6  4    15.79
  23      1.26212747    -0.71973497  -225.76223430     0.00000000    -0.00000000  0.12D-16  0.53D-16  6  3    16.51
  24      1.26212747    -0.71973497  -225.76223430    -0.00000000    -0.00000000  0.48D-17  0.12D-16  6  2    17.21
  25      1.26212747    -0.71973497  -225.76223430     0.00000000    -0.00000000  0.11D-17  0.23D-17  6  6    17.92
  26      1.26212747    -0.71973497  -225.76223430     0.00000000    -0.00000000  0.67D-18  0.50D-18  6  1    18.63
  27      1.26212747    -0.71973497  -225.76223430    -0.00000000     0.00000000  0.31D-18  0.14D-18  6  5    19.34
  28      1.26212747    -0.71973497  -225.76223430    -0.00000000     0.00000000  0.13D-18  0.22D-19  6  4    20.04
  29      1.26212747    -0.71973497  -225.76223430    -0.00000000     0.00000000  0.46D-19  0.10D-19  6  2    20.74

 Norm of t1 vector:      0.10010212      S-energy:    -0.00000000      T1 diagnostic:  0.01388167
                                                                       D1 diagnostic:  0.05076613

 Doubles amplitudes (print threshold =  0.500E-01):

         I         J         SYM. A    SYM. B    A         B      T(IJ, AB)

         7         7         1         1         1         1     -0.06081737
        11         7         1         1         1         1     -0.06593455
        11        11         1         1         1         1     -0.09627154


 Total CPU time for triples:      6.47 sec


 RESULTS
 =======

  Reference energy                   -225.042499331425
  CCSD singlet pair energy             -0.499045765842
  CCSD triplet pair energy             -0.220689203669
  CCSD correlation energy              -0.719734969511

  Triples (T) contribution             -0.021673147193
  Total correlation energy             -0.741408116704

  CCSD total energy                  -225.762234300936
  CCSD[T] energy                     -225.785282515043
  CCSD-T energy                      -225.783504084547
 !CCSD(T) total energy               -225.783907448129

 Timing summary (sec):

 STEP                 CPU(USER)    SYS     CPU(TOT)    WALL
 Transformation          0.27      0.04      0.31      0.31
 CCSD iterations        20.47      0.64     21.11     21.17
 Triples                 6.47      0.16      6.63      6.63

 Program statistics:

 Available memory in ccsd:               999999224
 Min. memory needed in ccsd:               1143606
 Max. memory used in ccsd:                 1480488
 Max. memory used in cckext:               1471436 (29 integral passes)



 **********************************************************************************************************************************
 DATASETS  * FILE   NREC   LENGTH (MB)   RECORD NAMES
              1      20       74.17       500      610      700      900      950      970     1000      129      960     1100   
                                          VAR    BASINP    GEOM    SYMINP    ZMAT    AOBASIS   BASIS     P2S    ABASIS      S 
                                         1400     1410     1200     1210     1080     1600     1650     1300     1700     1380   
                                           T        V       H0       H01     AOSYM     SMH    MOLCAS    ERIS     OPER     JKOP   

              2       3        0.57       700     1000     2100   
                                         GEOM     BASIS     RHF  

 PROGRAMS   *        TOTAL   CCSD(T)       RHF       INT
 CPU TIMES  *        29.46     27.22      1.43      0.77
 REAL TIME  *        30.78 SEC
 DISK USED  *       198.48 MB      
 GA USED    *         0.00 MB       (max)       0.00 MB       (current)
 **********************************************************************************************************************************

        CCSD(T)         RHF-SCF 
   -225.78390745   -225.04249933
 **********************************************************************************************************************************
 Variable memory released
