
 Primary working directories    : /tmp/862144.534.gen4.q
 Secondary working directories  : /tmp/862144.534.gen4.q
 Wavefunction directory         : /home/vulcan/lo21740/wfu/
 Main file repository           : /tmp/862144.534.gen4.q/

 ARCHNAME  : Linux/x86_64
 FC        : /opt/intel/compilers_and_libraries_2016.1.150/linux/bin/intel64/ifort
 FCVERSION : 16.0.1
 BLASLIB   : -mkl
 id        : ccgc

 Nodes     nprocs
 n056         1
 ga_uses_ma=false, calling ma_init with nominal heap.
 GA-space will be limited to   8.0 MW (determined by -G option)

 Using customized tuning parameters: mindgm=10; mindgv=16; mindgc=4; mindgr=1; noblas=0; mincuda=1000; minvec=7
 default implementation of scratch files=df  

 ***,Optimization of formic acid
 memory,1000,m
 gthresh,energy=1.0d-12,orbital=1.0d-10,oneint=1.0d-16,twoint=1.0d-16,optgrad=1.0d-6,compress=1.0d-13
 geomtyp=xyz
 
 bohr
 geometry = {
  C   -3.5008729827   -0.8295500365    0.0003585558
  O   -3.0923628154    1.6253184232   -0.0030245473
  O   -1.8879853450   -2.4779165560    0.0055968222
  H   -5.5184914265   -1.2794594753   -0.0031293587
  H   -1.2389654469    1.9543920919    0.0001985279
  C    3.5008729827    0.8295500365    0.0003585558
  O    3.0923628154   -1.6253184232   -0.0030245473
  O    1.8879853450    2.4779165560    0.0055968222
  H    5.5184914265    1.2794594753   -0.0031293587
  H    1.2389654469   -1.9543920919    0.0001985279
 }
 
 basis=VDZ
 {rhf;maxit,200}
 {ccsd(t);maxit,200}

 Variables initialized (661), CPU time= 0.01 sec
 Commands  initialized (458), CPU time= 0.00 sec, 486 directives.
 Default parameters read. Elapsed time= 0.05 sec

 Checking input...
 Passed
1


                                         ***  PROGRAM SYSTEM MOLPRO  ***
                         Copyright, University College Cardiff Consultants Limited, 2008

                                    Version 2010.1 linked May 16 2016 07:17:05


 **********************************************************************************************************************************
 LABEL *   Optimization of formic acid                                                   
 Linux-4.4.3/n056(x86_64) 64 bit mpp version                                             DATE: 26-Apr-23          TIME: 18:45:51  
 **********************************************************************************************************************************

 SHA1:             9e8077add272b0f3cad6f7df79ec5211205f459d
 **********************************************************************************************************************************

 THRESHOLDS:

 ZERO    =  1.00D-12  ONEINT  =  1.00D-16  TWOINT  =  1.00D-16  PREFAC  =  1.00D-14  LOCALI  =  1.00D-09  EORDER  =  1.00D-04
 ENERGY  =  1.00D-12  ETEST   =  0.00D+00  EDENS   =  0.00D+00  THRDEDEF=  1.00D-06  GRADIENT=  1.00D-02  STEP    =  1.00D-03
 ORBITAL =  1.00D-10  CIVEC   =  1.00D-05  COEFF   =  1.00D-04  PRINTCI =  5.00D-02  PUNCHCI =  9.90D+01  OPTGRAD =  1.00D-06
 OPTENERG=  1.00D-06  OPTSTEP =  3.00D-04  THRGRAD =  1.00D-10  COMPRESS=  1.00D-13  VARMIN  =  1.00D-07  VARMAX  =  1.00D-03
 THRDOUB =  0.00D+00  THRDIV  =  1.00D-05  THRRED  =  1.00D-07  THRPSP  =  1.00D+00  THRDC   =  1.00D-10  THRCS   =  1.00D-10
 THRNRM  =  1.00D-08  THREQ   =  0.00D+00  THRDE   =  1.00D+00  THRREF  =  1.00D-05  SPARFAC =  1.00D+00  THRDLP  =  1.00D-07
 THRDIA  =  1.00D-10  THRDLS  =  1.00D-07  THRGPS  =  0.00D+00  THRKEX  =  0.00D+00  THRDIS  =  2.00D-01  THRVAR  =  1.00D-10
 THRLOC  =  1.00D-06  THRGAP  =  1.00D-06  THRLOCT = -1.00D+00  THRGAPT = -1.00D+00  THRORB  =  1.00D-06  THRMLTP =  0.00D+00
 THRCPQCI=  1.00D-10  KEXTA   =  0.00D+00  THRCOARS=  0.00D+00  SYMTOL  =  1.00D-06  GRADTOL =  1.00D-06  THROVL  =  1.00D-08
 THRORTH =  1.00D-08  GRID    =  1.00D-06  GRIDMAX =  1.00D-03  DTMAX   =  0.00D+00

 SETTING GEOMTYP        =    XYZ
 ZUNIT=BOHR
 

 Variable memory set to 1000000000 words,  buffer space   230000 words

 SETTING BASIS          =    VDZ


 Recomputing integrals since basis changed


 Using spherical harmonics

 Library entry C      S cc-pVDZ              selected for orbital group  1
 Library entry C      P cc-pVDZ              selected for orbital group  1
 Library entry C      D cc-pVDZ              selected for orbital group  1
 Library entry O      S cc-pVDZ              selected for orbital group  2
 Library entry O      P cc-pVDZ              selected for orbital group  2
 Library entry O      D cc-pVDZ              selected for orbital group  2
 Library entry H      S cc-pVDZ              selected for orbital group  3
 Library entry H      P cc-pVDZ              selected for orbital group  3

1PROGRAM * SEWARD (Integral evaluation for generally contracted gaussian basis sets)     Author: Roland Lindh, 1990

 Geometry written to block  1 of record 700


 Point group  C2  



 ATOMIC COORDINATES

 NR  ATOM    CHARGE       X              Y              Z

   1  C       6.00   -3.500872983   -0.829550037    0.000358556
   2  C       6.00    3.500872983    0.829550037    0.000358556
   3  O       8.00   -3.092362815    1.625318423   -0.003024547
   4  O       8.00    3.092362815   -1.625318423   -0.003024547
   5  O       8.00   -1.887985345   -2.477916556    0.005596822
   6  O       8.00    1.887985345    2.477916556    0.005596822
   7  H       1.00   -5.518491426   -1.279459475   -0.003129359
   8  H       1.00    5.518491426    1.279459475   -0.003129359
   9  H       1.00   -1.238965447    1.954392092    0.000198528
  10  H       1.00    1.238965447   -1.954392092    0.000198528

 Bond lengths in Bohr (Angstrom)

 1-3  2.488628369  1-5  2.306197336  1-7  2.067175574  2-4  2.488628369  2-6  2.306197336
     ( 1.316925414)     ( 1.220387070)     ( 1.093902201)     ( 1.316925414)     ( 1.220387070)

  2- 8  2.067175574   3- 9  1.882387227   4-10  1.882387227
       ( 1.093902201)       ( 0.996116419)       ( 0.996116419)

 Bond angles

  1- 3- 9  109.51575659   2- 4-10  109.51575659   3- 1- 5  126.17545216   3- 1- 7  112.01845513

  4-2-6  126.17545216   4-2-8  112.01845513   5-1-7  121.80608509   6-2-8  121.80608509

 NUCLEAR CHARGE:                   48
 NUMBER OF PRIMITIVE AOS:         190
 NUMBER OF SYMMETRY AOS:          184
 NUMBER OF CONTRACTIONS:          104   (  52A   +  52B   )
 NUMBER OF CORE ORBITALS:           6   (   3A   +   3B   )
 NUMBER OF VALENCE ORBITALS:       28   (  14A   +  14B   )


 NUCLEAR REPULSION ENERGY  235.58272104


 Eigenvalues of metric

         1 0.818E-02 0.138E-01 0.166E-01 0.298E-01 0.376E-01 0.443E-01 0.554E-01 0.933E-01
         2 0.871E-02 0.141E-01 0.165E-01 0.306E-01 0.354E-01 0.441E-01 0.529E-01 0.961E-01


 Contracted 2-electron integrals neglected if value below      1.0D-16
 AO integral compression algorithm  1   Integral accuracy      1.0D-16

     72.614 MB (compressed) written to integral file ( 95.8%)

     Node minimum: 72.614 MB, node maximum: 72.614 MB


 NUMBER OF SORTED TWO-ELECTRON INTEGRALS:    7596914.     BUFFER LENGTH:  32768
 NUMBER OF SEGMENTS:   1  SEGMENT LENGTH:    7596914      RECORD LENGTH: 524288

 Memory used in sort:       8.15 MW

 SORT1 READ     9494560. AND WROTE     7533810. INTEGRALS IN     22 RECORDS. CPU TIME:     0.10 SEC, REAL TIME:     0.14 SEC
 SORT2 READ     7533810. AND WROTE     7596914. INTEGRALS IN    277 RECORDS. CPU TIME:     0.10 SEC, REAL TIME:     0.14 SEC

 FILE SIZES:   FILE 1:    62.1 MBYTE,  FILE 4:    92.3 MBYTE,   TOTAL:    154.4 MBYTE

 OPERATOR DM      FOR CENTER  0  COORDINATES:    0.000000    0.000000    0.000000


 **********************************************************************************************************************************
 DATASETS  * FILE   NREC   LENGTH (MB)   RECORD NAMES
              1      19       62.16       500      610      700      900      950      970     1000      129      960     1100   
                                          VAR    BASINP    GEOM    SYMINP    ZMAT    AOBASIS   BASIS     P2S    ABASIS      S 
                                         1400     1410     1200     1210     1080     1600     1650     1300     1700   
                                           T        V       H0       H01     AOSYM     SMH    MOLCAS    ERIS     OPER   

 PROGRAMS   *        TOTAL       INT
 CPU TIMES  *         1.31      1.27
 REAL TIME  *         1.60 SEC
 DISK USED  *       227.80 MB      
 GA USED    *         0.00 MB       (max)       0.00 MB       (current)
 **********************************************************************************************************************************

1PROGRAM * RHF-SCF (CLOSED SHELL)       Authors: W. Meyer, H.-J. Werner


 NUMBER OF ELECTRONS:      24+   24-
 CONVERGENCE THRESHOLDS:    1.00E-10 (Density)    1.00E-13 (Energy)
 MAX. NUMBER OF ITERATIONS:      200
 INTERPOLATION TYPE:            DIIS
 INTERPOLATION STEPS:              2 (START)      1 (STEP)
 LEVEL SHIFTS:                  0.00 (CLOSED)  0.00 (OPEN) 



 Orbital guess generated from atomic densities. Full valence occupancy:   17  17

 Molecular orbital dump at record        2100.2

 Initial alpha occupancy:  12  12
 Initial beta  occupancy:  12  12
 Wave function symmetry:    1

 ITERATION    DDIFF          GRAD             ENERGY        2-EL.EN.            DIPOLE MOMENTS         DIIS
    1      0.000D+00      0.000D+00      -377.45028036    747.166148    0.00000    0.00000   -0.00376    0
    2      0.000D+00      0.155D-01      -377.53804320    744.313406    0.00000    0.00000   -0.00160    1
    3      0.306D-01      0.960D-02      -377.58442402    746.561565    0.00000    0.00000   -0.00288    2
    4      0.111D-01      0.136D-02      -377.58591046    746.281391    0.00000    0.00000   -0.00262    3
    5      0.217D-02      0.564D-03      -377.58617014    746.307744    0.00000    0.00000   -0.00269    4
    6      0.893D-03      0.162D-03      -377.58621656    746.351789    0.00000    0.00000   -0.00267    5
    7      0.311D-03      0.744D-04      -377.58622800    746.336629    0.00000    0.00000   -0.00266    6
    8      0.187D-03      0.220D-04      -377.58622900    746.341847    0.00000    0.00000   -0.00266    7
    9      0.580D-04      0.742D-05      -377.58622910    746.340390    0.00000    0.00000   -0.00266    8
   10      0.201D-04      0.202D-05      -377.58622911    746.340559    0.00000    0.00000   -0.00266    7
   11      0.562D-05      0.495D-06      -377.58622911    746.340504    0.00000    0.00000   -0.00266    8
   12      0.131D-05      0.139D-06      -377.58622911    746.340526    0.00000    0.00000   -0.00266    7
   13      0.362D-06      0.556D-07      -377.58622911    746.340514    0.00000    0.00000   -0.00266    8
   14      0.105D-06      0.169D-07      -377.58622911    746.340517    0.00000    0.00000   -0.00266    7
   15      0.432D-07      0.503D-08      -377.58622911    746.340516    0.00000    0.00000   -0.00266    7
   16      0.891D-08      0.140D-08      -377.58622911    746.340516    0.00000    0.00000   -0.00266    7
   17      0.284D-08      0.546D-09      -377.58622911    746.340516    0.00000    0.00000   -0.00266    7
   18      0.108D-08      0.163D-09      -377.58622911    746.340516    0.00000    0.00000   -0.00266    8
   19      0.397D-09      0.533D-10      -377.58622911    746.340516    0.00000    0.00000   -0.00266    8
   20      0.132D-09      0.119D-10      -377.58622911    746.340516    0.00000    0.00000   -0.00266    7
   21      0.316D-10      0.268D-11      -377.58622911    746.340516    0.00000    0.00000   -0.00266    7
   22      0.713D-11      0.114D-11      -377.58622911    746.340516    0.00000    0.00000   -0.00266    7
   23      0.268D-11      0.334D-12      -377.58622911    746.340516    0.00000    0.00000   -0.00266    8
   24      0.702D-12      0.132D-12      -377.58622911    746.340516    0.00000    0.00000   -0.00266    0

 Final occupancy:  12  12

 !RHF STATE 1.1 Energy               -377.586229107575
 Nuclear energy                       235.58272104
 One-electron energy                 -986.33920829
 Two-electron energy                  373.17025814
 Virial quotient                       -1.00121088
 !RHF STATE 1.1 Dipole moment           0.00000000     0.00000000    -0.00265811
 Dipole moment /Debye                   0.00000000     0.00000000    -0.00675580

 Orbital energies:

         1.1          2.1          3.1          4.1          5.1          6.1          7.1          8.1          9.1         10.1
    -20.613499   -20.575605   -11.411847    -1.482113    -1.370011    -0.913937    -0.728173    -0.688921    -0.638435    -0.615242

        11.1         12.1         13.1         14.1
     -0.489493    -0.487953     0.161236     0.204190

         1.2          2.2          3.2          4.2          5.2          6.2          7.2          8.2          9.2         10.2
    -20.613497   -20.575605   -11.411848    -1.469314    -1.384076    -0.877787    -0.763659    -0.719377    -0.628836    -0.573653

        11.2         12.2         13.2         14.2
     -0.498650    -0.467816     0.166297     0.209815


 **********************************************************************************************************************************
 DATASETS  * FILE   NREC   LENGTH (MB)   RECORD NAMES
              1      19       62.16       500      610      700      900      950      970     1000      129      960     1100   
                                          VAR    BASINP    GEOM    SYMINP    ZMAT    AOBASIS   BASIS     P2S    ABASIS      S 
                                         1400     1410     1200     1210     1080     1600     1650     1300     1700   
                                           T        V       H0       H01     AOSYM     SMH    MOLCAS    ERIS     OPER   

              2       3        0.53       700     1000     2100   
                                         GEOM     BASIS     RHF  

 PROGRAMS   *        TOTAL       RHF       INT
 CPU TIMES  *         2.23      0.92      1.27
 REAL TIME  *         2.69 SEC
 DISK USED  *       227.80 MB      
 GA USED    *         0.00 MB       (max)       0.00 MB       (current)
 **********************************************************************************************************************************


1PROGRAM * CCSD (Closed-shell coupled cluster)     Authors: C. Hampel, H.-J. Werner, 1991, M. Deegan, P.J. Knowles, 1992


 Convergence thresholds:  THRVAR = 1.00D-08  THRDEN = 1.00D-12

 CCSD(T)     terms to be evaluated (factor= 1.000)


 Number of core orbitals:           6 (   3   3 )
 Number of closed-shell orbitals:  18 (   9   9 )
 Number of external orbitals:      80 (  40  40 )

 Molecular orbitals read from record     2100.2  Type=RHF/CANONICAL (state 1.1)

 Number of N-1 electron functions:              18
 Number of N-2 electron functions:             171
 Number of singly external CSFs:               720
 Number of doubly external CSFs:            519120
 Total number of CSFs:                      519841

 Length of J-op  integral file:               0.00 MB
 Length of K-op  integral file:               0.41 MB
 Length of 3-ext integral record:             0.00 MB

 Memory could be reduced to 6.90 Mwords without degradation in triples

 Integral transformation finished. Total CPU:   0.38 sec, npass=  1  Memory used:   5.16 MW

 Reference energy:                   -377.58622911

 MP2 singlet pair energy:              -0.59894215
 MP2 triplet pair energy:              -0.40679791
 MP2 correlation energy:               -1.00574006
 MP2 total energy:                   -378.59196917

 SCS-MP2 correlation energy:           -0.97184928   (PS=  1.200000  PT=  0.333333)
 SCS-MP2 total energy:               -378.55807838

 ITER.      SQ.NORM     CORR.ENERGY   TOTAL ENERGY   ENERGY CHANGE        DEN1      VAR(S)    VAR(P)  DIIS     TIME
   1      1.28146079    -1.02602284  -378.61225194    -0.02028278     0.01040972  0.10D-01  0.55D-02  1  1     1.13
   2      1.30509409    -1.02791706  -378.61414617    -0.00189422    -0.02502212  0.25D-03  0.10D-02  2  2     1.91
   3      1.31807322    -1.02886144  -378.61509055    -0.00094438    -0.00594206  0.20D-03  0.42D-04  3  3     2.69
   4      1.32339015    -1.02862972  -378.61485883     0.00023172    -0.00174542  0.17D-04  0.71D-05  4  4     3.47
   5      1.32544209    -1.02854059  -378.61476970     0.00008913    -0.00045609  0.11D-05  0.68D-06  5  5     4.26
   6      1.32578418    -1.02852039  -378.61474950     0.00002020    -0.00001561  0.10D-06  0.60D-07  6  6     5.05
   7      1.32585282    -1.02851276  -378.61474187     0.00000763    -0.00000447  0.85D-08  0.89D-08  6  2     5.83
   8      1.32585618    -1.02851362  -378.61474273    -0.00000085     0.00000204  0.17D-08  0.93D-09  6  1     6.63
   9      1.32585701    -1.02851329  -378.61474240     0.00000033     0.00000091  0.38D-09  0.17D-09  6  4     7.43
  10      1.32585889    -1.02851313  -378.61474224     0.00000016    -0.00000065  0.11D-09  0.29D-10  6  3     8.23
  11      1.32585838    -1.02851326  -378.61474237    -0.00000013     0.00000025  0.23D-10  0.60D-11  6  5     9.02
  12      1.32585803    -1.02851328  -378.61474239    -0.00000001     0.00000005  0.28D-11  0.12D-11  6  6     9.82
  13      1.32585768    -1.02851332  -378.61474243    -0.00000005     0.00000014  0.29D-12  0.22D-12  6  1    10.61
  14      1.32585756    -1.02851333  -378.61474244    -0.00000000     0.00000003  0.30D-13  0.24D-13  6  2    11.39
  15      1.32585752    -1.02851333  -378.61474244    -0.00000000     0.00000001  0.64D-14  0.29D-14  6  4    12.18
  16      1.32585751    -1.02851333  -378.61474244    -0.00000000     0.00000000  0.96D-15  0.63D-15  6  5    12.99
  17      1.32585750    -1.02851333  -378.61474244    -0.00000000    -0.00000000  0.14D-15  0.59D-16  6  3    13.77
  18      1.32585750    -1.02851333  -378.61474244    -0.00000000     0.00000000  0.51D-16  0.17D-16  6  5    14.55
  19      1.32585750    -1.02851333  -378.61474244    -0.00000000     0.00000000  0.12D-16  0.33D-17  6  6    15.34
  20      1.32585750    -1.02851333  -378.61474244     0.00000000    -0.00000000  0.36D-17  0.86D-18  6  1    16.13
  21      1.32585750    -1.02851333  -378.61474244    -0.00000000     0.00000000  0.86D-18  0.22D-18  6  2    16.91
  22      1.32585750    -1.02851333  -378.61474244     0.00000000    -0.00000000  0.14D-18  0.47D-19  6  4    17.69
  23      1.32585750    -1.02851333  -378.61474244     0.00000000    -0.00000000  0.23D-19  0.98D-20  6  3    18.48
  24      1.32585750    -1.02851333  -378.61474244     0.00000000    -0.00000000  0.20D-20  0.21D-20  6  6    19.28
  25      1.32585750    -1.02851333  -378.61474244     0.00000000    -0.00000000  0.31D-21  0.17D-21  6  5    20.07

 Norm of t1 vector:      0.15213042      S-energy:     0.00000000      T1 diagnostic:  0.01792874
                                                                       D1 diagnostic:  0.06477360

 Singles amplitudes (print threshold =  0.500E-01):

         I         SYM. A    A   T(IA)

         6         1         1      0.05933165
        15         2         1      0.06117510


 Total CPU time for triples:     11.21 sec


 RESULTS
 =======

  Reference energy                   -377.586229107575
  CCSD singlet pair energy             -0.670764728128
  CCSD triplet pair energy             -0.357748602946
  CCSD correlation energy              -1.028513331074

  Triples (T) contribution             -0.031869734909
  Total correlation energy             -1.060383065983

  CCSD total energy                  -378.614742438649
  CCSD[T] energy                     -378.649881992112
  CCSD-T energy                      -378.645535734512
 !CCSD(T) total energy               -378.646612173558

 Timing summary (sec):

 STEP                 CPU(USER)    SYS     CPU(TOT)    WALL
 Transformation          0.39      0.05      0.44      0.44
 CCSD iterations        19.68      0.76     20.44     20.47
 Triples                11.21      0.32     11.53     11.54

 Program statistics:

 Available memory in ccsd:               999998604
 Min. memory needed in ccsd:               1434204
 Max. memory used in ccsd:                 1896588
 Max. memory used in cckext:               2097662 (25 integral passes)



 **********************************************************************************************************************************
 DATASETS  * FILE   NREC   LENGTH (MB)   RECORD NAMES
              1      20       92.45       500      610      700      900      950      970     1000      129      960     1100   
                                          VAR    BASINP    GEOM    SYMINP    ZMAT    AOBASIS   BASIS     P2S    ABASIS      S 
                                         1400     1410     1200     1210     1080     1600     1650     1300     1700     1380   
                                           T        V       H0       H01     AOSYM     SMH    MOLCAS    ERIS     OPER     JKOP   

              2       3        0.53       700     1000     2100   
                                         GEOM     BASIS     RHF  

 PROGRAMS   *        TOTAL   CCSD(T)       RHF       INT
 CPU TIMES  *        33.52     31.29      0.92      1.27
 REAL TIME  *        35.17 SEC
 DISK USED  *       257.83 MB      
 GA USED    *         0.00 MB       (max)       0.00 MB       (current)
 **********************************************************************************************************************************

        CCSD(T)         RHF-SCF 
   -378.64661217   -377.58622911
 **********************************************************************************************************************************
 Variable memory released
