
 Primary working directories    : /tmp/943217.428.gen6.q
 Secondary working directories  : /tmp/943217.428.gen6.q
 Wavefunction directory         : /home/vulcan/mel64643/wfu/
 Main file repository           : /tmp/943217.428.gen6.q/

 ARCHNAME  : Linux/x86_64
 FC        : /opt/intel/compilers_and_libraries_2016.1.150/linux/bin/intel64/ifort
 FCVERSION : 16.0.1
 BLASLIB   : -mkl
 id        : ccgc

 Nodes     nprocs
 n084         1
 ga_uses_ma=false, calling ma_init with nominal heap.
 GA-space will be limited to   8.0 MW (determined by -G option)

 Using customized tuning parameters: mindgm=10; mindgv=16; mindgc=4; mindgr=1; noblas=0; mincuda=1000; minvec=7
 default implementation of scratch files=df  

 ***,Optimization of formic acid
 memory,1000,m
 gthresh,energy=1.0d-12,orbital=1.0d-10,oneint=1.0d-16,twoint=1.0d-16,optgrad=1.0d-6,compress=1.0d-13
 geomtyp=xyz
 
 bohr
 geometry = {
  C   -3.5003778975   -0.8314038359   -0.0000000000
  O   -3.0943482714    1.6220893963   -0.0000000000
  O   -1.8850000307   -2.4817021957    0.0000000000
  H   -5.5195763158   -1.2742056056   -0.0000000000
  H   -1.2446046086    1.9667058630   -0.0000000000
  C    3.5003778975    0.8314038359    0.0000000000
  O    3.0943482714   -1.6220893963   -0.0000000000
  O    1.8850000307    2.4817021957    0.0000000000
  H    5.5195763158    1.2742056056    0.0000000000
  H    1.2446046086   -1.9667058630   -0.0000000000
 }
 
 basis=VDZ
 {rhf;maxit,200}
 {ccsd(t);maxit,200}

 Variables initialized (661), CPU time= 0.00 sec
 Commands  initialized (458), CPU time= 0.00 sec, 486 directives.
 Default parameters read. Elapsed time= 0.03 sec

 Checking input...
 Passed
1


                                         ***  PROGRAM SYSTEM MOLPRO  ***
                         Copyright, University College Cardiff Consultants Limited, 2008

                                    Version 2010.1 linked May 16 2016 07:17:05


 **********************************************************************************************************************************
 LABEL *   Optimization of formic acid                                                   
 Linux-4.4.3/n084(x86_64) 64 bit mpp version                                             DATE: 24-Oct-23          TIME: 11:46:18  
 **********************************************************************************************************************************

 SHA1:             9e8077add272b0f3cad6f7df79ec5211205f459d
 **********************************************************************************************************************************

 THRESHOLDS:

 ZERO    =  1.00D-12  ONEINT  =  1.00D-16  TWOINT  =  1.00D-16  PREFAC  =  1.00D-14  LOCALI  =  1.00D-09  EORDER  =  1.00D-04
 ENERGY  =  1.00D-12  ETEST   =  0.00D+00  EDENS   =  0.00D+00  THRDEDEF=  1.00D-06  GRADIENT=  1.00D-02  STEP    =  1.00D-03
 ORBITAL =  1.00D-10  CIVEC   =  1.00D-05  COEFF   =  1.00D-04  PRINTCI =  5.00D-02  PUNCHCI =  9.90D+01  OPTGRAD =  1.00D-06
 OPTENERG=  1.00D-06  OPTSTEP =  3.00D-04  THRGRAD =  1.00D-10  COMPRESS=  1.00D-13  VARMIN  =  1.00D-07  VARMAX  =  1.00D-03
 THRDOUB =  0.00D+00  THRDIV  =  1.00D-05  THRRED  =  1.00D-07  THRPSP  =  1.00D+00  THRDC   =  1.00D-10  THRCS   =  1.00D-10
 THRNRM  =  1.00D-08  THREQ   =  0.00D+00  THRDE   =  1.00D+00  THRREF  =  1.00D-05  SPARFAC =  1.00D+00  THRDLP  =  1.00D-07
 THRDIA  =  1.00D-10  THRDLS  =  1.00D-07  THRGPS  =  0.00D+00  THRKEX  =  0.00D+00  THRDIS  =  2.00D-01  THRVAR  =  1.00D-10
 THRLOC  =  1.00D-06  THRGAP  =  1.00D-06  THRLOCT = -1.00D+00  THRGAPT = -1.00D+00  THRORB  =  1.00D-06  THRMLTP =  0.00D+00
 THRCPQCI=  1.00D-10  KEXTA   =  0.00D+00  THRCOARS=  0.00D+00  SYMTOL  =  1.00D-06  GRADTOL =  1.00D-06  THROVL  =  1.00D-08
 THRORTH =  1.00D-08  GRID    =  1.00D-06  GRIDMAX =  1.00D-03  DTMAX   =  0.00D+00

 SETTING GEOMTYP        =    XYZ
 ZUNIT=BOHR
 

 Variable memory set to 1000000000 words,  buffer space   230000 words

 SETTING BASIS          =    VDZ


 Recomputing integrals since basis changed


 Using spherical harmonics

 Library entry C      S cc-pVDZ              selected for orbital group  1
 Library entry C      P cc-pVDZ              selected for orbital group  1
 Library entry C      D cc-pVDZ              selected for orbital group  1
 Library entry O      S cc-pVDZ              selected for orbital group  2
 Library entry O      P cc-pVDZ              selected for orbital group  2
 Library entry O      D cc-pVDZ              selected for orbital group  2
 Library entry H      S cc-pVDZ              selected for orbital group  3
 Library entry H      P cc-pVDZ              selected for orbital group  3

1PROGRAM * SEWARD (Integral evaluation for generally contracted gaussian basis sets)     Author: Roland Lindh, 1990

 Geometry written to block  1 of record 700


 Point group  C2h 



 ATOMIC COORDINATES

 NR  ATOM    CHARGE       X              Y              Z

   1  C       6.00   -3.500377897   -0.831403836    0.000000000
   2  C       6.00    3.500377897    0.831403836    0.000000000
   3  O       8.00   -3.094348271    1.622089396    0.000000000
   4  O       8.00    3.094348271   -1.622089396    0.000000000
   5  O       8.00   -1.885000031   -2.481702196    0.000000000
   6  O       8.00    1.885000031    2.481702196    0.000000000
   7  H       1.00   -5.519576316   -1.274205606    0.000000000
   8  H       1.00    5.519576316    1.274205606    0.000000000
   9  H       1.00   -1.244604609    1.966705863    0.000000000
  10  H       1.00    1.244604609   -1.966705863    0.000000000

 Bond lengths in Bohr (Angstrom)

 1-3  2.486863305  1-5  2.309313822  1-7  2.067180606  2-4  2.486863305  2-6  2.309313822
     ( 1.315991383)     ( 1.222036243)     ( 1.093904864)     ( 1.315991383)     ( 1.222036243)

  2- 8  2.067180606   3- 9  1.881571717   4-10  1.881571717
       ( 1.093904864)       ( 0.995684870)       ( 0.995684870)

 Bond angles

  1- 3- 9  109.95023431   2- 4-10  109.95023431   3- 1- 5  126.21591402   3- 1- 7  111.76566607

  4-2-6  126.21591402   4-2-8  111.76566607   5-1-7  122.01841991   6-2-8  122.01841991

 NUCLEAR CHARGE:                   48
 NUMBER OF PRIMITIVE AOS:         190
 NUMBER OF SYMMETRY AOS:          184
 NUMBER OF CONTRACTIONS:          104   (  38Ag  +  14Au  +  38Bu  +  14Bg  )
 NUMBER OF CORE ORBITALS:           6   (   3Ag  +   0Au  +   3Bu  +   0Bg  )
 NUMBER OF VALENCE ORBITALS:       28   (  11Ag  +   3Au  +  11Bu  +   3Bg  )


 NUCLEAR REPULSION ENERGY  235.50562839


 Eigenvalues of metric

         1 0.821E-02 0.138E-01 0.167E-01 0.300E-01 0.375E-01 0.443E-01 0.555E-01 0.933E-01
         2 0.115E+00 0.174E+00 0.194E+00 0.420E+00 0.480E+00 0.557E+00 0.675E+00 0.999E+00
         3 0.871E-02 0.140E-01 0.165E-01 0.309E-01 0.353E-01 0.441E-01 0.530E-01 0.962E-01
         4 0.116E+00 0.175E+00 0.191E+00 0.421E+00 0.479E+00 0.571E+00 0.652E+00 0.999E+00


 Contracted 2-electron integrals neglected if value below      1.0D-16
 AO integral compression algorithm  1   Integral accuracy      1.0D-16

     40.632 MB (compressed) written to integral file (100.0%)

     Node minimum: 40.632 MB, node maximum: 40.632 MB


 NUMBER OF SORTED TWO-ELECTRON INTEGRALS:    4024002.     BUFFER LENGTH:  32768
 NUMBER OF SEGMENTS:   1  SEGMENT LENGTH:    4024002      RECORD LENGTH: 524288

 Memory used in sort:       4.58 MW

 SORT1 READ     4964096. AND WROTE     4024002. INTEGRALS IN     12 RECORDS. CPU TIME:     0.08 SEC, REAL TIME:     0.09 SEC
 SORT2 READ     4024002. AND WROTE     4024002. INTEGRALS IN    155 RECORDS. CPU TIME:     0.06 SEC, REAL TIME:     0.09 SEC

 FILE SIZES:   FILE 1:    35.7 MBYTE,  FILE 4:    50.4 MBYTE,   TOTAL:     86.0 MBYTE

 OPERATOR DM      FOR CENTER  0  COORDINATES:    0.000000    0.000000    0.000000


 **********************************************************************************************************************************
 DATASETS  * FILE   NREC   LENGTH (MB)   RECORD NAMES
              1      19       35.69       500      610      700      900      950      970     1000      129      960     1100   
                                          VAR    BASINP    GEOM    SYMINP    ZMAT    AOBASIS   BASIS     P2S    ABASIS      S 
                                         1400     1410     1200     1210     1080     1600     1650     1300     1700   
                                           T        V       H0       H01     AOSYM     SMH    MOLCAS    ERIS     OPER   

 PROGRAMS   *        TOTAL       INT
 CPU TIMES  *         0.96      0.92
 REAL TIME  *         1.21 SEC
 DISK USED  *       127.44 MB      
 GA USED    *         0.00 MB       (max)       0.00 MB       (current)
 **********************************************************************************************************************************

1PROGRAM * RHF-SCF (CLOSED SHELL)       Authors: W. Meyer, H.-J. Werner


 NUMBER OF ELECTRONS:      24+   24-
 CONVERGENCE THRESHOLDS:    1.00E-10 (Density)    1.00E-13 (Energy)
 MAX. NUMBER OF ITERATIONS:      200
 INTERPOLATION TYPE:            DIIS
 INTERPOLATION STEPS:              2 (START)      1 (STEP)
 LEVEL SHIFTS:                  0.00 (CLOSED)  0.00 (OPEN) 



 Orbital guess generated from atomic densities. Full valence occupancy:   14   3  14   3

 Molecular orbital dump at record        2100.2

 Initial alpha occupancy:  10   2  10   2
 Initial beta  occupancy:  10   2  10   2
 Wave function symmetry:    1

 ITERATION    DDIFF          GRAD             ENERGY        2-EL.EN.            DIPOLE MOMENTS         DIIS
    1      0.000D+00      0.000D+00      -377.45010266    747.036152    0.00000    0.00000    0.00000    0
    2      0.000D+00      0.198D-01      -377.53774271    744.171224    0.00000    0.00000    0.00000    1
    3      0.391D-01      0.123D-01      -377.58435726    746.423746    0.00000    0.00000    0.00000    2
    4      0.142D-01      0.174D-02      -377.58584699    746.145675    0.00000    0.00000    0.00000    3
    5      0.278D-02      0.723D-03      -377.58610729    746.170797    0.00000    0.00000    0.00000    4
    6      0.114D-02      0.207D-03      -377.58615335    746.215054    0.00000    0.00000    0.00000    5
    7      0.396D-03      0.943D-04      -377.58616465    746.199905    0.00000    0.00000    0.00000    6
    8      0.237D-03      0.281D-04      -377.58616565    746.205116    0.00000    0.00000    0.00000    7
    9      0.739D-04      0.949D-05      -377.58616575    746.203660    0.00000    0.00000    0.00000    8
   10      0.257D-04      0.259D-05      -377.58616576    746.203829    0.00000    0.00000    0.00000    7
   11      0.723D-05      0.635D-06      -377.58616576    746.203774    0.00000    0.00000    0.00000    8
   12      0.169D-05      0.178D-06      -377.58616576    746.203796    0.00000    0.00000    0.00000    7
   13      0.464D-06      0.714D-07      -377.58616576    746.203784    0.00000    0.00000    0.00000    8
   14      0.135D-06      0.216D-07      -377.58616576    746.203786    0.00000    0.00000    0.00000    7
   15      0.555D-07      0.648D-08      -377.58616576    746.203786    0.00000    0.00000    0.00000    7
   16      0.115D-07      0.179D-08      -377.58616576    746.203786    0.00000    0.00000    0.00000    7
   17      0.366D-08      0.698D-09      -377.58616576    746.203786    0.00000    0.00000    0.00000    7
   18      0.138D-08      0.208D-09      -377.58616576    746.203786    0.00000    0.00000    0.00000    8
   19      0.507D-09      0.680D-10      -377.58616576    746.203786    0.00000    0.00000    0.00000    8
   20      0.168D-09      0.151D-10      -377.58616576    746.203786    0.00000    0.00000    0.00000    7
   21      0.403D-10      0.336D-11      -377.58616576    746.203786    0.00000    0.00000    0.00000    7
   22      0.903D-11      0.142D-11      -377.58616576    746.203786    0.00000    0.00000    0.00000    7
   23      0.335D-11      0.306D-12      -377.58616576    746.203786    0.00000    0.00000    0.00000    0

 Final occupancy:  10   2  10   2

 !RHF STATE 1.1 Energy               -377.586165759997
 Nuclear energy                       235.50562839
 One-electron energy                 -986.19368706
 Two-electron energy                  373.10189291
 Virial quotient                       -1.00123725
 !RHF STATE 1.1 Dipole moment           0.00000000     0.00000000     0.00000000
 Dipole moment /Debye                   0.00000000     0.00000000     0.00000000

 Orbital energies:

         1.1          2.1          3.1          4.1          5.1          6.1          7.1          8.1          9.1         10.1
    -20.613525   -20.575309   -11.412043    -1.481670    -1.369391    -0.914565    -0.727946    -0.688833    -0.614601    -0.489302

        11.1         12.1
      0.204181     0.290748

         1.2          2.2          3.2          4.2
     -0.638197    -0.487552     0.161008     0.632027

         1.3          2.3          3.3          4.3          5.3          6.3          7.3          8.3          9.3         10.3
    -20.613524   -20.575310   -11.412044    -1.468966    -1.383399    -0.878705    -0.763367    -0.719106    -0.573019    -0.467718

        11.3         12.3
      0.209812     0.314821

         1.4          2.4          3.4          4.4
     -0.628627    -0.498230     0.166083     0.658479


 **********************************************************************************************************************************
 DATASETS  * FILE   NREC   LENGTH (MB)   RECORD NAMES
              1      19       35.69       500      610      700      900      950      970     1000      129      960     1100   
                                          VAR    BASINP    GEOM    SYMINP    ZMAT    AOBASIS   BASIS     P2S    ABASIS      S 
                                         1400     1410     1200     1210     1080     1600     1650     1300     1700   
                                           T        V       H0       H01     AOSYM     SMH    MOLCAS    ERIS     OPER   

              2       3        0.49       700     1000     2100   
                                         GEOM     BASIS     RHF  

 PROGRAMS   *        TOTAL       RHF       INT
 CPU TIMES  *         1.22      0.26      0.92
 REAL TIME  *         1.55 SEC
 DISK USED  *       127.44 MB      
 GA USED    *         0.00 MB       (max)       0.00 MB       (current)
 **********************************************************************************************************************************


1PROGRAM * CCSD (Closed-shell coupled cluster)     Authors: C. Hampel, H.-J. Werner, 1991, M. Deegan, P.J. Knowles, 1992


 Convergence thresholds:  THRVAR = 1.00D-08  THRDEN = 1.00D-12

 CCSD(T)     terms to be evaluated (factor= 1.000)


 Number of core orbitals:           6 (   3   0   3   0 )
 Number of closed-shell orbitals:  18 (   7   2   7   2 )
 Number of external orbitals:      80 (  28  12  28  12 )

 Molecular orbitals read from record     2100.2  Type=RHF/CANONICAL (state 1.1)

 Number of N-1 electron functions:              18
 Number of N-2 electron functions:             171
 Number of singly external CSFs:               440
 Number of doubly external CSFs:            272720
 Total number of CSFs:                      273161

 Length of J-op  integral file:               0.00 MB
 Length of K-op  integral file:               0.26 MB
 Length of 3-ext integral record:             0.00 MB

 Memory could be reduced to 3.82 Mwords without degradation in triples

 Integral transformation finished. Total CPU:   0.10 sec, npass=  1  Memory used:   1.67 MW

 Reference energy:                   -377.58616576

 MP2 singlet pair energy:              -0.59898906
 MP2 triplet pair energy:              -0.40682783
 MP2 correlation energy:               -1.00581689
 MP2 total energy:                   -378.59198265

 SCS-MP2 correlation energy:           -0.97192419   (PS=  1.200000  PT=  0.333333)
 SCS-MP2 total energy:               -378.55808995

 ITER.      SQ.NORM     CORR.ENERGY   TOTAL ENERGY   ENERGY CHANGE        DEN1      VAR(S)    VAR(P)  DIIS     TIME
   1      1.28153159    -1.02608204  -378.61224780    -0.02026515     0.01047407  0.10D-01  0.55D-02  1  1     0.37
   2      1.30519504    -1.02796583  -378.61413159    -0.00188379    -0.02504399  0.25D-03  0.10D-02  2  2     0.65
   3      1.31821480    -1.02891509  -378.61508085    -0.00094926    -0.00595206  0.20D-03  0.42D-04  3  3     0.94
   4      1.32355533    -1.02868187  -378.61484763     0.00023323    -0.00175056  0.18D-04  0.71D-05  4  4     1.22
   5      1.32561927    -1.02859227  -378.61475803     0.00008960    -0.00045811  0.11D-05  0.68D-06  5  5     1.50
   6      1.32596280    -1.02857184  -378.61473760     0.00002042    -0.00001561  0.10D-06  0.60D-07  6  6     1.79
   7      1.32603151    -1.02856423  -378.61472999     0.00000761    -0.00000448  0.79D-08  0.88D-08  6  2     2.07
   8      1.32603475    -1.02856508  -378.61473084    -0.00000085     0.00000207  0.16D-08  0.89D-09  6  1     2.36
   9      1.32603553    -1.02856475  -378.61473051     0.00000032     0.00000091  0.33D-09  0.16D-09  6  4     2.64
  10      1.32603733    -1.02856460  -378.61473036     0.00000016    -0.00000062  0.92D-10  0.26D-10  6  3     2.93
  11      1.32603682    -1.02856472  -378.61473048    -0.00000012     0.00000025  0.21D-10  0.53D-11  6  5     3.21
  12      1.32603647    -1.02856474  -378.61473050    -0.00000002     0.00000005  0.27D-11  0.11D-11  6  6     3.50
  13      1.32603614    -1.02856478  -378.61473054    -0.00000004     0.00000013  0.30D-12  0.20D-12  6  1     3.78
  14      1.32603603    -1.02856478  -378.61473054    -0.00000000     0.00000002  0.28D-13  0.23D-13  6  2     4.06
  15      1.32603600    -1.02856478  -378.61473054    -0.00000000     0.00000001  0.58D-14  0.28D-14  6  4     4.34
  16      1.32603598    -1.02856478  -378.61473054    -0.00000000     0.00000000  0.84D-15  0.60D-15  6  5     4.63
  17      1.32603598    -1.02856478  -378.61473054    -0.00000000    -0.00000000  0.93D-16  0.52D-16  6  3     4.92
  18      1.32603598    -1.02856479  -378.61473055    -0.00000000     0.00000000  0.26D-16  0.13D-16  6  5     5.20
  19      1.32603598    -1.02856479  -378.61473055    -0.00000000     0.00000000  0.36D-17  0.18D-17  6  6     5.49
  20      1.32603598    -1.02856479  -378.61473055     0.00000000     0.00000000  0.62D-18  0.29D-18  6  1     5.77
  21      1.32603598    -1.02856479  -378.61473055    -0.00000000     0.00000000  0.15D-18  0.47D-19  6  2     6.05
  22      1.32603598    -1.02856479  -378.61473055     0.00000000    -0.00000000  0.34D-19  0.87D-20  6  4     6.33
  23      1.32603598    -1.02856479  -378.61473055     0.00000000    -0.00000000  0.52D-20  0.23D-20  6  3     6.62
  24      1.32603598    -1.02856479  -378.61473055     0.00000000    -0.00000000  0.64D-21  0.51D-21  6  6     6.90
  25      1.32603598    -1.02856479  -378.61473055     0.00000000    -0.00000000  0.10D-21  0.52D-22  6  5     7.19

 Norm of t1 vector:      0.15243560      S-energy:     0.00000000      T1 diagnostic:  0.01796471
                                                                       D1 diagnostic:  0.06494815

 Singles amplitudes (print threshold =  0.500E-01):

         I         SYM. A    A   T(IA)

         8         2         1      0.05942433
        17         4         1      0.06125026


 Total CPU time for triples:      3.66 sec


 RESULTS
 =======

  Reference energy                   -377.586165759997
  CCSD singlet pair energy             -0.670814487063
  CCSD triplet pair energy             -0.357750298057
  CCSD correlation energy              -1.028564785119

  Triples (T) contribution             -0.031894032939
  Total correlation energy             -1.060458818058

  CCSD total energy                  -378.614730545117
  CCSD[T] energy                     -378.649907332873
  CCSD-T energy                      -378.645545422870
 !CCSD(T) total energy               -378.646624578055

 Timing summary (sec):

 STEP                 CPU(USER)    SYS     CPU(TOT)    WALL
 Transformation          0.10      0.02      0.12      0.13
 CCSD iterations         7.09      0.38      7.47      7.50
 Triples                 3.66      0.11      3.77      3.78

 Program statistics:

 Available memory in ccsd:               999998604
 Min. memory needed in ccsd:                781956
 Max. memory used in ccsd:                 1028476
 Max. memory used in cckext:               1140120 (25 integral passes)



 **********************************************************************************************************************************
 DATASETS  * FILE   NREC   LENGTH (MB)   RECORD NAMES
              1      20       52.00       500      610      700      900      950      970     1000      129      960     1100   
                                          VAR    BASINP    GEOM    SYMINP    ZMAT    AOBASIS   BASIS     P2S    ABASIS      S 
                                         1400     1410     1200     1210     1080     1600     1650     1300     1700     1380   
                                           T        V       H0       H01     AOSYM     SMH    MOLCAS    ERIS     OPER     JKOP   

              2       3        0.49       700     1000     2100   
                                         GEOM     BASIS     RHF  

 PROGRAMS   *        TOTAL   CCSD(T)       RHF       INT
 CPU TIMES  *        12.08     10.86      0.26      0.92
 REAL TIME  *        12.99 SEC
 DISK USED  *       143.18 MB      
 GA USED    *         0.00 MB       (max)       0.00 MB       (current)
 **********************************************************************************************************************************

        CCSD(T)         RHF-SCF 
   -378.64662458   -377.58616576
 **********************************************************************************************************************************
 Variable memory released
