
    -----------------------------------------------------------------------
          Psi4: An Open-Source Ab Initio Electronic Structure Package
                               Psi4 1.4a2.dev629 

                         Git: Rev {master} 2938fc2 dirty


    D. G. A. Smith, L. A. Burns, A. C. Simmonett, R. M. Parrish,
    M. C. Schieber, R. Galvelis, P. Kraus, H. Kruse, R. Di Remigio,
    A. Alenaizan, A. M. James, S. Lehtola, J. P. Misiewicz, M. Scheurer,
    R. A. Shaw, J. B. Schriber, Y. Xie, Z. L. Glick, D. A. Sirianni,
    J. S. O'Brien, J. M. Waldrop, A. Kumar, E. G. Hohenstein,
    B. P. Pritchard, B. R. Brooks, H. F. Schaefer III, A. Yu. Sokolov,
    K. Patkowski, A. E. DePrince III, U. Bozkaya, R. A. King,
    F. A. Evangelista, J. M. Turney, T. D. Crawford, C. D. Sherrill,
    J. Chem. Phys. 152(18) 184108 (2020). https://doi.org/10.1063/5.0006002

                            Additional Code Authors
    E. T. Seidl, C. L. Janssen, E. F. Valeev, M. L. Leininger,
    J. F. Gonthier, R. M. Richard, H. R. McAlexander, M. Saitow, X. Wang,
    P. Verma, and M. H. Lechner

             Previous Authors, Complete List of Code Contributors,
                       and Citations for Specific Modules
    https://github.com/psi4/psi4/blob/master/codemeta.json
    https://github.com/psi4/psi4/graphs/contributors
    http://psicode.org/psi4manual/master/introduction.html#citing-psifour

    -----------------------------------------------------------------------


    Psi4 started on: Monday, 15 November 2021 04:19PM

    Process ID: 9041
    Host:       n046
    PSIDATADIR: /opt/psi/4/master/share/psi4
    Memory:     500.0 MiB
    Threads:    4
    
  ==> Input File <==

--------------------------------------------------------------------------
import os
memory 14 GB 
 
molecule {
 C   -0.0000000000   -0.0000000000   -3.0865922714
 C   -0.0000000000    0.0000000000   -0.5794158013
 C    1.4578963325   -0.0000000000    1.7847501801
 C   -1.4578963325    0.0000000000    1.7847501801
 H    1.7474683523   -0.0000000000   -4.1429699430
 H   -1.7474683523    0.0000000000   -4.1429699430
 H    2.4000390267    1.7268872778    2.3558429271
 H    2.4000390267   -1.7268872778    2.3558429271
 H   -2.4000390267   -1.7268872778    2.3558429271
 H   -2.4000390267    1.7268872778    2.3558429271
units bohr
}

basis {

assign 6-31g_2dfp_

[ 6-31g_2dfp_ ]

spherical

!----------------------------------------------------------------------
! Basis Set Exchange
! Version v0.8.13
! https://www.basissetexchange.org
!----------------------------------------------------------------------
!   Basis set: 6-31G(2df,p)
! Description: 6-31G(2df,p)
!        Role: orbital
!     Version: 0  (Data from the original Basis Set Exchange)
!----------------------------------------------------------------------


****
H     0
S    3   1.00
     18.7311370              0.03349460
      2.8253937              0.23472695
      0.6401217              0.81375733
S    1   1.00
      0.1612778              1.00000000
P    1   1.00
      1.5000000              1.0000000
P    1   1.00
      0.3750000              1.0000000
****
B     0
S    6   1.00
   2068.8823000              0.0018663
    310.6495700              0.0142515
     70.6830330              0.0695516
     19.8610800              0.2325729
      6.2993048              0.4670787
      2.1270270              0.3634314
SP   3   1.00
      4.7279710             -0.1303938              0.0745976
      1.1903377             -0.1307889              0.3078467
      0.3594117              1.1309444              0.7434568
SP   1   1.00
      0.1267512              1.0000000              1.0000000
D    1   1.00
      0.8020000              1.0000000
D    1   1.00
      0.2005000              1.0000000
F    1   1.00
      0.5000000              1.0000000
****
C     0
S    6   1.00
   3047.5249000              0.0018347
    457.3695100              0.0140373
    103.9486900              0.0688426
     29.2101550              0.2321844
      9.2866630              0.4679413
      3.1639270              0.3623120
SP   3   1.00
      7.8682724             -0.1193324              0.0689991
      1.8812885             -0.1608542              0.3164240
      0.5442493              1.1434564              0.7443083
SP   1   1.00
      0.1687144              1.0000000              1.0000000
D    1   1.00
      1.2520000              1.0000000
D    1   1.00
      0.3130000              1.0000000
F    1   1.00
      0.8000000              1.0000000
****
N     0
S    6   1.00
   4173.5110000              0.0018348
    627.4579000              0.0139950
    142.9021000              0.0685870
     40.2343300              0.2322410
     12.8202100              0.4690700
      4.3904370              0.3604550
SP   3   1.00
     11.6263580             -0.1149610              0.0675800
      2.7162800             -0.1691180              0.3239070
      0.7722180              1.1458520              0.7408950
SP   1   1.00
      0.2120313              1.0000000              1.0000000
D    1   1.00
      1.8260000              1.0000000
D    1   1.00
      0.4565000              1.0000000
F    1   1.00
      1.0000000              1.0000000
****
O     0
S    6   1.00
   5484.6717000              0.0018311
    825.2349500              0.0139501
    188.0469600              0.0684451
     52.9645000              0.2327143
     16.8975700              0.4701930
      5.7996353              0.3585209
SP   3   1.00
     15.5396160             -0.1107775              0.0708743
      3.5999336             -0.1480263              0.3397528
      1.0137618              1.1307670              0.7271586
SP   1   1.00
      0.2700058              1.0000000              1.0000000
D    1   1.00
      2.5840000              1.0000000
D    1   1.00
      0.6460000              1.0000000
F    1   1.00
      1.4000000              1.0000000
****
F     0
S    6   1.00
   7001.7130900              0.0018196169
   1051.3660900              0.0139160796
    239.2856900              0.0684053245
     67.3974453              0.233185760
     21.5199573              0.471267439
      7.40310130             0.356618546
SP   3   1.00
     20.8479528             -0.108506975            0.0716287243
      4.80830834            -0.146451658            0.3459121030
      1.34406986             1.128688580            0.7224699570
SP   1   1.00
      0.358151393            1.0000000              1.0000000
D    1   1.00
      3.5000000              1.0000000
D    1   1.00
      0.8750000              1.0000000
F    1   1.00
      1.8500000              1.0000000
****
Al     0
S    6   1.00
  13983.1000000              0.00194267
   2098.7500000              0.0148599
    477.7050000              0.0728494
    134.3600000              0.2468300
     42.8709000              0.4872580
     14.5189000              0.3234960
SP   6   1.00
    239.6680000             -0.00292619             0.00460285
     57.4419000             -0.0374080              0.0331990
     18.2859000             -0.1144870              0.1362820
      6.5991400              0.1156350              0.3304760
      2.4904900              0.6125950              0.4491460
      0.9445400              0.3937990              0.2657040
SP   3   1.00
      1.2779000             -0.2276060             -0.0175130
      0.3975900              0.00144583             0.2445330
      0.1600950              1.0927900              0.8049340
SP   1   1.00
      0.0556577              1.0000000              1.0000000
D    1   1.00
      0.6500000              1.0000000
D    1   1.00
      0.1625000              1.0000000
F    1   1.00
      0.2500000              1.0000000
****
Si     0
S    6   1.00
  16115.9000000              0.00195948
   2425.5800000              0.01492880
    553.8670000              0.07284780
    156.3400000              0.24613000
     50.0683000              0.48591400
     17.0178000              0.32500200
SP   6   1.00
    292.7180000             -0.00278094             0.00443826
     69.8731000             -0.03571460             0.03266790
     22.3363000             -0.11498500             0.13472100
      8.1503900              0.09356340             0.32867800
      3.1345800              0.60301700             0.44964000
      1.2254300              0.41895900             0.26137200
SP   3   1.00
      1.7273800             -0.24463000            -0.01779510
      0.5729220              0.00431572             0.25353900
      0.2221920              1.09818000             0.80066900
SP   1   1.00
      0.0778369              1.00000000             1.00000000
D    1   1.00
      0.9000000              1.0000000
D    1   1.00
      0.2250000              1.0000000
F    1   1.00
      0.3200000              1.0000000
****
P     0
S    6   1.00
  19413.3000000              0.0018516
   2909.4200000              0.0142062
    661.3640000              0.0699995
    185.7590000              0.2400790
     59.1943000              0.4847620
     20.0310000              0.3352000
SP   6   1.00
    339.4780000             -0.00278217             0.00456462
     81.0101000             -0.0360499              0.03369360
     25.8780000             -0.1166310              0.13975500
      9.4522100              0.0968328              0.33936200
      3.6656600              0.6144180              0.45092100
      1.4674600              0.4037980              0.23858600
SP   3   1.00
      2.1562300             -0.2529230             -0.01776530
      0.7489970              0.0328517              0.27405800
      0.2831450              1.0812500              0.78542100
SP   1   1.00
      0.0998317              1.0000000              1.00000000
D    1   1.00
      1.1000000              1.0000000
D    1   1.00
      0.2750000              1.0000000
F    1   1.00
      0.4500000              1.0000000
****
S     0
S    6   1.00
  21917.1000000              0.0018690
   3301.4900000              0.0142300
    754.1460000              0.0696960
    212.7110000              0.2384870
     67.9896000              0.4833070
     23.0515000              0.3380740
SP   6   1.00
    423.7350000             -0.0023767              0.0040610
    100.7100000             -0.0316930              0.0306810
     32.1599000             -0.1133170              0.1304520
     11.8079000              0.0560900              0.3272050
      4.6311000              0.5922550              0.4528510
      1.8702500              0.4550060              0.2560420
SP   3   1.00
      2.6158400             -0.2503740             -0.0145110
      0.9221670              0.0669570              0.3102630
      0.3412870              1.0545100              0.7544830
SP   1   1.00
      0.1171670              1.0000000              1.0000000
D    1   1.00
      1.3000000              1.0000000
D    1   1.00
      0.3250000              1.0000000
F    1   1.00
      0.5500000              1.0000000
****
Cl     0
S    6   1.00
  25180.1000000              0.0018330
   3780.3500000              0.0140340
    860.4740000              0.0690970
    242.1450000              0.2374520
     77.3349000              0.4830340
     26.2470000              0.3398560
SP   6   1.00
    491.7650000             -0.0022974              0.0039894
    116.9840000             -0.0307140              0.0303180
     37.4153000             -0.1125280              0.1298800
     13.7834000              0.0450160              0.3279510
      5.4521500              0.5893530              0.4535270
      2.2258800              0.4652060              0.2521540
SP   3   1.00
      3.1864900             -0.2518300             -0.0142990
      1.1442700              0.0615890              0.3235720
      0.4203770              1.0601800              0.7435070
SP   1   1.00
      0.1426570              1.0000000              1.0000000
D    1   1.00
      1.5000000              1.0000000
D    1   1.00
      0.3750000              1.0000000
F    1   1.00
      0.7000000              1.0000000
****
}


set {
reference rhf                          
freeze_core true
e_convergence 10                       
d_convergence 10                      
dft_spherical_points 1202
dft_radial_points 99
}

e = energy('b3lyp')

print_out('Grab this energy {0}'.format(e))
--------------------------------------------------------------------------

  Memory set to  13.039 GiB by Python driver.

Scratch directory: /tmp/

*** tstart() called on n046
*** at Mon Nov 15 16:19:48 2021

   => Loading Basis Set <=

    Name: ANONYMOUS8036C809
    Role: ORBITAL
    Keyword: BASIS
    atoms 1-4  entry C          line    48 inputblock 6-31g_2dfp_ 
    atoms 5-10 entry H          line    15 inputblock 6-31g_2dfp_ 


         ---------------------------------------------------------
                                   SCF
               by Justin Turney, Rob Parrish, Andy Simmonett
                          and Daniel G. A. Smith
                              RKS Reference
                        4 Threads,  13351 MiB Core
         ---------------------------------------------------------

  ==> Geometry <==

    Molecular point group: c2v
    Full point group: C2v

    Geometry (in Bohr), charge = 0, multiplicity = 1:

       Center              X                  Y                   Z               Mass       
    ------------   -----------------  -----------------  -----------------  -----------------
         C            0.000000000000     0.000000000000    -3.086374677495    12.000000000000
         C            0.000000000000     0.000000000000    -0.579198207395    12.000000000000
         C            1.457896332500     0.000000000000     1.784967774005    12.000000000000
         C           -1.457896332500    -0.000000000000     1.784967774005    12.000000000000
         H            1.747468352300     0.000000000000    -4.142752349095     1.007825032230
         H           -1.747468352300    -0.000000000000    -4.142752349095     1.007825032230
         H            2.400039026700     1.726887277800     2.356060521005     1.007825032230
         H            2.400039026700    -1.726887277800     2.356060521005     1.007825032230
         H           -2.400039026700    -1.726887277800     2.356060521005     1.007825032230
         H           -2.400039026700     1.726887277800     2.356060521005     1.007825032230

  Running in c2v symmetry.

  Rotational constants: A =      0.65145  B =      0.22821  C =      0.18124 [cm^-1]
  Rotational constants: A =  19529.90650  B =   6841.48172  C =   5433.36185 [MHz]
  Nuclear repulsion =  109.187449890023856

  Charge       = 0
  Multiplicity = 1
  Electrons    = 30
  Nalpha       = 15
  Nbeta        = 15

  ==> Algorithm <==

  SCF Algorithm Type is DF.
  DIIS enabled.
  MOM disabled.
  Fractional occupation disabled.
  Guess Type is SAD.
  Energy threshold   = 1.00e-10
  Density threshold  = 1.00e-10
  Integral threshold = 0.00e+00

  ==> Primary Basis <==

  Basis Set: ANONYMOUS8036C809
    Blend: 6-31G_2DFP_
    Number of shells: 56
    Number of basis function: 152
    Number of Cartesian functions: 172
    Spherical Harmonics?: true
    Max angular momentum: 3

  ==> DFT Potential <==

   => Composite Functional: B3LYP <= 

    B3LYP Hyb-GGA Exchange-Correlation Functional

    P. J. Stephens, F. J. Devlin, C. F. Chabalowski, and M. J. Frisch, J. Phys. Chem. 98, 11623 (1994)

    Deriv               =              1
    GGA                 =           TRUE
    Meta                =          FALSE

    Exchange Hybrid     =           TRUE
    MP2 Hybrid          =          FALSE

   => Exchange Functionals <=

    0.0800   Slater exchange
    0.7200         Becke 88

   => Exact (HF) Exchange <=

    0.2000               HF 

   => Correlation Functionals <=

    0.1900   Vosko, Wilk & Nusair (VWN5_RPA)
    0.8100   Lee, Yang & Parr

   => Molecular Quadrature <=

    Radial Scheme          =       TREUTLER
    Pruning Scheme         =           NONE
    Nuclear Scheme         =       TREUTLER

    BS radius alpha        =              1
    Pruning alpha          =              1
    Radial Points          =             99
    Spherical Points       =           1202
    Total Points           =        1113853
    Total Blocks           =           7433
    Max Points             =            256
    Max Functions          =            152
    Weights Tolerance      =       1.00E-15

   => Loading Basis Set <=

    Name: (ANONYMOUS8036C809 AUX)
    Role: JKFIT
    Keyword: DF_BASIS_SCF
    atoms 1-4  entry C          line   198 file /opt/psi/4/master/share/psi4/basis/def2-universal-jkfit.gbs 
    atoms 5-10 entry H          line    18 file /opt/psi/4/master/share/psi4/basis/def2-universal-jkfit.gbs 

  ==> Integral Setup <==

  DFHelper Memory: AOs need 0.076 GiB; user supplied 5.716 GiB. Using in-core AOs.

  ==> MemDFJK: Density-Fitted J/K Matrices <==

    J tasked:                   Yes
    K tasked:                   Yes
    wK tasked:                   No
    OpenMP threads:               4
    Memory [MiB]:              5852
    Algorithm:                 Core
    Schwarz Cutoff:           1E-12
    Mask sparsity (%):       0.9868
    Fitting Condition:        1E-10

   => Auxiliary Basis Set <=

  Basis Set: (ANONYMOUS8036C809 AUX)
    Blend: DEF2-UNIVERSAL-JKFIT
    Number of shells: 136
    Number of basis function: 408
    Number of Cartesian functions: 476
    Spherical Harmonics?: true
    Max angular momentum: 4

  Cached 100.0% of DFT collocation blocks in 4.063 [GiB].

  Minimum eigenvalue in the overlap matrix is 7.0061216532E-04.
  Reciprocal condition number of the overlap matrix is 1.4167052172E-04.
    Using symmetric orthogonalization.

  ==> Pre-Iterations <==

  SCF Guess: Superposition of Atomic Densities via on-the-fly atomic UHF (no occupation information).

   -------------------------
    Irrep   Nso     Nmo    
   -------------------------
     A1        53      53 
     A2        25      25 
     B1        43      43 
     B2        31      31 
   -------------------------
    Total     152     152
   -------------------------

  ==> Iterations <==

                           Total Energy        Delta E     RMS |[F,P]|

   @DF-RKS iter SAD:  -155.51017326732133   -1.55510e+02   0.00000e+00 
   @DF-RKS iter   1:  -155.68834991879794   -1.78177e-01   9.03139e-03 DIIS
   @DF-RKS iter   2:  -155.62387449161588    6.44754e-02   1.00172e-02 DIIS
   @DF-RKS iter   3:  -155.96977606379167   -3.45902e-01   1.44181e-03 DIIS
   @DF-RKS iter   4:  -155.97489596408920   -5.11990e-03   6.66654e-04 DIIS
   @DF-RKS iter   5:  -155.97633417645025   -1.43821e-03   7.96623e-05 DIIS
   @DF-RKS iter   6:  -155.97635289889510   -1.87224e-05   3.53261e-05 DIIS
   @DF-RKS iter   7:  -155.97635676705596   -3.86816e-06   3.60715e-06 DIIS
   @DF-RKS iter   8:  -155.97635680841870   -4.13627e-08   5.28090e-07 DIIS
   @DF-RKS iter   9:  -155.97635680946280   -1.04410e-09   4.56325e-08 DIIS
   @DF-RKS iter  10:  -155.97635680946902   -6.22435e-12   4.56353e-09 DIIS
   @DF-RKS iter  11:  -155.97635680946911   -8.52651e-14   1.58683e-09 DIIS
   @DF-RKS iter  12:  -155.97635680946922   -1.13687e-13   2.00421e-10 DIIS
   @DF-RKS iter  13:  -155.97635680946919    2.84217e-14   2.29303e-11 DIIS
  Energy and wave function converged.


  ==> Post-Iterations <==

    Orbital Energies [Eh]
    ---------------------

    Doubly Occupied:                                                      

       1A1   -10.191900     2A1   -10.186390     1B1   -10.186301  
       3A1   -10.171670     4A1    -0.857324     5A1    -0.711713  
       2B1    -0.606302     6A1    -0.530551     1B2    -0.475077  
       7A1    -0.461029     3B1    -0.428902     1A2    -0.370840  
       8A1    -0.303764     4B1    -0.288596     2B2    -0.253383  

    Virtual:                                                              

       3B2     0.012101     9A1     0.099405     5B1     0.122281  
      10A1     0.130339     6B1     0.139010     4B2     0.158793  
       7B1     0.205144     2A2     0.206153    11A1     0.221091  
       8B1     0.266377    12A1     0.312402    13A1     0.373342  
       5B2     0.436768    14A1     0.439157     9B1     0.458968  
       6B2     0.477376    15A1     0.486861     3A2     0.493481  
      16A1     0.503066    10B1     0.519317     7B2     0.578170  
       4A2     0.589379    11B1     0.595814     8B2     0.602910  
      17A1     0.619065    12B1     0.633751     5A2     0.641370  
      13B1     0.657537    18A1     0.673352    19A1     0.685485  
       9B2     0.716763     6A2     0.800212    14B1     0.833146  
      20A1     0.864420     7A2     0.887108    21A1     0.903471  
      10B2     0.973406    15B1     0.996046    11B2     1.030393  
      22A1     1.047159    16B1     1.049206    23A1     1.097106  
      12B2     1.126914    17B1     1.148208     8A2     1.186645  
      24A1     1.202466    13B2     1.207722    18B1     1.212920  
      14B2     1.242373    25A1     1.273565    26A1     1.309864  
      19B1     1.366367    20B1     1.394974    27A1     1.396974  
      21B1     1.421406     9A2     1.429070    10A2     1.498819  
      15B2     1.533041    28A1     1.581644    11A2     1.587482  
      29A1     1.636865    30A1     1.671221    22B1     1.725639  
      23B1     1.827092    16B2     1.943062    31A1     1.950354  
      24B1     2.009929    32A1     2.074662    12A2     2.187601  
      33A1     2.325524    25B1     2.424489    17B2     2.680110  
      18B2     2.689073    13A2     2.796849    34A1     2.828701  
      35A1     2.862232    26B1     2.863129    19B2     2.881981  
      36A1     2.917259    27B1     2.924239    20B2     2.947286  
      28B1     3.009399    21B2     3.012596    14A2     3.034883  
      37A1     3.126593    15A2     3.132250    22B2     3.173389  
      29B1     3.182608    38A1     3.188128    16A2     3.197892  
      30B1     3.223660    23B2     3.303881    39A1     3.308796  
      31B1     3.311414    40A1     3.350872    24B2     3.390560  
      17A2     3.396385    32B1     3.419377    41A1     3.433227  
      25B2     3.554336    18A2     3.577962    33B1     3.578347  
      19A2     3.713601    34B1     3.756892    42A1     3.770521  
      43A1     3.862867    26B2     3.888122    20A2     3.910826  
      44A1     3.966678    35B1     3.976730    45A1     4.088561  
      27B2     4.127766    46A1     4.154384    21A2     4.159287  
      36B1     4.178874    47A1     4.233575    28B2     4.234874  
      37B1     4.246457    22A2     4.330744    48A1     4.336337  
      38B1     4.391788    49A1     4.478018    29B2     4.492447  
      39B1     4.549505    40B1     4.593970    23A2     4.628407  
      50A1     4.672301    30B2     4.720339    24A2     5.035618  
      51A1     5.043055    41B1     5.066502    31B2     5.135739  
      42B1     5.274155    52A1     5.300498    25A2     5.358548  
      43B1     5.439190    53A1     5.510637  

    Final Occupation by Irrep:
             A1    A2    B1    B2 
    DOCC [     8,    1,    4,    2 ]

  @DF-RKS Final Energy:  -155.97635680946919

   => Energetics <=

    Nuclear Repulsion Energy =            109.1874498900238564
    One-Electron Energy =                -424.3445924743193700
    Two-Electron Energy =                 178.5579407740596878
    DFT Exchange-Correlation Energy =     -19.3771549992333583
    Empirical Dispersion Energy =           0.0000000000000000
    VV10 Nonlocal Energy =                  0.0000000000000000
    Total Energy =                       -155.9763568094691948

Computation Completed


Properties will be evaluated at   0.000000,   0.000000,   0.000000 [a0]

Properties computed using the SCF density matrix

  Nuclear Dipole Moment: [e a0]
     X:     0.0000      Y:     0.0000      Z:     0.5649

  Electronic Dipole Moment: [e a0]
     X:     0.0000      Y:     0.0000      Z:    -0.4056

  Dipole Moment: [e a0]
     X:     0.0000      Y:     0.0000      Z:     0.1593     Total:     0.1593

  Dipole Moment: [D]
     X:     0.0000      Y:     0.0000      Z:     0.4049     Total:     0.4049


*** tstop() called on n046 at Mon Nov 15 16:20:08 2021
Module time:
	user time   =      78.37 seconds =       1.31 minutes
	system time =       1.18 seconds =       0.02 minutes
	total time  =         20 seconds =       0.33 minutes
Total time:
	user time   =      78.37 seconds =       1.31 minutes
	system time =       1.18 seconds =       0.02 minutes
	total time  =         20 seconds =       0.33 minutes
Grab this energy -155.9763568094692
    Psi4 stopped on: Monday, 15 November 2021 04:20PM
    Psi4 wall time for execution: 0:00:20.50

*** Psi4 exiting successfully. Buy a developer a beer!
