
    -----------------------------------------------------------------------
          Psi4: An Open-Source Ab Initio Electronic Structure Package
                               Psi4 1.4a2.dev629 

                         Git: Rev {master} 2938fc2 dirty


    D. G. A. Smith, L. A. Burns, A. C. Simmonett, R. M. Parrish,
    M. C. Schieber, R. Galvelis, P. Kraus, H. Kruse, R. Di Remigio,
    A. Alenaizan, A. M. James, S. Lehtola, J. P. Misiewicz, M. Scheurer,
    R. A. Shaw, J. B. Schriber, Y. Xie, Z. L. Glick, D. A. Sirianni,
    J. S. O'Brien, J. M. Waldrop, A. Kumar, E. G. Hohenstein,
    B. P. Pritchard, B. R. Brooks, H. F. Schaefer III, A. Yu. Sokolov,
    K. Patkowski, A. E. DePrince III, U. Bozkaya, R. A. King,
    F. A. Evangelista, J. M. Turney, T. D. Crawford, C. D. Sherrill,
    J. Chem. Phys. 152(18) 184108 (2020). https://doi.org/10.1063/5.0006002

                            Additional Code Authors
    E. T. Seidl, C. L. Janssen, E. F. Valeev, M. L. Leininger,
    J. F. Gonthier, R. M. Richard, H. R. McAlexander, M. Saitow, X. Wang,
    P. Verma, and M. H. Lechner

             Previous Authors, Complete List of Code Contributors,
                       and Citations for Specific Modules
    https://github.com/psi4/psi4/blob/master/codemeta.json
    https://github.com/psi4/psi4/graphs/contributors
    http://psicode.org/psi4manual/master/introduction.html#citing-psifour

    -----------------------------------------------------------------------


    Psi4 started on: Monday, 15 November 2021 04:10PM

    Process ID: 24666
    Host:       n085
    PSIDATADIR: /opt/psi/4/master/share/psi4
    Memory:     500.0 MiB
    Threads:    4
    
  ==> Input File <==

--------------------------------------------------------------------------
import os
memory 14 GB 
 
molecule {
 C    0.0000000000   -0.0000000000   -3.0877751996
 C   -0.0000000000    0.0000000000   -0.5797145920
 C    1.4605799199    0.0000000000    1.7852116555
 C   -1.4605799199    0.0000000000    1.7852116555
 H    1.7548330720    0.0000000000   -4.1427712196
 H   -1.7548330720   -0.0000000000   -4.1427712196
 H    2.3993407804    1.7275005473    2.3558832575
 H    2.3993407804   -1.7275005473    2.3558832575
 H   -2.3993407804   -1.7275005473    2.3558832575
 H   -2.3993407804    1.7275005473    2.3558832575
units bohr
}

basis {

assign 6-31g_2dfp_

[ 6-31g_2dfp_ ]

spherical

!----------------------------------------------------------------------
! Basis Set Exchange
! Version v0.8.13
! https://www.basissetexchange.org
!----------------------------------------------------------------------
!   Basis set: 6-31G(2df,p)
! Description: 6-31G(2df,p)
!        Role: orbital
!     Version: 0  (Data from the original Basis Set Exchange)
!----------------------------------------------------------------------


****
H     0
S    3   1.00
     18.7311370              0.03349460
      2.8253937              0.23472695
      0.6401217              0.81375733
S    1   1.00
      0.1612778              1.00000000
P    1   1.00
      1.5000000              1.0000000
P    1   1.00
      0.3750000              1.0000000
****
B     0
S    6   1.00
   2068.8823000              0.0018663
    310.6495700              0.0142515
     70.6830330              0.0695516
     19.8610800              0.2325729
      6.2993048              0.4670787
      2.1270270              0.3634314
SP   3   1.00
      4.7279710             -0.1303938              0.0745976
      1.1903377             -0.1307889              0.3078467
      0.3594117              1.1309444              0.7434568
SP   1   1.00
      0.1267512              1.0000000              1.0000000
D    1   1.00
      0.8020000              1.0000000
D    1   1.00
      0.2005000              1.0000000
F    1   1.00
      0.5000000              1.0000000
****
C     0
S    6   1.00
   3047.5249000              0.0018347
    457.3695100              0.0140373
    103.9486900              0.0688426
     29.2101550              0.2321844
      9.2866630              0.4679413
      3.1639270              0.3623120
SP   3   1.00
      7.8682724             -0.1193324              0.0689991
      1.8812885             -0.1608542              0.3164240
      0.5442493              1.1434564              0.7443083
SP   1   1.00
      0.1687144              1.0000000              1.0000000
D    1   1.00
      1.2520000              1.0000000
D    1   1.00
      0.3130000              1.0000000
F    1   1.00
      0.8000000              1.0000000
****
N     0
S    6   1.00
   4173.5110000              0.0018348
    627.4579000              0.0139950
    142.9021000              0.0685870
     40.2343300              0.2322410
     12.8202100              0.4690700
      4.3904370              0.3604550
SP   3   1.00
     11.6263580             -0.1149610              0.0675800
      2.7162800             -0.1691180              0.3239070
      0.7722180              1.1458520              0.7408950
SP   1   1.00
      0.2120313              1.0000000              1.0000000
D    1   1.00
      1.8260000              1.0000000
D    1   1.00
      0.4565000              1.0000000
F    1   1.00
      1.0000000              1.0000000
****
O     0
S    6   1.00
   5484.6717000              0.0018311
    825.2349500              0.0139501
    188.0469600              0.0684451
     52.9645000              0.2327143
     16.8975700              0.4701930
      5.7996353              0.3585209
SP   3   1.00
     15.5396160             -0.1107775              0.0708743
      3.5999336             -0.1480263              0.3397528
      1.0137618              1.1307670              0.7271586
SP   1   1.00
      0.2700058              1.0000000              1.0000000
D    1   1.00
      2.5840000              1.0000000
D    1   1.00
      0.6460000              1.0000000
F    1   1.00
      1.4000000              1.0000000
****
F     0
S    6   1.00
   7001.7130900              0.0018196169
   1051.3660900              0.0139160796
    239.2856900              0.0684053245
     67.3974453              0.233185760
     21.5199573              0.471267439
      7.40310130             0.356618546
SP   3   1.00
     20.8479528             -0.108506975            0.0716287243
      4.80830834            -0.146451658            0.3459121030
      1.34406986             1.128688580            0.7224699570
SP   1   1.00
      0.358151393            1.0000000              1.0000000
D    1   1.00
      3.5000000              1.0000000
D    1   1.00
      0.8750000              1.0000000
F    1   1.00
      1.8500000              1.0000000
****
Al     0
S    6   1.00
  13983.1000000              0.00194267
   2098.7500000              0.0148599
    477.7050000              0.0728494
    134.3600000              0.2468300
     42.8709000              0.4872580
     14.5189000              0.3234960
SP   6   1.00
    239.6680000             -0.00292619             0.00460285
     57.4419000             -0.0374080              0.0331990
     18.2859000             -0.1144870              0.1362820
      6.5991400              0.1156350              0.3304760
      2.4904900              0.6125950              0.4491460
      0.9445400              0.3937990              0.2657040
SP   3   1.00
      1.2779000             -0.2276060             -0.0175130
      0.3975900              0.00144583             0.2445330
      0.1600950              1.0927900              0.8049340
SP   1   1.00
      0.0556577              1.0000000              1.0000000
D    1   1.00
      0.6500000              1.0000000
D    1   1.00
      0.1625000              1.0000000
F    1   1.00
      0.2500000              1.0000000
****
Si     0
S    6   1.00
  16115.9000000              0.00195948
   2425.5800000              0.01492880
    553.8670000              0.07284780
    156.3400000              0.24613000
     50.0683000              0.48591400
     17.0178000              0.32500200
SP   6   1.00
    292.7180000             -0.00278094             0.00443826
     69.8731000             -0.03571460             0.03266790
     22.3363000             -0.11498500             0.13472100
      8.1503900              0.09356340             0.32867800
      3.1345800              0.60301700             0.44964000
      1.2254300              0.41895900             0.26137200
SP   3   1.00
      1.7273800             -0.24463000            -0.01779510
      0.5729220              0.00431572             0.25353900
      0.2221920              1.09818000             0.80066900
SP   1   1.00
      0.0778369              1.00000000             1.00000000
D    1   1.00
      0.9000000              1.0000000
D    1   1.00
      0.2250000              1.0000000
F    1   1.00
      0.3200000              1.0000000
****
P     0
S    6   1.00
  19413.3000000              0.0018516
   2909.4200000              0.0142062
    661.3640000              0.0699995
    185.7590000              0.2400790
     59.1943000              0.4847620
     20.0310000              0.3352000
SP   6   1.00
    339.4780000             -0.00278217             0.00456462
     81.0101000             -0.0360499              0.03369360
     25.8780000             -0.1166310              0.13975500
      9.4522100              0.0968328              0.33936200
      3.6656600              0.6144180              0.45092100
      1.4674600              0.4037980              0.23858600
SP   3   1.00
      2.1562300             -0.2529230             -0.01776530
      0.7489970              0.0328517              0.27405800
      0.2831450              1.0812500              0.78542100
SP   1   1.00
      0.0998317              1.0000000              1.00000000
D    1   1.00
      1.1000000              1.0000000
D    1   1.00
      0.2750000              1.0000000
F    1   1.00
      0.4500000              1.0000000
****
S     0
S    6   1.00
  21917.1000000              0.0018690
   3301.4900000              0.0142300
    754.1460000              0.0696960
    212.7110000              0.2384870
     67.9896000              0.4833070
     23.0515000              0.3380740
SP   6   1.00
    423.7350000             -0.0023767              0.0040610
    100.7100000             -0.0316930              0.0306810
     32.1599000             -0.1133170              0.1304520
     11.8079000              0.0560900              0.3272050
      4.6311000              0.5922550              0.4528510
      1.8702500              0.4550060              0.2560420
SP   3   1.00
      2.6158400             -0.2503740             -0.0145110
      0.9221670              0.0669570              0.3102630
      0.3412870              1.0545100              0.7544830
SP   1   1.00
      0.1171670              1.0000000              1.0000000
D    1   1.00
      1.3000000              1.0000000
D    1   1.00
      0.3250000              1.0000000
F    1   1.00
      0.5500000              1.0000000
****
Cl     0
S    6   1.00
  25180.1000000              0.0018330
   3780.3500000              0.0140340
    860.4740000              0.0690970
    242.1450000              0.2374520
     77.3349000              0.4830340
     26.2470000              0.3398560
SP   6   1.00
    491.7650000             -0.0022974              0.0039894
    116.9840000             -0.0307140              0.0303180
     37.4153000             -0.1125280              0.1298800
     13.7834000              0.0450160              0.3279510
      5.4521500              0.5893530              0.4535270
      2.2258800              0.4652060              0.2521540
SP   3   1.00
      3.1864900             -0.2518300             -0.0142990
      1.1442700              0.0615890              0.3235720
      0.4203770              1.0601800              0.7435070
SP   1   1.00
      0.1426570              1.0000000              1.0000000
D    1   1.00
      1.5000000              1.0000000
D    1   1.00
      0.3750000              1.0000000
F    1   1.00
      0.7000000              1.0000000
****
}


set {
reference rhf                          
freeze_core true
e_convergence 10                       
d_convergence 10                      
dft_spherical_points 1202
dft_radial_points 99
}

e = energy('b3lyp')

print_out('Grab this energy {0}'.format(e))
--------------------------------------------------------------------------

  Memory set to  13.039 GiB by Python driver.

Scratch directory: /tmp/

*** tstart() called on n085
*** at Mon Nov 15 16:10:17 2021

   => Loading Basis Set <=

    Name: ANONYMOUS98653F28
    Role: ORBITAL
    Keyword: BASIS
    atoms 1-4  entry C          line    48 inputblock 6-31g_2dfp_ 
    atoms 5-10 entry H          line    15 inputblock 6-31g_2dfp_ 


         ---------------------------------------------------------
                                   SCF
               by Justin Turney, Rob Parrish, Andy Simmonett
                          and Daniel G. A. Smith
                              RKS Reference
                        4 Threads,  13351 MiB Core
         ---------------------------------------------------------

  ==> Geometry <==

    Molecular point group: c2v
    Full point group: C2v

    Geometry (in Bohr), charge = 0, multiplicity = 1:

       Center              X                  Y                   Z               Mass       
    ------------   -----------------  -----------------  -----------------  -----------------
         C            0.000000000000     0.000000000000    -3.087443962346    12.000000000000
         C            0.000000000000     0.000000000000    -0.579383354746    12.000000000000
         C            1.460579919900     0.000000000000     1.785542892754    12.000000000000
         C           -1.460579919900    -0.000000000000     1.785542892754    12.000000000000
         H            1.754833072000     0.000000000000    -4.142439982346     1.007825032230
         H           -1.754833072000    -0.000000000000    -4.142439982346     1.007825032230
         H            2.399340780400     1.727500547300     2.356214494754     1.007825032230
         H            2.399340780400    -1.727500547300     2.356214494754     1.007825032230
         H           -2.399340780400    -1.727500547300     2.356214494754     1.007825032230
         H           -2.399340780400     1.727500547300     2.356214494754     1.007825032230

  Running in c2v symmetry.

  Rotational constants: A =      0.64980  B =      0.22809  C =      0.18104 [cm^-1]
  Rotational constants: A =  19480.36948  B =   6837.92206  C =   5427.55725 [MHz]
  Nuclear repulsion =  109.116142612569291

  Charge       = 0
  Multiplicity = 1
  Electrons    = 30
  Nalpha       = 15
  Nbeta        = 15

  ==> Algorithm <==

  SCF Algorithm Type is DF.
  DIIS enabled.
  MOM disabled.
  Fractional occupation disabled.
  Guess Type is SAD.
  Energy threshold   = 1.00e-10
  Density threshold  = 1.00e-10
  Integral threshold = 0.00e+00

  ==> Primary Basis <==

  Basis Set: ANONYMOUS98653F28
    Blend: 6-31G_2DFP_
    Number of shells: 56
    Number of basis function: 152
    Number of Cartesian functions: 172
    Spherical Harmonics?: true
    Max angular momentum: 3

  ==> DFT Potential <==

   => Composite Functional: B3LYP <= 

    B3LYP Hyb-GGA Exchange-Correlation Functional

    P. J. Stephens, F. J. Devlin, C. F. Chabalowski, and M. J. Frisch, J. Phys. Chem. 98, 11623 (1994)

    Deriv               =              1
    GGA                 =           TRUE
    Meta                =          FALSE

    Exchange Hybrid     =           TRUE
    MP2 Hybrid          =          FALSE

   => Exchange Functionals <=

    0.0800   Slater exchange
    0.7200         Becke 88

   => Exact (HF) Exchange <=

    0.2000               HF 

   => Correlation Functionals <=

    0.1900   Vosko, Wilk & Nusair (VWN5_RPA)
    0.8100   Lee, Yang & Parr

   => Molecular Quadrature <=

    Radial Scheme          =       TREUTLER
    Pruning Scheme         =           NONE
    Nuclear Scheme         =       TREUTLER

    BS radius alpha        =              1
    Pruning alpha          =              1
    Radial Points          =             99
    Spherical Points       =           1202
    Total Points           =        1113869
    Total Blocks           =           7431
    Max Points             =            256
    Max Functions          =            152
    Weights Tolerance      =       1.00E-15

   => Loading Basis Set <=

    Name: (ANONYMOUS98653F28 AUX)
    Role: JKFIT
    Keyword: DF_BASIS_SCF
    atoms 1-4  entry C          line   198 file /opt/psi/4/master/share/psi4/basis/def2-universal-jkfit.gbs 
    atoms 5-10 entry H          line    18 file /opt/psi/4/master/share/psi4/basis/def2-universal-jkfit.gbs 

  ==> Integral Setup <==

  DFHelper Memory: AOs need 0.076 GiB; user supplied 5.716 GiB. Using in-core AOs.

  ==> MemDFJK: Density-Fitted J/K Matrices <==

    J tasked:                   Yes
    K tasked:                   Yes
    wK tasked:                   No
    OpenMP threads:               4
    Memory [MiB]:              5853
    Algorithm:                 Core
    Schwarz Cutoff:           1E-12
    Mask sparsity (%):       0.9868
    Fitting Condition:        1E-10

   => Auxiliary Basis Set <=

  Basis Set: (ANONYMOUS98653F28 AUX)
    Blend: DEF2-UNIVERSAL-JKFIT
    Number of shells: 136
    Number of basis function: 408
    Number of Cartesian functions: 476
    Spherical Harmonics?: true
    Max angular momentum: 4

  Cached 100.0% of DFT collocation blocks in 4.063 [GiB].

  Minimum eigenvalue in the overlap matrix is 7.0446890801E-04.
  Reciprocal condition number of the overlap matrix is 1.4249268082E-04.
    Using symmetric orthogonalization.

  ==> Pre-Iterations <==

  SCF Guess: Superposition of Atomic Densities via on-the-fly atomic UHF (no occupation information).

   -------------------------
    Irrep   Nso     Nmo    
   -------------------------
     A1        53      53 
     A2        25      25 
     B1        43      43 
     B2        31      31 
   -------------------------
    Total     152     152
   -------------------------

  ==> Iterations <==

                           Total Energy        Delta E     RMS |[F,P]|

   @DF-RKS iter SAD:  -155.50434337509890   -1.55504e+02   0.00000e+00 
   @DF-RKS iter   1:  -155.68923521751466   -1.84892e-01   9.01408e-03 DIIS
   @DF-RKS iter   2:  -155.62487550369968    6.43597e-02   9.99981e-03 DIIS
   @DF-RKS iter   3:  -155.96972030310903   -3.44845e-01   1.44369e-03 DIIS
   @DF-RKS iter   4:  -155.97486494935160   -5.14465e-03   6.64965e-04 DIIS
   @DF-RKS iter   5:  -155.97629547257009   -1.43052e-03   8.02370e-05 DIIS
   @DF-RKS iter   6:  -155.97631446580837   -1.89932e-05   3.55209e-05 DIIS
   @DF-RKS iter   7:  -155.97631837938653   -3.91358e-06   3.59873e-06 DIIS
   @DF-RKS iter   8:  -155.97631842065169   -4.12652e-08   5.26031e-07 DIIS
   @DF-RKS iter   9:  -155.97631842168977   -1.03807e-09   4.56039e-08 DIIS
   @DF-RKS iter  10:  -155.97631842169594   -6.16751e-12   4.65415e-09 DIIS
   @DF-RKS iter  11:  -155.97631842169579    1.42109e-13   1.64827e-09 DIIS
   @DF-RKS iter  12:  -155.97631842169582   -2.84217e-14   1.96803e-10 DIIS
   @DF-RKS iter  13:  -155.97631842169605   -2.27374e-13   2.22469e-11 DIIS
  Energy and wave function converged.


  ==> Post-Iterations <==

    Orbital Energies [Eh]
    ---------------------

    Doubly Occupied:                                                      

       1A1   -10.192081     2A1   -10.186466     1B1   -10.186379  
       3A1   -10.172322     4A1    -0.856611     5A1    -0.711324  
       2B1    -0.606470     6A1    -0.530139     1B2    -0.475120  
       7A1    -0.460226     3B1    -0.428696     1A2    -0.371385  
       8A1    -0.303156     4B1    -0.288599     2B2    -0.253376  

    Virtual:                                                              

       3B2     0.012183     9A1     0.099349     5B1     0.121622  
      10A1     0.129571     6B1     0.138913     4B2     0.158900  
       7B1     0.204430     2A2     0.206142    11A1     0.220903  
       8B1     0.265906    12A1     0.312133    13A1     0.373486  
       5B2     0.436625    14A1     0.438681     9B1     0.458622  
       6B2     0.477433    15A1     0.486603     3A2     0.493261  
      16A1     0.503325    10B1     0.518748     7B2     0.578245  
       4A2     0.589012    11B1     0.595764     8B2     0.603113  
      17A1     0.618608    12B1     0.633196     5A2     0.641483  
      13B1     0.656689    18A1     0.673107    19A1     0.684565  
       9B2     0.716891     6A2     0.799908    14B1     0.832893  
      20A1     0.864431     7A2     0.886884    21A1     0.903546  
      10B2     0.973136    15B1     0.994441    11B2     1.028601  
      22A1     1.045973    16B1     1.048659    23A1     1.096332  
      12B2     1.126704    17B1     1.147625     8A2     1.186221  
      24A1     1.200795    13B2     1.207833    18B1     1.212627  
      14B2     1.241907    25A1     1.273310    26A1     1.309151  
      19B1     1.365453    20B1     1.393397    27A1     1.397369  
      21B1     1.420931     9A2     1.430092    10A2     1.499102  
      15B2     1.532880    28A1     1.582190    11A2     1.586541  
      29A1     1.633311    30A1     1.667887    22B1     1.723123  
      23B1     1.827622    16B2     1.943570    31A1     1.951132  
      24B1     2.010548    32A1     2.074401    12A2     2.185329  
      33A1     2.323621    25B1     2.416906    17B2     2.681330  
      18B2     2.688439    13A2     2.796204    34A1     2.828126  
      35A1     2.862075    26B1     2.862817    19B2     2.881139  
      36A1     2.915660    27B1     2.924287    20B2     2.949262  
      28B1     3.010044    21B2     3.012130    14A2     3.036188  
      37A1     3.127278    15A2     3.133686    22B2     3.173197  
      29B1     3.181730    38A1     3.188253    16A2     3.199030  
      30B1     3.222052    23B2     3.303444    39A1     3.307670  
      31B1     3.313487    40A1     3.349735    24B2     3.391224  
      17A2     3.395422    32B1     3.418344    41A1     3.431461  
      25B2     3.553696    33B1     3.577053    18A2     3.577088  
      19A2     3.712273    34B1     3.754907    42A1     3.768785  
      43A1     3.862620    26B2     3.886884    20A2     3.909431  
      44A1     3.964365    35B1     3.974017    45A1     4.084566  
      27B2     4.126365    46A1     4.154224    21A2     4.156911  
      36B1     4.175971    47A1     4.228797    28B2     4.233833  
      37B1     4.245505    22A2     4.325275    48A1     4.335411  
      38B1     4.391471    49A1     4.476100    29B2     4.491012  
      39B1     4.548509    40B1     4.591442    23A2     4.624037  
      50A1     4.670353    30B2     4.721202    24A2     5.037605  
      51A1     5.045111    41B1     5.054568    31B2     5.135322  
      42B1     5.269164    52A1     5.296910    25A2     5.358226  
      43B1     5.436858    53A1     5.504961  

    Final Occupation by Irrep:
             A1    A2    B1    B2 
    DOCC [     8,    1,    4,    2 ]

  @DF-RKS Final Energy:  -155.97631842169605

   => Energetics <=

    Nuclear Repulsion Energy =            109.1161426125692913
    One-Electron Energy =                -424.2065090755527308
    Two-Electron Energy =                 178.4885548679454814
    DFT Exchange-Correlation Energy =     -19.3745068266581235
    Empirical Dispersion Energy =           0.0000000000000000
    VV10 Nonlocal Energy =                  0.0000000000000000
    Total Energy =                       -155.9763184216960497

Computation Completed


Properties will be evaluated at   0.000000,   0.000000,   0.000000 [a0]

Properties computed using the SCF density matrix

  Nuclear Dipole Moment: [e a0]
     X:     0.0000      Y:     0.0000      Z:     0.5655

  Electronic Dipole Moment: [e a0]
     X:     0.0000      Y:     0.0000      Z:    -0.4053

  Dipole Moment: [e a0]
     X:     0.0000      Y:     0.0000      Z:     0.1602     Total:     0.1602

  Dipole Moment: [D]
     X:     0.0000      Y:     0.0000      Z:     0.4072     Total:     0.4072


*** tstop() called on n085 at Mon Nov 15 16:10:35 2021
Module time:
	user time   =      70.54 seconds =       1.18 minutes
	system time =       1.14 seconds =       0.02 minutes
	total time  =         18 seconds =       0.30 minutes
Total time:
	user time   =      70.54 seconds =       1.18 minutes
	system time =       1.14 seconds =       0.02 minutes
	total time  =         18 seconds =       0.30 minutes
Grab this energy -155.97631842169605
    Psi4 stopped on: Monday, 15 November 2021 04:10PM
    Psi4 wall time for execution: 0:00:18.48

*** Psi4 exiting successfully. Buy a developer a beer!
