
    -----------------------------------------------------------------------
          Psi4: An Open-Source Ab Initio Electronic Structure Package
                               Psi4 1.4a2.dev629 

                         Git: Rev {master} 2938fc2 dirty


    D. G. A. Smith, L. A. Burns, A. C. Simmonett, R. M. Parrish,
    M. C. Schieber, R. Galvelis, P. Kraus, H. Kruse, R. Di Remigio,
    A. Alenaizan, A. M. James, S. Lehtola, J. P. Misiewicz, M. Scheurer,
    R. A. Shaw, J. B. Schriber, Y. Xie, Z. L. Glick, D. A. Sirianni,
    J. S. O'Brien, J. M. Waldrop, A. Kumar, E. G. Hohenstein,
    B. P. Pritchard, B. R. Brooks, H. F. Schaefer III, A. Yu. Sokolov,
    K. Patkowski, A. E. DePrince III, U. Bozkaya, R. A. King,
    F. A. Evangelista, J. M. Turney, T. D. Crawford, C. D. Sherrill,
    J. Chem. Phys. 152(18) 184108 (2020). https://doi.org/10.1063/5.0006002

                            Additional Code Authors
    E. T. Seidl, C. L. Janssen, E. F. Valeev, M. L. Leininger,
    J. F. Gonthier, R. M. Richard, H. R. McAlexander, M. Saitow, X. Wang,
    P. Verma, and M. H. Lechner

             Previous Authors, Complete List of Code Contributors,
                       and Citations for Specific Modules
    https://github.com/psi4/psi4/blob/master/codemeta.json
    https://github.com/psi4/psi4/graphs/contributors
    http://psicode.org/psi4manual/master/introduction.html#citing-psifour

    -----------------------------------------------------------------------


    Psi4 started on: Monday, 15 November 2021 04:23PM

    Process ID: 9331
    Host:       n046
    PSIDATADIR: /opt/psi/4/master/share/psi4
    Memory:     500.0 MiB
    Threads:    4
    
  ==> Input File <==

--------------------------------------------------------------------------
import os
memory 14 GB 
 
molecule {
 C   -0.0042304547    0.0000000000   -3.0889509215
 C    0.0018520822   -0.0000000000   -0.5806212883
 C    1.4603161533   -0.0000000000    1.7864196467
 C   -1.4590249668   -0.0000000000    1.7862230243
 H    1.7636083296   -0.0000000000   -4.1427869184
 H   -1.7607973329   -0.0000000000   -4.1422832322
 H    2.3992642208    1.7279378393    2.3556461132
 H    2.3992642208   -1.7279378393    2.3556461132
 H   -2.4001261261   -1.7276976263    2.3558157865
 H   -2.4001261261    1.7276976263    2.3558157865
units bohr
}

basis {

assign 6-31g_2dfp_

[ 6-31g_2dfp_ ]

spherical

!----------------------------------------------------------------------
! Basis Set Exchange
! Version v0.8.13
! https://www.basissetexchange.org
!----------------------------------------------------------------------
!   Basis set: 6-31G(2df,p)
! Description: 6-31G(2df,p)
!        Role: orbital
!     Version: 0  (Data from the original Basis Set Exchange)
!----------------------------------------------------------------------


****
H     0
S    3   1.00
     18.7311370              0.03349460
      2.8253937              0.23472695
      0.6401217              0.81375733
S    1   1.00
      0.1612778              1.00000000
P    1   1.00
      1.5000000              1.0000000
P    1   1.00
      0.3750000              1.0000000
****
B     0
S    6   1.00
   2068.8823000              0.0018663
    310.6495700              0.0142515
     70.6830330              0.0695516
     19.8610800              0.2325729
      6.2993048              0.4670787
      2.1270270              0.3634314
SP   3   1.00
      4.7279710             -0.1303938              0.0745976
      1.1903377             -0.1307889              0.3078467
      0.3594117              1.1309444              0.7434568
SP   1   1.00
      0.1267512              1.0000000              1.0000000
D    1   1.00
      0.8020000              1.0000000
D    1   1.00
      0.2005000              1.0000000
F    1   1.00
      0.5000000              1.0000000
****
C     0
S    6   1.00
   3047.5249000              0.0018347
    457.3695100              0.0140373
    103.9486900              0.0688426
     29.2101550              0.2321844
      9.2866630              0.4679413
      3.1639270              0.3623120
SP   3   1.00
      7.8682724             -0.1193324              0.0689991
      1.8812885             -0.1608542              0.3164240
      0.5442493              1.1434564              0.7443083
SP   1   1.00
      0.1687144              1.0000000              1.0000000
D    1   1.00
      1.2520000              1.0000000
D    1   1.00
      0.3130000              1.0000000
F    1   1.00
      0.8000000              1.0000000
****
N     0
S    6   1.00
   4173.5110000              0.0018348
    627.4579000              0.0139950
    142.9021000              0.0685870
     40.2343300              0.2322410
     12.8202100              0.4690700
      4.3904370              0.3604550
SP   3   1.00
     11.6263580             -0.1149610              0.0675800
      2.7162800             -0.1691180              0.3239070
      0.7722180              1.1458520              0.7408950
SP   1   1.00
      0.2120313              1.0000000              1.0000000
D    1   1.00
      1.8260000              1.0000000
D    1   1.00
      0.4565000              1.0000000
F    1   1.00
      1.0000000              1.0000000
****
O     0
S    6   1.00
   5484.6717000              0.0018311
    825.2349500              0.0139501
    188.0469600              0.0684451
     52.9645000              0.2327143
     16.8975700              0.4701930
      5.7996353              0.3585209
SP   3   1.00
     15.5396160             -0.1107775              0.0708743
      3.5999336             -0.1480263              0.3397528
      1.0137618              1.1307670              0.7271586
SP   1   1.00
      0.2700058              1.0000000              1.0000000
D    1   1.00
      2.5840000              1.0000000
D    1   1.00
      0.6460000              1.0000000
F    1   1.00
      1.4000000              1.0000000
****
F     0
S    6   1.00
   7001.7130900              0.0018196169
   1051.3660900              0.0139160796
    239.2856900              0.0684053245
     67.3974453              0.233185760
     21.5199573              0.471267439
      7.40310130             0.356618546
SP   3   1.00
     20.8479528             -0.108506975            0.0716287243
      4.80830834            -0.146451658            0.3459121030
      1.34406986             1.128688580            0.7224699570
SP   1   1.00
      0.358151393            1.0000000              1.0000000
D    1   1.00
      3.5000000              1.0000000
D    1   1.00
      0.8750000              1.0000000
F    1   1.00
      1.8500000              1.0000000
****
Al     0
S    6   1.00
  13983.1000000              0.00194267
   2098.7500000              0.0148599
    477.7050000              0.0728494
    134.3600000              0.2468300
     42.8709000              0.4872580
     14.5189000              0.3234960
SP   6   1.00
    239.6680000             -0.00292619             0.00460285
     57.4419000             -0.0374080              0.0331990
     18.2859000             -0.1144870              0.1362820
      6.5991400              0.1156350              0.3304760
      2.4904900              0.6125950              0.4491460
      0.9445400              0.3937990              0.2657040
SP   3   1.00
      1.2779000             -0.2276060             -0.0175130
      0.3975900              0.00144583             0.2445330
      0.1600950              1.0927900              0.8049340
SP   1   1.00
      0.0556577              1.0000000              1.0000000
D    1   1.00
      0.6500000              1.0000000
D    1   1.00
      0.1625000              1.0000000
F    1   1.00
      0.2500000              1.0000000
****
Si     0
S    6   1.00
  16115.9000000              0.00195948
   2425.5800000              0.01492880
    553.8670000              0.07284780
    156.3400000              0.24613000
     50.0683000              0.48591400
     17.0178000              0.32500200
SP   6   1.00
    292.7180000             -0.00278094             0.00443826
     69.8731000             -0.03571460             0.03266790
     22.3363000             -0.11498500             0.13472100
      8.1503900              0.09356340             0.32867800
      3.1345800              0.60301700             0.44964000
      1.2254300              0.41895900             0.26137200
SP   3   1.00
      1.7273800             -0.24463000            -0.01779510
      0.5729220              0.00431572             0.25353900
      0.2221920              1.09818000             0.80066900
SP   1   1.00
      0.0778369              1.00000000             1.00000000
D    1   1.00
      0.9000000              1.0000000
D    1   1.00
      0.2250000              1.0000000
F    1   1.00
      0.3200000              1.0000000
****
P     0
S    6   1.00
  19413.3000000              0.0018516
   2909.4200000              0.0142062
    661.3640000              0.0699995
    185.7590000              0.2400790
     59.1943000              0.4847620
     20.0310000              0.3352000
SP   6   1.00
    339.4780000             -0.00278217             0.00456462
     81.0101000             -0.0360499              0.03369360
     25.8780000             -0.1166310              0.13975500
      9.4522100              0.0968328              0.33936200
      3.6656600              0.6144180              0.45092100
      1.4674600              0.4037980              0.23858600
SP   3   1.00
      2.1562300             -0.2529230             -0.01776530
      0.7489970              0.0328517              0.27405800
      0.2831450              1.0812500              0.78542100
SP   1   1.00
      0.0998317              1.0000000              1.00000000
D    1   1.00
      1.1000000              1.0000000
D    1   1.00
      0.2750000              1.0000000
F    1   1.00
      0.4500000              1.0000000
****
S     0
S    6   1.00
  21917.1000000              0.0018690
   3301.4900000              0.0142300
    754.1460000              0.0696960
    212.7110000              0.2384870
     67.9896000              0.4833070
     23.0515000              0.3380740
SP   6   1.00
    423.7350000             -0.0023767              0.0040610
    100.7100000             -0.0316930              0.0306810
     32.1599000             -0.1133170              0.1304520
     11.8079000              0.0560900              0.3272050
      4.6311000              0.5922550              0.4528510
      1.8702500              0.4550060              0.2560420
SP   3   1.00
      2.6158400             -0.2503740             -0.0145110
      0.9221670              0.0669570              0.3102630
      0.3412870              1.0545100              0.7544830
SP   1   1.00
      0.1171670              1.0000000              1.0000000
D    1   1.00
      1.3000000              1.0000000
D    1   1.00
      0.3250000              1.0000000
F    1   1.00
      0.5500000              1.0000000
****
Cl     0
S    6   1.00
  25180.1000000              0.0018330
   3780.3500000              0.0140340
    860.4740000              0.0690970
    242.1450000              0.2374520
     77.3349000              0.4830340
     26.2470000              0.3398560
SP   6   1.00
    491.7650000             -0.0022974              0.0039894
    116.9840000             -0.0307140              0.0303180
     37.4153000             -0.1125280              0.1298800
     13.7834000              0.0450160              0.3279510
      5.4521500              0.5893530              0.4535270
      2.2258800              0.4652060              0.2521540
SP   3   1.00
      3.1864900             -0.2518300             -0.0142990
      1.1442700              0.0615890              0.3235720
      0.4203770              1.0601800              0.7435070
SP   1   1.00
      0.1426570              1.0000000              1.0000000
D    1   1.00
      1.5000000              1.0000000
D    1   1.00
      0.3750000              1.0000000
F    1   1.00
      0.7000000              1.0000000
****
}


set {
reference rhf                          
freeze_core true
e_convergence 10                       
d_convergence 10                      
dft_spherical_points 1202
dft_radial_points 99
}

e = energy('b3lyp')

print_out('Grab this energy {0}'.format(e))
--------------------------------------------------------------------------

  Memory set to  13.039 GiB by Python driver.

Scratch directory: /tmp/

*** tstart() called on n046
*** at Mon Nov 15 16:23:03 2021

   => Loading Basis Set <=

    Name: ANONYMOUS0C828436
    Role: ORBITAL
    Keyword: BASIS
    atoms 1-4  entry C          line    48 inputblock 6-31g_2dfp_ 
    atoms 5-10 entry H          line    15 inputblock 6-31g_2dfp_ 


         ---------------------------------------------------------
                                   SCF
               by Justin Turney, Rob Parrish, Andy Simmonett
                          and Daniel G. A. Smith
                              RKS Reference
                        4 Threads,  13351 MiB Core
         ---------------------------------------------------------

  ==> Geometry <==

    Molecular point group: cs
    Full point group: Cs

    Geometry (in Bohr), charge = 0, multiplicity = 1:

       Center              X                  Y                   Z               Mass       
    ------------   -----------------  -----------------  -----------------  -----------------
         C            0.004009340676    -3.088647535735     0.000000000000    12.000000000000
         C           -0.002073196224    -0.580317902535     0.000000000000    12.000000000000
         C           -1.460537267324     1.786723032465     0.000000000000    12.000000000000
         C            1.458803852776     1.786526410065     0.000000000000    12.000000000000
         H           -1.763829443624    -4.142483532635     0.000000000000     1.007825032230
         H            1.760576218876    -4.141979846435     0.000000000000     1.007825032230
         H           -2.399485334824     2.355949498965     1.727937839300     1.007825032230
         H           -2.399485334824     2.355949498965    -1.727937839300     1.007825032230
         H            2.399905012076     2.356119172265    -1.727697626300     1.007825032230
         H            2.399905012076     2.356119172265     1.727697626300     1.007825032230

  Running in cs symmetry.

  Rotational constants: A =      0.64980  B =      0.22792  C =      0.18094 [cm^-1]
  Rotational constants: A =  19480.38850  B =   6832.93541  C =   5424.56059 [MHz]
  Nuclear repulsion =  109.080636815362467

  Charge       = 0
  Multiplicity = 1
  Electrons    = 30
  Nalpha       = 15
  Nbeta        = 15

  ==> Algorithm <==

  SCF Algorithm Type is DF.
  DIIS enabled.
  MOM disabled.
  Fractional occupation disabled.
  Guess Type is SAD.
  Energy threshold   = 1.00e-10
  Density threshold  = 1.00e-10
  Integral threshold = 0.00e+00

  ==> Primary Basis <==

  Basis Set: ANONYMOUS0C828436
    Blend: 6-31G_2DFP_
    Number of shells: 56
    Number of basis function: 152
    Number of Cartesian functions: 172
    Spherical Harmonics?: true
    Max angular momentum: 3

  ==> DFT Potential <==

   => Composite Functional: B3LYP <= 

    B3LYP Hyb-GGA Exchange-Correlation Functional

    P. J. Stephens, F. J. Devlin, C. F. Chabalowski, and M. J. Frisch, J. Phys. Chem. 98, 11623 (1994)

    Deriv               =              1
    GGA                 =           TRUE
    Meta                =          FALSE

    Exchange Hybrid     =           TRUE
    MP2 Hybrid          =          FALSE

   => Exchange Functionals <=

    0.0800   Slater exchange
    0.7200         Becke 88

   => Exact (HF) Exchange <=

    0.2000               HF 

   => Correlation Functionals <=

    0.1900   Vosko, Wilk & Nusair (VWN5_RPA)
    0.8100   Lee, Yang & Parr

   => Molecular Quadrature <=

    Radial Scheme          =       TREUTLER
    Pruning Scheme         =           NONE
    Nuclear Scheme         =       TREUTLER

    BS radius alpha        =              1
    Pruning alpha          =              1
    Radial Points          =             99
    Spherical Points       =           1202
    Total Points           =        1113867
    Total Blocks           =           7462
    Max Points             =            256
    Max Functions          =            152
    Weights Tolerance      =       1.00E-15

   => Loading Basis Set <=

    Name: (ANONYMOUS0C828436 AUX)
    Role: JKFIT
    Keyword: DF_BASIS_SCF
    atoms 1-4  entry C          line   198 file /opt/psi/4/master/share/psi4/basis/def2-universal-jkfit.gbs 
    atoms 5-10 entry H          line    18 file /opt/psi/4/master/share/psi4/basis/def2-universal-jkfit.gbs 

  ==> Integral Setup <==

  DFHelper Memory: AOs need 0.076 GiB; user supplied 5.718 GiB. Using in-core AOs.

  ==> MemDFJK: Density-Fitted J/K Matrices <==

    J tasked:                   Yes
    K tasked:                   Yes
    wK tasked:                   No
    OpenMP threads:               4
    Memory [MiB]:              5854
    Algorithm:                 Core
    Schwarz Cutoff:           1E-12
    Mask sparsity (%):       0.9868
    Fitting Condition:        1E-10

   => Auxiliary Basis Set <=

  Basis Set: (ANONYMOUS0C828436 AUX)
    Blend: DEF2-UNIVERSAL-JKFIT
    Number of shells: 136
    Number of basis function: 408
    Number of Cartesian functions: 476
    Spherical Harmonics?: true
    Max angular momentum: 4

  Cached 100.0% of DFT collocation blocks in 4.061 [GiB].

  Minimum eigenvalue in the overlap matrix is 7.3906918397E-04.
  Reciprocal condition number of the overlap matrix is 1.3071659531E-04.
    Using symmetric orthogonalization.

  ==> Pre-Iterations <==

  SCF Guess: Superposition of Atomic Densities via on-the-fly atomic UHF (no occupation information).

   -------------------------
    Irrep   Nso     Nmo    
   -------------------------
     A'        96      96 
     A"        56      56 
   -------------------------
    Total     152     152
   -------------------------

  ==> Iterations <==

                           Total Energy        Delta E     RMS |[F,P]|

   @DF-RKS iter SAD:  -155.50193283999923   -1.55502e+02   0.00000e+00 
   @DF-RKS iter   1:  -155.68929844708339   -1.87366e-01   6.40660e-03 DIIS
   @DF-RKS iter   2:  -155.62362691442621    6.56715e-02   7.12063e-03 DIIS
   @DF-RKS iter   3:  -155.96961085700531   -3.45984e-01   1.03269e-03 DIIS
   @DF-RKS iter   4:  -155.97483561083351   -5.22475e-03   4.73174e-04 DIIS
   @DF-RKS iter   5:  -155.97626864506964   -1.43303e-03   5.70830e-05 DIIS
   @DF-RKS iter   6:  -155.97628763111669   -1.89860e-05   2.53311e-05 DIIS
   @DF-RKS iter   7:  -155.97629157146167   -3.94034e-06   2.56802e-06 DIIS
   @DF-RKS iter   8:  -155.97629161311818   -4.16565e-08   3.72549e-07 DIIS
   @DF-RKS iter   9:  -155.97629161415196   -1.03378e-09   3.27047e-08 DIIS
   @DF-RKS iter  10:  -155.97629161415787   -5.91172e-12   7.62888e-09 DIIS
   @DF-RKS iter  11:  -155.97629161415801   -1.42109e-13   5.87308e-09 DIIS
   @DF-RKS iter  12:  -155.97629161415804   -2.84217e-14   5.84762e-10 DIIS
   @DF-RKS iter  13:  -155.97629161415804    0.00000e+00   1.01719e-10 DIIS
   @DF-RKS iter  14:  -155.97629161415827   -2.27374e-13   1.24362e-11 DIIS
  Energy and wave function converged.


  ==> Post-Iterations <==

    Orbital Energies [Eh]
    ---------------------

    Doubly Occupied:                                                      

       1Ap   -10.192116     2Ap   -10.186623     3Ap   -10.186425  
       4Ap   -10.172944     5Ap    -0.856546     6Ap    -0.711092  
       7Ap    -0.606368     8Ap    -0.529803     1App   -0.475093  
       9Ap    -0.459668    10Ap    -0.428440     2App   -0.371287  
      11Ap    -0.303498    12Ap    -0.288245     3App   -0.253375  

    Virtual:                                                              

       4App    0.012214    13Ap     0.099302    14Ap     0.121463  
      15Ap     0.128781    16Ap     0.138675     5App    0.158720  
      17Ap     0.204420     6App    0.206108    18Ap     0.220580  
      19Ap     0.265778    20Ap     0.311788    21Ap     0.373236  
       7App    0.436596    22Ap     0.438235    23Ap     0.458510  
       8App    0.477418    24Ap     0.486637     9App    0.493024  
      25Ap     0.503106    26Ap     0.518945    10App    0.578124  
      11App    0.588593    27Ap     0.595537    12App    0.603092  
      28Ap     0.618262    29Ap     0.632786    13App    0.641317  
      30Ap     0.655733    31Ap     0.672686    32Ap     0.683823  
      14App    0.716789    15App    0.799847    33Ap     0.832498  
      34Ap     0.864466    16App    0.886762    35Ap     0.903034  
      17App    0.972836    36Ap     0.993017    18App    1.026797  
      37Ap     1.045381    38Ap     1.048781    39Ap     1.096547  
      19App    1.126446    40Ap     1.147546    20App    1.185969  
      41Ap     1.200820    21App    1.207370    42Ap     1.212213  
      22App    1.242619    43Ap     1.273335    44Ap     1.308366  
      45Ap     1.364253    46Ap     1.393727    47Ap     1.397740  
      48Ap     1.420590    23App    1.429782    24App    1.499037  
      25App    1.532491    49Ap     1.581252    26App    1.586109  
      50Ap     1.629610    51Ap     1.664978    52Ap     1.720606  
      53Ap     1.826868    27App    1.942320    54Ap     1.951251  
      55Ap     2.010830    56Ap     2.073787    28App    2.185670  
      57Ap     2.323316    58Ap     2.408798    29App    2.681202  
      30App    2.688662    31App    2.795565    59Ap     2.827661  
      60Ap     2.860909    61Ap     2.862880    32App    2.880923  
      62Ap     2.915897    63Ap     2.923880    33App    2.949244  
      64Ap     3.010638    34App    3.011591    35App    3.037009  
      65Ap     3.127914    36App    3.133982    37App    3.173582  
      66Ap     3.181341    67Ap     3.188226    38App    3.199869  
      68Ap     3.221291    39App    3.303650    69Ap     3.307204  
      70Ap     3.315659    71Ap     3.347629    40App    3.391152  
      41App    3.396025    72Ap     3.418230    73Ap     3.431023  
      42App    3.552723    43App    3.576823    74Ap     3.576881  
      44App    3.712051    75Ap     3.754947    76Ap     3.767427  
      77Ap     3.860993    45App    3.886574    46App    3.908195  
      78Ap     3.962618    79Ap     3.974012    80Ap     4.080861  
      47App    4.124964    81Ap     4.153194    48App    4.155563  
      82Ap     4.175742    83Ap     4.228100    49App    4.233621  
      84Ap     4.245840    50App    4.319936    85Ap     4.334889  
      86Ap     4.390276    87Ap     4.474828    51App    4.489654  
      88Ap     4.547360    89Ap     4.589828    52App    4.622829  
      90Ap     4.667917    53App    4.719738    54App    5.036529  
      91Ap     5.042064    92Ap     5.044192    55App    5.134677  
      93Ap     5.264021    94Ap     5.294188    56App    5.357650  
      95Ap     5.433980    96Ap     5.504868  

    Final Occupation by Irrep:
             Ap   App 
    DOCC [    12,    3 ]

  @DF-RKS Final Energy:  -155.97629161415827

   => Energetics <=

    Nuclear Repulsion Energy =            109.0806368153624675
    One-Electron Energy =                -424.1386791608846920
    Two-Electron Energy =                 178.4539960677138311
    DFT Exchange-Correlation Energy =     -19.3722453363498843
    Empirical Dispersion Energy =           0.0000000000000000
    VV10 Nonlocal Energy =                  0.0000000000000000
    Total Energy =                       -155.9762916141582707

Computation Completed


Properties will be evaluated at   0.000000,   0.000000,   0.000000 [a0]

Properties computed using the SCF density matrix

  Nuclear Dipole Moment: [e a0]
     X:    -0.0012      Y:     0.5654      Z:     0.0000

  Electronic Dipole Moment: [e a0]
     X:     0.0015      Y:    -0.4038      Z:     0.0000

  Dipole Moment: [e a0]
     X:     0.0003      Y:     0.1616      Z:     0.0000     Total:     0.1616

  Dipole Moment: [D]
     X:     0.0008      Y:     0.4107      Z:     0.0000     Total:     0.4107


*** tstop() called on n046 at Mon Nov 15 16:23:24 2021
Module time:
	user time   =      82.51 seconds =       1.38 minutes
	system time =       1.22 seconds =       0.02 minutes
	total time  =         21 seconds =       0.35 minutes
Total time:
	user time   =      82.51 seconds =       1.38 minutes
	system time =       1.22 seconds =       0.02 minutes
	total time  =         21 seconds =       0.35 minutes
Grab this energy -155.97629161415827
    Psi4 stopped on: Monday, 15 November 2021 04:23PM
    Psi4 wall time for execution: 0:00:21.53

*** Psi4 exiting successfully. Buy a developer a beer!
