
    -----------------------------------------------------------------------
          Psi4: An Open-Source Ab Initio Electronic Structure Package
                               Psi4 1.4a2.dev629 

                         Git: Rev {master} 2938fc2 dirty


    D. G. A. Smith, L. A. Burns, A. C. Simmonett, R. M. Parrish,
    M. C. Schieber, R. Galvelis, P. Kraus, H. Kruse, R. Di Remigio,
    A. Alenaizan, A. M. James, S. Lehtola, J. P. Misiewicz, M. Scheurer,
    R. A. Shaw, J. B. Schriber, Y. Xie, Z. L. Glick, D. A. Sirianni,
    J. S. O'Brien, J. M. Waldrop, A. Kumar, E. G. Hohenstein,
    B. P. Pritchard, B. R. Brooks, H. F. Schaefer III, A. Yu. Sokolov,
    K. Patkowski, A. E. DePrince III, U. Bozkaya, R. A. King,
    F. A. Evangelista, J. M. Turney, T. D. Crawford, C. D. Sherrill,
    J. Chem. Phys. 152(18) 184108 (2020). https://doi.org/10.1063/5.0006002

                            Additional Code Authors
    E. T. Seidl, C. L. Janssen, E. F. Valeev, M. L. Leininger,
    J. F. Gonthier, R. M. Richard, H. R. McAlexander, M. Saitow, X. Wang,
    P. Verma, and M. H. Lechner

             Previous Authors, Complete List of Code Contributors,
                       and Citations for Specific Modules
    https://github.com/psi4/psi4/blob/master/codemeta.json
    https://github.com/psi4/psi4/graphs/contributors
    http://psicode.org/psi4manual/master/introduction.html#citing-psifour

    -----------------------------------------------------------------------


    Psi4 started on: Monday, 15 November 2021 04:05PM

    Process ID: 22291
    Host:       n051
    PSIDATADIR: /opt/psi/4/master/share/psi4
    Memory:     500.0 MiB
    Threads:    4
    
  ==> Input File <==

--------------------------------------------------------------------------
import os
memory 14 GB 
 
molecule {
 C    0.0000000000   -0.0006213731   -3.0877304300
 C    0.0000000000    0.0010399983   -0.5805048480
 C    1.4587343647   -0.0003001753    1.7872133550
 C   -1.4587343647   -0.0003001753    1.7872133550
 H    1.7548331870    0.0000586774   -4.1427725914
 H   -1.7548331870    0.0000586774   -4.1427725914
 H    2.3999222651    1.7274790767    2.3550562131
 H    2.3999474561   -1.7274468915    2.3550827174
 H   -2.3999474561   -1.7274468915    2.3550827174
 H   -2.3999222651    1.7274790767    2.3550562131
units bohr
}

basis {

assign 6-31g_2dfp_

[ 6-31g_2dfp_ ]

spherical

!----------------------------------------------------------------------
! Basis Set Exchange
! Version v0.8.13
! https://www.basissetexchange.org
!----------------------------------------------------------------------
!   Basis set: 6-31G(2df,p)
! Description: 6-31G(2df,p)
!        Role: orbital
!     Version: 0  (Data from the original Basis Set Exchange)
!----------------------------------------------------------------------


****
H     0
S    3   1.00
     18.7311370              0.03349460
      2.8253937              0.23472695
      0.6401217              0.81375733
S    1   1.00
      0.1612778              1.00000000
P    1   1.00
      1.5000000              1.0000000
P    1   1.00
      0.3750000              1.0000000
****
B     0
S    6   1.00
   2068.8823000              0.0018663
    310.6495700              0.0142515
     70.6830330              0.0695516
     19.8610800              0.2325729
      6.2993048              0.4670787
      2.1270270              0.3634314
SP   3   1.00
      4.7279710             -0.1303938              0.0745976
      1.1903377             -0.1307889              0.3078467
      0.3594117              1.1309444              0.7434568
SP   1   1.00
      0.1267512              1.0000000              1.0000000
D    1   1.00
      0.8020000              1.0000000
D    1   1.00
      0.2005000              1.0000000
F    1   1.00
      0.5000000              1.0000000
****
C     0
S    6   1.00
   3047.5249000              0.0018347
    457.3695100              0.0140373
    103.9486900              0.0688426
     29.2101550              0.2321844
      9.2866630              0.4679413
      3.1639270              0.3623120
SP   3   1.00
      7.8682724             -0.1193324              0.0689991
      1.8812885             -0.1608542              0.3164240
      0.5442493              1.1434564              0.7443083
SP   1   1.00
      0.1687144              1.0000000              1.0000000
D    1   1.00
      1.2520000              1.0000000
D    1   1.00
      0.3130000              1.0000000
F    1   1.00
      0.8000000              1.0000000
****
N     0
S    6   1.00
   4173.5110000              0.0018348
    627.4579000              0.0139950
    142.9021000              0.0685870
     40.2343300              0.2322410
     12.8202100              0.4690700
      4.3904370              0.3604550
SP   3   1.00
     11.6263580             -0.1149610              0.0675800
      2.7162800             -0.1691180              0.3239070
      0.7722180              1.1458520              0.7408950
SP   1   1.00
      0.2120313              1.0000000              1.0000000
D    1   1.00
      1.8260000              1.0000000
D    1   1.00
      0.4565000              1.0000000
F    1   1.00
      1.0000000              1.0000000
****
O     0
S    6   1.00
   5484.6717000              0.0018311
    825.2349500              0.0139501
    188.0469600              0.0684451
     52.9645000              0.2327143
     16.8975700              0.4701930
      5.7996353              0.3585209
SP   3   1.00
     15.5396160             -0.1107775              0.0708743
      3.5999336             -0.1480263              0.3397528
      1.0137618              1.1307670              0.7271586
SP   1   1.00
      0.2700058              1.0000000              1.0000000
D    1   1.00
      2.5840000              1.0000000
D    1   1.00
      0.6460000              1.0000000
F    1   1.00
      1.4000000              1.0000000
****
F     0
S    6   1.00
   7001.7130900              0.0018196169
   1051.3660900              0.0139160796
    239.2856900              0.0684053245
     67.3974453              0.233185760
     21.5199573              0.471267439
      7.40310130             0.356618546
SP   3   1.00
     20.8479528             -0.108506975            0.0716287243
      4.80830834            -0.146451658            0.3459121030
      1.34406986             1.128688580            0.7224699570
SP   1   1.00
      0.358151393            1.0000000              1.0000000
D    1   1.00
      3.5000000              1.0000000
D    1   1.00
      0.8750000              1.0000000
F    1   1.00
      1.8500000              1.0000000
****
Al     0
S    6   1.00
  13983.1000000              0.00194267
   2098.7500000              0.0148599
    477.7050000              0.0728494
    134.3600000              0.2468300
     42.8709000              0.4872580
     14.5189000              0.3234960
SP   6   1.00
    239.6680000             -0.00292619             0.00460285
     57.4419000             -0.0374080              0.0331990
     18.2859000             -0.1144870              0.1362820
      6.5991400              0.1156350              0.3304760
      2.4904900              0.6125950              0.4491460
      0.9445400              0.3937990              0.2657040
SP   3   1.00
      1.2779000             -0.2276060             -0.0175130
      0.3975900              0.00144583             0.2445330
      0.1600950              1.0927900              0.8049340
SP   1   1.00
      0.0556577              1.0000000              1.0000000
D    1   1.00
      0.6500000              1.0000000
D    1   1.00
      0.1625000              1.0000000
F    1   1.00
      0.2500000              1.0000000
****
Si     0
S    6   1.00
  16115.9000000              0.00195948
   2425.5800000              0.01492880
    553.8670000              0.07284780
    156.3400000              0.24613000
     50.0683000              0.48591400
     17.0178000              0.32500200
SP   6   1.00
    292.7180000             -0.00278094             0.00443826
     69.8731000             -0.03571460             0.03266790
     22.3363000             -0.11498500             0.13472100
      8.1503900              0.09356340             0.32867800
      3.1345800              0.60301700             0.44964000
      1.2254300              0.41895900             0.26137200
SP   3   1.00
      1.7273800             -0.24463000            -0.01779510
      0.5729220              0.00431572             0.25353900
      0.2221920              1.09818000             0.80066900
SP   1   1.00
      0.0778369              1.00000000             1.00000000
D    1   1.00
      0.9000000              1.0000000
D    1   1.00
      0.2250000              1.0000000
F    1   1.00
      0.3200000              1.0000000
****
P     0
S    6   1.00
  19413.3000000              0.0018516
   2909.4200000              0.0142062
    661.3640000              0.0699995
    185.7590000              0.2400790
     59.1943000              0.4847620
     20.0310000              0.3352000
SP   6   1.00
    339.4780000             -0.00278217             0.00456462
     81.0101000             -0.0360499              0.03369360
     25.8780000             -0.1166310              0.13975500
      9.4522100              0.0968328              0.33936200
      3.6656600              0.6144180              0.45092100
      1.4674600              0.4037980              0.23858600
SP   3   1.00
      2.1562300             -0.2529230             -0.01776530
      0.7489970              0.0328517              0.27405800
      0.2831450              1.0812500              0.78542100
SP   1   1.00
      0.0998317              1.0000000              1.00000000
D    1   1.00
      1.1000000              1.0000000
D    1   1.00
      0.2750000              1.0000000
F    1   1.00
      0.4500000              1.0000000
****
S     0
S    6   1.00
  21917.1000000              0.0018690
   3301.4900000              0.0142300
    754.1460000              0.0696960
    212.7110000              0.2384870
     67.9896000              0.4833070
     23.0515000              0.3380740
SP   6   1.00
    423.7350000             -0.0023767              0.0040610
    100.7100000             -0.0316930              0.0306810
     32.1599000             -0.1133170              0.1304520
     11.8079000              0.0560900              0.3272050
      4.6311000              0.5922550              0.4528510
      1.8702500              0.4550060              0.2560420
SP   3   1.00
      2.6158400             -0.2503740             -0.0145110
      0.9221670              0.0669570              0.3102630
      0.3412870              1.0545100              0.7544830
SP   1   1.00
      0.1171670              1.0000000              1.0000000
D    1   1.00
      1.3000000              1.0000000
D    1   1.00
      0.3250000              1.0000000
F    1   1.00
      0.5500000              1.0000000
****
Cl     0
S    6   1.00
  25180.1000000              0.0018330
   3780.3500000              0.0140340
    860.4740000              0.0690970
    242.1450000              0.2374520
     77.3349000              0.4830340
     26.2470000              0.3398560
SP   6   1.00
    491.7650000             -0.0022974              0.0039894
    116.9840000             -0.0307140              0.0303180
     37.4153000             -0.1125280              0.1298800
     13.7834000              0.0450160              0.3279510
      5.4521500              0.5893530              0.4535270
      2.2258800              0.4652060              0.2521540
SP   3   1.00
      3.1864900             -0.2518300             -0.0142990
      1.1442700              0.0615890              0.3235720
      0.4203770              1.0601800              0.7435070
SP   1   1.00
      0.1426570              1.0000000              1.0000000
D    1   1.00
      1.5000000              1.0000000
D    1   1.00
      0.3750000              1.0000000
F    1   1.00
      0.7000000              1.0000000
****
}


set {
reference rhf                          
freeze_core true
e_convergence 10                       
d_convergence 10                      
dft_spherical_points 1202
dft_radial_points 99
}

e = energy('b3lyp')

print_out('Grab this energy {0}'.format(e))
--------------------------------------------------------------------------

  Memory set to  13.039 GiB by Python driver.

Scratch directory: /tmp/

*** tstart() called on n051
*** at Mon Nov 15 16:05:47 2021

   => Loading Basis Set <=

    Name: ANONYMOUS0CD6B673
    Role: ORBITAL
    Keyword: BASIS
    atoms 1-4  entry C          line    48 inputblock 6-31g_2dfp_ 
    atoms 5-10 entry H          line    15 inputblock 6-31g_2dfp_ 


         ---------------------------------------------------------
                                   SCF
               by Justin Turney, Rob Parrish, Andy Simmonett
                          and Daniel G. A. Smith
                              RKS Reference
                        4 Threads,  13351 MiB Core
         ---------------------------------------------------------

  ==> Geometry <==

    Molecular point group: cs
    Full point group: Cs

    Geometry (in Bohr), charge = 0, multiplicity = 1:

       Center              X                  Y                   Z               Mass       
    ------------   -----------------  -----------------  -----------------  -----------------
         C            0.000584413427     3.088061793415     0.000000000000    12.000000000000
         C           -0.001076957973     0.580836211415     0.000000000000    12.000000000000
         C            0.000263215627    -1.786881991585     1.458734364700    12.000000000000
         C            0.000263215627    -1.786881991585    -1.458734364700    12.000000000000
         H           -0.000095637073     4.143103954815     1.754833187000     1.007825032230
         H           -0.000095637073     4.143103954815    -1.754833187000     1.007825032230
         H           -1.727516036373    -2.354724849685     2.399922265100     1.007825032230
         H            1.727409931827    -2.354751353985     2.399947456100     1.007825032230
         H            1.727409931827    -2.354751353985    -2.399947456100     1.007825032230
         H           -1.727516036373    -2.354724849685    -2.399922265100     1.007825032230

  Running in cs symmetry.

  Rotational constants: A =      0.65063  B =      0.22795  C =      0.18102 [cm^-1]
  Rotational constants: A =  19505.27950  B =   6833.69206  C =   5426.80547 [MHz]
  Nuclear repulsion =  109.119292718459789

  Charge       = 0
  Multiplicity = 1
  Electrons    = 30
  Nalpha       = 15
  Nbeta        = 15

  ==> Algorithm <==

  SCF Algorithm Type is DF.
  DIIS enabled.
  MOM disabled.
  Fractional occupation disabled.
  Guess Type is SAD.
  Energy threshold   = 1.00e-10
  Density threshold  = 1.00e-10
  Integral threshold = 0.00e+00

  ==> Primary Basis <==

  Basis Set: ANONYMOUS0CD6B673
    Blend: 6-31G_2DFP_
    Number of shells: 56
    Number of basis function: 152
    Number of Cartesian functions: 172
    Spherical Harmonics?: true
    Max angular momentum: 3

  ==> DFT Potential <==

   => Composite Functional: B3LYP <= 

    B3LYP Hyb-GGA Exchange-Correlation Functional

    P. J. Stephens, F. J. Devlin, C. F. Chabalowski, and M. J. Frisch, J. Phys. Chem. 98, 11623 (1994)

    Deriv               =              1
    GGA                 =           TRUE
    Meta                =          FALSE

    Exchange Hybrid     =           TRUE
    MP2 Hybrid          =          FALSE

   => Exchange Functionals <=

    0.0800   Slater exchange
    0.7200         Becke 88

   => Exact (HF) Exchange <=

    0.2000               HF 

   => Correlation Functionals <=

    0.1900   Vosko, Wilk & Nusair (VWN5_RPA)
    0.8100   Lee, Yang & Parr

   => Molecular Quadrature <=

    Radial Scheme          =       TREUTLER
    Pruning Scheme         =           NONE
    Nuclear Scheme         =       TREUTLER

    BS radius alpha        =              1
    Pruning alpha          =              1
    Radial Points          =             99
    Spherical Points       =           1202
    Total Points           =        1113850
    Total Blocks           =           7448
    Max Points             =            256
    Max Functions          =            152
    Weights Tolerance      =       1.00E-15

   => Loading Basis Set <=

    Name: (ANONYMOUS0CD6B673 AUX)
    Role: JKFIT
    Keyword: DF_BASIS_SCF
    atoms 1-4  entry C          line   198 file /opt/psi/4/master/share/psi4/basis/def2-universal-jkfit.gbs 
    atoms 5-10 entry H          line    18 file /opt/psi/4/master/share/psi4/basis/def2-universal-jkfit.gbs 

  ==> Integral Setup <==

  DFHelper Memory: AOs need 0.076 GiB; user supplied 5.715 GiB. Using in-core AOs.

  ==> MemDFJK: Density-Fitted J/K Matrices <==

    J tasked:                   Yes
    K tasked:                   Yes
    wK tasked:                   No
    OpenMP threads:               4
    Memory [MiB]:              5851
    Algorithm:                 Core
    Schwarz Cutoff:           1E-12
    Mask sparsity (%):       0.9868
    Fitting Condition:        1E-10

   => Auxiliary Basis Set <=

  Basis Set: (ANONYMOUS0CD6B673 AUX)
    Blend: DEF2-UNIVERSAL-JKFIT
    Number of shells: 136
    Number of basis function: 408
    Number of Cartesian functions: 476
    Spherical Harmonics?: true
    Max angular momentum: 4

  Cached 100.0% of DFT collocation blocks in 4.064 [GiB].

  Minimum eigenvalue in the overlap matrix is 7.0429187613E-04.
  Reciprocal condition number of the overlap matrix is 1.3607385164E-04.
    Using symmetric orthogonalization.

  ==> Pre-Iterations <==

  SCF Guess: Superposition of Atomic Densities via on-the-fly atomic UHF (no occupation information).

   -------------------------
    Irrep   Nso     Nmo    
   -------------------------
     A'        84      84 
     A"        68      68 
   -------------------------
    Total     152     152
   -------------------------

  ==> Iterations <==

                           Total Energy        Delta E     RMS |[F,P]|

   @DF-RKS iter SAD:  -155.50494125072831   -1.55505e+02   0.00000e+00 
   @DF-RKS iter   1:  -155.68906521939485   -1.84124e-01   6.59318e-03 DIIS
   @DF-RKS iter   2:  -155.62460806687719    6.44572e-02   7.31444e-03 DIIS
   @DF-RKS iter   3:  -155.96975061000293   -3.45143e-01   1.05408e-03 DIIS
   @DF-RKS iter   4:  -155.97487453686938   -5.12393e-03   4.86616e-04 DIIS
   @DF-RKS iter   5:  -155.97630754265757   -1.43301e-03   5.82105e-05 DIIS
   @DF-RKS iter   6:  -155.97632621136376   -1.86687e-05   2.58620e-05 DIIS
   @DF-RKS iter   7:  -155.97633009498557   -3.88362e-06   2.64660e-06 DIIS
   @DF-RKS iter   8:  -155.97633013671401   -4.17284e-08   3.84808e-07 DIIS
   @DF-RKS iter   9:  -155.97633013775376   -1.03975e-09   3.33443e-08 DIIS
   @DF-RKS iter  10:  -155.97633013776004   -6.28120e-12   3.95265e-09 DIIS
   @DF-RKS iter  11:  -155.97633013775999    5.68434e-14   1.72392e-09 DIIS
   @DF-RKS iter  12:  -155.97633013776004   -5.68434e-14   2.70955e-10 DIIS
   @DF-RKS iter  13:  -155.97633013776016   -1.13687e-13   6.95621e-11 DIIS
  Energy and wave function converged.


  ==> Post-Iterations <==

    Orbital Energies [Eh]
    ---------------------

    Doubly Occupied:                                                      

       1Ap   -10.192020     2Ap   -10.186513     1App  -10.186424  
       3Ap   -10.172273     4Ap    -0.856667     5Ap    -0.711455  
       2App   -0.606374     6Ap    -0.530064     7Ap    -0.475147  
       8Ap    -0.460297     3App   -0.428643     4App   -0.371227  
       9Ap    -0.303812     5App   -0.288067    10Ap    -0.253435  

    Virtual:                                                              

      11Ap     0.012334    12Ap     0.099385     6App    0.121784  
      13Ap     0.129576     7App    0.138808    14Ap     0.158670  
       8App    0.204872     9App    0.206156    15Ap     0.220514  
      10App    0.265857    16Ap     0.312150    17Ap     0.373117  
      18Ap     0.436646    19Ap     0.438649    11App    0.458646  
      20Ap     0.477345    21Ap     0.486851    12App    0.493238  
      22Ap     0.502986    13App    0.519245    23Ap     0.578181  
      14App    0.589102    15App    0.595579    24Ap     0.603136  
      25Ap     0.618820    16App    0.633241    17App    0.641428  
      18App    0.656670    26Ap     0.672869    27Ap     0.684686  
      28Ap     0.716699    19App    0.800000    20App    0.832758  
      29Ap     0.864420    21App    0.886943    30Ap     0.903153  
      31Ap     0.973137    22App    0.994587    32Ap     1.028573  
      33Ap     1.046473    23App    1.048801    34Ap     1.096622  
      35Ap     1.126526    24App    1.147713    25App    1.186416  
      36Ap     1.201730    37Ap     1.207521    26App    1.212344  
      38Ap     1.243297    39Ap     1.273657    40Ap     1.308443  
      27App    1.365124    28App    1.394235    41Ap     1.397451  
      29App    1.420529    30App    1.429524    31App    1.499228  
      42Ap     1.532758    43Ap     1.581463    32App    1.586945  
      44Ap     1.633410    45Ap     1.667826    33App    1.722750  
      34App    1.827390    46Ap     1.941883    47Ap     1.951060  
      35App    2.011486    48Ap     2.074103    36App    2.186962  
      49Ap     2.324236    37App    2.415702    50Ap     2.681028  
      51Ap     2.689005    38App    2.796125    52Ap     2.827726  
      53Ap     2.861177    39App    2.862770    54Ap     2.881021  
      55Ap     2.916583    40App    2.923690    56Ap     2.948632  
      41App    3.009480    57Ap     3.012262    42App    3.036333  
      58Ap     3.127389    43App    3.133518    59Ap     3.173522  
      44App    3.181635    60Ap     3.188559    45App    3.198749  
      46App    3.222324    61Ap     3.303896    62Ap     3.307961  
      47App    3.313277    63Ap     3.349061    64Ap     3.390433  
      48App    3.396387    49App    3.418739    65Ap     3.431811  
      66Ap     3.553446    50App    3.576785    51App    3.577216  
      52App    3.712847    53App    3.755963    67Ap     3.768519  
      68Ap     3.860134    69Ap     3.887553    54App    3.908398  
      70Ap     3.964820    55App    3.975002    71Ap     4.084421  
      72Ap     4.126689    73Ap     4.153291    56App    4.158104  
      57App    4.177222    74Ap     4.230910    75Ap     4.234869  
      58App    4.246369    59App    4.325490    76Ap     4.336098  
      60App    4.390962    77Ap     4.475974    78Ap     4.490457  
      61App    4.547925    62App    4.590413    63App    4.624952  
      79Ap     4.669481    80Ap     4.719719    64App    5.036840  
      81Ap     5.044071    65App    5.054557    82Ap     5.135432  
      66App    5.269427    83Ap     5.296853    67App    5.358561  
      68App    5.436996    84Ap     5.506539  

    Final Occupation by Irrep:
             Ap   App 
    DOCC [    10,    5 ]

  @DF-RKS Final Energy:  -155.97633013776016

   => Energetics <=

    Nuclear Repulsion Energy =            109.1192927184597892
    One-Electron Energy =                -424.2126521717464698
    Two-Electron Energy =                 178.4916087565484020
    DFT Exchange-Correlation Energy =     -19.3745794410218792
    Empirical Dispersion Energy =           0.0000000000000000
    VV10 Nonlocal Energy =                  0.0000000000000000
    Total Energy =                       -155.9763301377601579

Computation Completed


Properties will be evaluated at   0.000000,   0.000000,   0.000000 [a0]

Properties computed using the SCF density matrix

  Nuclear Dipole Moment: [e a0]
     X:    -0.0002      Y:    -0.5619      Z:     0.0000

  Electronic Dipole Moment: [e a0]
     X:     0.0003      Y:     0.4015      Z:     0.0000

  Dipole Moment: [e a0]
     X:     0.0001      Y:    -0.1604      Z:     0.0000     Total:     0.1604

  Dipole Moment: [D]
     X:     0.0002      Y:    -0.4078      Z:     0.0000     Total:     0.4078


*** tstop() called on n051 at Mon Nov 15 16:06:08 2021
Module time:
	user time   =      78.13 seconds =       1.30 minutes
	system time =       1.23 seconds =       0.02 minutes
	total time  =         21 seconds =       0.35 minutes
Total time:
	user time   =      78.13 seconds =       1.30 minutes
	system time =       1.23 seconds =       0.02 minutes
	total time  =         21 seconds =       0.35 minutes
Grab this energy -155.97633013776016
    Psi4 stopped on: Monday, 15 November 2021 04:06PM
    Psi4 wall time for execution: 0:00:20.45

*** Psi4 exiting successfully. Buy a developer a beer!
