
 Primary working directories    : /tmp/1047041.754.gen4.q
 Secondary working directories  : /tmp/1047041.754.gen4.q
 Wavefunction directory         : /home/vulcan/mel64643/wfu/
 Main file repository           : /tmp/1047041.754.gen4.q/

 ARCHNAME  : Linux/x86_64
 FC        : /opt/intel/compilers_and_libraries_2016.1.150/linux/bin/intel64/ifort
 FCVERSION : 16.0.1
 BLASLIB   : -mkl
 id        : ccgc

 Nodes     nprocs
 n062         1
 ga_uses_ma=false, calling ma_init with nominal heap.
 GA-space will be limited to   8.0 MW (determined by -G option)

 Using customized tuning parameters: mindgm=10; mindgv=16; mindgc=4; mindgr=1; noblas=0; mincuda=1000; minvec=7
 default implementation of scratch files=df  

 ***,Optimization of ben_hcn
 memory,1000,m
 gthresh,energy=1.0d-12,orbital=1.0d-10,oneint=1.0d-16,twoint=1.0d-16,optgrad=1.0d-6,compress=1.0d-13
 geomtyp=xyz
 
 
 
 bohr
 geometry = {
  C   -1.8858923559    1.3695049604    2.2860958028
  C   -1.8587944189    2.6902239394   -0.0037717837
  C   -1.8762203481    1.3676411991   -2.2926423651
  C   -1.9207069420   -1.2754502544   -2.2915617560
  C   -1.9477911124   -2.5959865304   -0.0018246784
  C   -1.9303581274   -1.2736059592    2.2869540400
  H   -1.8665695834    2.3939450213    4.0593213969
  H   -1.8185730242    4.7428137643   -0.0045337922
  H   -1.8493055668    2.3881306938   -4.0622700737
  H   -1.9277628054   -2.3000917287   -4.0647309202
  H   -1.9756737704   -4.6487310702   -0.0010402685
  H   -1.9449130929   -2.2943358644    4.0565672428
  N    6.6328230158   -0.1991363660    0.0073970054
  C    4.4431055780   -0.0762818867    0.0102005523
  H    2.4134338010    0.0378836298    0.0129401115
 }
 
 basis=aug-cc-pvdz, H=cc-pvdz
 {rhf;maxit,200}
 {ccsd(t)}

 Variables initialized (661), CPU time= 0.00 sec
 Commands  initialized (458), CPU time= 0.00 sec, 486 directives.
 Default parameters read. Elapsed time= 0.05 sec

 Checking input...
 Passed
1


                                         ***  PROGRAM SYSTEM MOLPRO  ***
                         Copyright, University College Cardiff Consultants Limited, 2008

                                    Version 2010.1 linked May 16 2016 07:17:05


 **********************************************************************************************************************************
 LABEL *   Optimization of ben_hcn                                                       
 Linux-4.4.3/n062(x86_64) 64 bit mpp version                                             DATE: 08-Mar-24          TIME: 06:54:07  
 **********************************************************************************************************************************

 SHA1:             9e8077add272b0f3cad6f7df79ec5211205f459d
 **********************************************************************************************************************************

 THRESHOLDS:

 ZERO    =  1.00D-12  ONEINT  =  1.00D-16  TWOINT  =  1.00D-16  PREFAC  =  1.00D-14  LOCALI  =  1.00D-09  EORDER  =  1.00D-04
 ENERGY  =  1.00D-12  ETEST   =  0.00D+00  EDENS   =  0.00D+00  THRDEDEF=  1.00D-06  GRADIENT=  1.00D-02  STEP    =  1.00D-03
 ORBITAL =  1.00D-10  CIVEC   =  1.00D-05  COEFF   =  1.00D-04  PRINTCI =  5.00D-02  PUNCHCI =  9.90D+01  OPTGRAD =  1.00D-06
 OPTENERG=  1.00D-06  OPTSTEP =  3.00D-04  THRGRAD =  1.00D-10  COMPRESS=  1.00D-13  VARMIN  =  1.00D-07  VARMAX  =  1.00D-03
 THRDOUB =  0.00D+00  THRDIV  =  1.00D-05  THRRED  =  1.00D-07  THRPSP  =  1.00D+00  THRDC   =  1.00D-10  THRCS   =  1.00D-10
 THRNRM  =  1.00D-08  THREQ   =  0.00D+00  THRDE   =  1.00D+00  THRREF  =  1.00D-05  SPARFAC =  1.00D+00  THRDLP  =  1.00D-07
 THRDIA  =  1.00D-10  THRDLS  =  1.00D-07  THRGPS  =  0.00D+00  THRKEX  =  0.00D+00  THRDIS  =  2.00D-01  THRVAR  =  1.00D-10
 THRLOC  =  1.00D-06  THRGAP  =  1.00D-06  THRLOCT = -1.00D+00  THRGAPT = -1.00D+00  THRORB  =  1.00D-06  THRMLTP =  0.00D+00
 THRCPQCI=  1.00D-10  KEXTA   =  0.00D+00  THRCOARS=  0.00D+00  SYMTOL  =  1.00D-06  GRADTOL =  1.00D-06  THROVL  =  1.00D-08
 THRORTH =  1.00D-08  GRID    =  1.00D-06  GRIDMAX =  1.00D-03  DTMAX   =  0.00D+00

 SETTING GEOMTYP        =    XYZ
 ZUNIT=BOHR
 

 Variable memory set to 1000000000 words,  buffer space   230000 words

 SETTING BASIS          =    AUG-CC-PVDZ,H=CC-PVDZ


 Recomputing integrals since basis changed


 Using spherical harmonics

 Library entry C      S aug-cc-pVDZ          selected for orbital group  1
 Library entry C      P aug-cc-pVDZ          selected for orbital group  1
 Library entry C      D aug-cc-pVDZ          selected for orbital group  1
 Library entry H      S cc-pVDZ              selected for orbital group  2
 Library entry H      P cc-pVDZ              selected for orbital group  2
 Library entry N      S aug-cc-pVDZ          selected for orbital group  3
 Library entry N      P aug-cc-pVDZ          selected for orbital group  3
 Library entry N      D aug-cc-pVDZ          selected for orbital group  3

1PROGRAM * SEWARD (Integral evaluation for generally contracted gaussian basis sets)     Author: Roland Lindh, 1990

 Geometry written to block  1 of record 700


 Point group  C1  



 ATOMIC COORDINATES

 NR  ATOM    CHARGE       X              Y              Z

   1  C       6.00   -1.885892356    1.369504960    2.286095803
   2  C       6.00   -1.858794419    2.690223939   -0.003771784
   3  C       6.00   -1.876220348    1.367641199   -2.292642365
   4  C       6.00   -1.920706942   -1.275450254   -2.291561756
   5  C       6.00   -1.947791112   -2.595986530   -0.001824678
   6  C       6.00   -1.930358127   -1.273605959    2.286954040
   7  H       1.00   -1.866569583    2.393945021    4.059321397
   8  H       1.00   -1.818573024    4.742813764   -0.004533792
   9  H       1.00   -1.849305567    2.388130694   -4.062270074
  10  H       1.00   -1.927762805   -2.300091729   -4.064730920
  11  H       1.00   -1.975673770   -4.648731070   -0.001040268
  12  H       1.00   -1.944913093   -2.294335864    4.056567243
  13  N       7.00    6.632823016   -0.199136366    0.007397005
  14  C       6.00    4.443105578   -0.076281887    0.010200552
  15  H       1.00    2.413433801    0.037883630    0.012940112

 Bond lengths in Bohr (Angstrom)

 1-2  2.643582131  1-6  2.643485062  1-7  2.047969681  2-3  2.643569047  2-8  2.052984006
     ( 1.398923414)     ( 1.398872047)     ( 1.083738880)     ( 1.398916490)     ( 1.086392347)

  3- 4  2.643466031   3- 9  2.042964865   4- 5  2.643377668   4-10  2.047942582   5- 6  2.643388414
       ( 1.398861976)       ( 1.081090446)       ( 1.398815216)       ( 1.083724540)       ( 1.398820903)

  5-11  2.052934048   6-12  2.042946958  13-14  2.193162908  14-15  2.032881893
       ( 1.086365910)       ( 1.081080969)       ( 1.160571826)       ( 1.075754767)

 Bond angles

  1- 2- 3  119.99746549   1- 2- 8  120.00138039   1- 6- 5  120.00123548   1- 6-12  119.99777556

  2-1-6  119.99850417   2-1-7  119.99930035   2-3-4  119.99920944   2-3-9  119.99924850

  3- 2- 8  120.00090386   3- 4- 5  120.00130473   3- 4-10  119.99737973   4- 3- 9  120.00125658

  4- 5- 6  120.00228067   4- 5-11  119.99920626   5- 4-10  120.00098990   5- 6-12  120.00067071

  6- 1- 7  120.00192396   6- 5-11  119.99816150  13-14-15  179.99091355

 NUCLEAR CHARGE:                   56
 NUMBER OF PRIMITIVE AOS:         345
 NUMBER OF SYMMETRY AOS:          329
 NUMBER OF CONTRACTIONS:          219   ( 219A   )
 NUMBER OF CORE ORBITALS:           8   (   8A   )
 NUMBER OF VALENCE ORBITALS:       39   (  39A   )


 NUCLEAR REPULSION ENERGY  303.29394157


 Eigenvalues of metric

         1 0.864E-05 0.186E-04 0.229E-04 0.534E-04 0.630E-04 0.631E-04 0.929E-04 0.930E-04


 Contracted 2-electron integrals neglected if value below      1.0D-16
 AO integral compression algorithm  1   Integral accuracy      1.0D-16

     2339.111 MB (compressed) written to integral file ( 91.2%)

     Node minimum: 2339.111 MB, node maximum: 2339.111 MB


 NUMBER OF SORTED TWO-ELECTRON INTEGRALS:  290176095.     BUFFER LENGTH:  32768
 NUMBER OF SEGMENTS:  19  SEGMENT LENGTH:   15999762      RECORD LENGTH: 524288

 Memory used in sort:      16.56 MW

 SORT1 READ   320642736. AND WROTE   287581319. INTEGRALS IN    832 RECORDS. CPU TIME:     3.30 SEC, REAL TIME:     7.80 SEC
 SORT2 READ   287581319. AND WROTE   290176095. INTEGRALS IN   8923 RECORDS. CPU TIME:     1.94 SEC, REAL TIME:     3.01 SEC

 FILE SIZES:   FILE 1:  2150.2 MBYTE,  FILE 4:  3489.7 MBYTE,   TOTAL:   5639.9 MBYTE

 OPERATOR DM      FOR CENTER  0  COORDINATES:    0.000000    0.000000    0.000000


 **********************************************************************************************************************************
 DATASETS  * FILE   NREC   LENGTH (MB)   RECORD NAMES
              1      19     2150.78       500      610      700      900      950      970     1000      129      960     1100   
                                          VAR    BASINP    GEOM    SYMINP    ZMAT    AOBASIS   BASIS     P2S    ABASIS      S 
                                         1400     1410     1200     1210     1080     1600     1650     1300     1700   
                                           T        V       H0       H01     AOSYM     SMH    MOLCAS    ERIS     OPER   

 PROGRAMS   *        TOTAL       INT
 CPU TIMES  *        18.44     18.40
 REAL TIME  *        25.30 SEC
 DISK USED  *         7.98 GB      
 GA USED    *         0.01 MB       (max)       0.00 MB       (current)
 **********************************************************************************************************************************

1PROGRAM * RHF-SCF (CLOSED SHELL)       Authors: W. Meyer, H.-J. Werner


 NUMBER OF ELECTRONS:      28+   28-    SPACE SYMMETRY=1    SPIN SYMMETRY: Singlet 
 CONVERGENCE THRESHOLDS:    1.00E-10 (Density)    1.00E-13 (Energy)
 MAX. NUMBER OF ITERATIONS:      200
 INTERPOLATION TYPE:            DIIS
 INTERPOLATION STEPS:              2 (START)      1 (STEP)
 LEVEL SHIFTS:                  0.00 (CLOSED)  0.00 (OPEN) 



 Orbital guess generated from atomic densities. Full valence occupancy:   47

 Molecular orbital dump at record        2100.2

 ITERATION    DDIFF          GRAD             ENERGY        2-EL.EN.            DIPOLE MOMENTS         DIIS
    1      0.000D+00      0.000D+00      -323.54117165    821.928115   -1.90574    0.10279    0.00208    0
    2      0.000D+00      0.292D-02      -323.59761049    818.908593   -1.37143    0.04983   -0.00070    1
    3      0.782D-02      0.180D-02      -323.61438570    820.051865   -1.73386    0.07900    0.00058    2
    4      0.261D-02      0.575D-03      -323.61672021    820.256044   -1.64321    0.07182    0.00026    3
    5      0.963D-03      0.133D-03      -323.61684951    819.996063   -1.66712    0.07252    0.00024    4
    6      0.223D-03      0.229D-04      -323.61685566    820.022923   -1.66850    0.07248    0.00023    5
    7      0.845D-04      0.437D-05      -323.61685586    820.018040   -1.66885    0.07241    0.00022    6
    8      0.108D-04      0.124D-05      -323.61685588    820.019038   -1.66917    0.07247    0.00023    7
    9      0.346D-05      0.270D-06      -323.61685588    820.019071   -1.66913    0.07242    0.00022    6
   10      0.818D-06      0.721D-07      -323.61685588    820.019049   -1.66914    0.07245    0.00022    6
   11      0.186D-06      0.365D-07      -323.61685588    820.019065   -1.66914    0.07244    0.00022    7
   12      0.845D-07      0.711D-08      -323.61685588    820.019059   -1.66913    0.07244    0.00022    7
   13      0.239D-07      0.264D-08      -323.61685588    820.019062   -1.66913    0.07244    0.00022    7
   14      0.656D-08      0.798D-09      -323.61685588    820.019061   -1.66913    0.07244    0.00022    7
   15      0.218D-08      0.329D-09      -323.61685588    820.019061   -1.66913    0.07244    0.00022    8
   16      0.919D-09      0.138D-09      -323.61685588    820.019061   -1.66913    0.07244    0.00022    8
   17      0.407D-09      0.779D-10      -323.61685588    820.019061   -1.66913    0.07244    0.00022    8
   18      0.249D-09      0.368D-10      -323.61685588    820.019061   -1.66913    0.07244    0.00022    9
   19      0.282D-09      0.101D-10      -323.61685588    820.019061   -1.66913    0.07244    0.00022    8
   20      0.132D-09      0.304D-11      -323.61685588    820.019061   -1.66913    0.07244    0.00022    9
   21      0.102D-09      0.138D-11      -323.61685588    820.019061   -1.66913    0.07244    0.00022    9
   22      0.855D-10      0.712D-12      -323.61685588    820.019061   -1.66913    0.07244    0.00022    9
   23      0.919D-10      0.683D-12      -323.61685588    820.019061   -1.66913    0.07244    0.00022    9
   24      0.673D-10      0.666D-12      -323.61685588    820.019061   -1.66913    0.07244    0.00022    9
   25      0.358D-10      0.593D-12      -323.61685588    820.019061   -1.66913    0.07244    0.00022    9
   26      0.259D-10      0.468D-12      -323.61685588    820.019061   -1.66913    0.07244    0.00022    9
   27      0.179D-10      0.692D-12      -323.61685588    820.019061   -1.66913    0.07244    0.00022    9
   28      0.140D-10      0.518D-12      -323.61685588    820.019061   -1.66913    0.07244    0.00022    9
   29      0.129D-10      0.463D-12      -323.61685588    820.019061   -1.66913    0.07244    0.00022    9
   30      0.228D-10      0.424D-12      -323.61685588    820.019061   -1.66913    0.07244    0.00022    9
   31      0.172D-10      0.505D-12      -323.61685588    820.019061   -1.66913    0.07244    0.00022    9
   32      0.146D-10      0.447D-12      -323.61685588    820.019061   -1.66913    0.07244    0.00022    9
   33      0.151D-10      0.447D-12      -323.61685588    820.019061   -1.66913    0.07244    0.00022    0

 Final occupancy:  28

 !RHF STATE 1.1 Energy               -323.616855880833
 Nuclear energy                       303.29394157
 One-electron energy                -1036.92032807
 Two-electron energy                  410.00953061
 Virial quotient                       -1.00173471
 !RHF STATE 1.1 Dipole moment          -1.66913308     0.07244062     0.00022283
 Dipole moment /Debye                  -4.24223526     0.18411363     0.00056634

 Orbital energies:

         1.1          2.1          3.1          4.1          5.1          6.1          7.1          8.1          9.1         10.1
    -15.591542   -11.284166   -11.266336   -11.265896   -11.265621   -11.264703   -11.264405   -11.263953    -1.218251    -1.173972

        11.1         12.1         13.1         14.1         15.1         16.1         17.1         18.1         19.1         20.1
     -1.038020    -1.037659    -0.846087    -0.845452    -0.787901    -0.729403    -0.664931    -0.639243    -0.608975    -0.608238

        21.1         22.1         23.1         24.1         25.1         26.1         27.1         28.1         29.1         30.1
     -0.565071    -0.520388    -0.515192    -0.514612    -0.475589    -0.475584    -0.359728    -0.359714     0.055858     0.060046


 **********************************************************************************************************************************
 DATASETS  * FILE   NREC   LENGTH (MB)   RECORD NAMES
              1      19     2150.78       500      610      700      900      950      970     1000      129      960     1100   
                                          VAR    BASINP    GEOM    SYMINP    ZMAT    AOBASIS   BASIS     P2S    ABASIS      S 
                                         1400     1410     1200     1210     1080     1600     1650     1300     1700   
                                           T        V       H0       H01     AOSYM     SMH    MOLCAS    ERIS     OPER   

              2       3        1.49       700     1000     2100   
                                         GEOM     BASIS     RHF  

 PROGRAMS   *        TOTAL       RHF       INT
 CPU TIMES  *        93.42     74.98     18.40
 REAL TIME  *       107.87 SEC
 DISK USED  *         7.98 GB      
 GA USED    *         0.01 MB       (max)       0.00 MB       (current)
 **********************************************************************************************************************************


1PROGRAM * CCSD (Closed-shell coupled cluster)     Authors: C. Hampel, H.-J. Werner, 1991, M. Deegan, P.J. Knowles, 1992


 Convergence thresholds:  THRVAR = 1.00D-08  THRDEN = 1.00D-12

 CCSD(T)     terms to be evaluated (factor= 1.000)


 Number of core orbitals:           8 (   8 )
 Number of closed-shell orbitals:  20 (  20 )
 Number of external orbitals:     191 ( 191 )

 Molecular orbitals read from record     2100.2  Type=RHF/CANONICAL (state 1.1)

 Number of N-1 electron functions:              20
 Number of N-2 electron functions:             210
 Number of singly external CSFs:              3820
 Number of doubly external CSFs:           7298110
 Total number of CSFs:                     7301931

 Length of J-op  integral file:               0.00 MB
 Length of K-op  integral file:               3.32 MB
 Length of 3-ext integral record:             0.00 MB

 Memory could be reduced to 174.82 Mwords without degradation in triples

 Integral transformation finished. Total CPU:  19.18 sec, npass=  1  Memory used: 128.13 MW

 Reference energy:                   -323.61685588

 MP2 singlet pair energy:              -0.67340141
 MP2 triplet pair energy:              -0.43521290
 MP2 correlation energy:               -1.10861431
 MP2 total energy:                   -324.72547019

 SCS-MP2 correlation energy:           -1.07888083   (PS=  1.200000  PT=  0.333333)
 SCS-MP2 total energy:               -324.69573671

 ITER.      SQ.NORM     CORR.ENERGY   TOTAL ENERGY   ENERGY CHANGE        DEN1      VAR(S)    VAR(P)  DIIS     TIME
   1      1.42883716    -1.14470744  -324.76156332    -0.03609313    -0.00288895  0.51D-02  0.99D-02  1  1    71.33
   2      1.46318134    -1.15058622  -324.76744210    -0.00587878    -0.03104206  0.83D-04  0.13D-02  2  2   123.73
   3      1.47648923    -1.15103539  -324.76789127    -0.00044917    -0.00656603  0.41D-04  0.12D-03  3  3   176.18
   4      1.48218540    -1.15128520  -324.76814108    -0.00024981    -0.00178691  0.23D-05  0.15D-04  4  4   228.63
   5      1.48371675    -1.15132112  -324.76817700    -0.00003592    -0.00036633  0.26D-06  0.14D-05  5  5   281.22
   6      1.48402382    -1.15131256  -324.76816844     0.00000856    -0.00005050  0.24D-07  0.91D-07  6  6   333.84
   7      1.48405862    -1.15131596  -324.76817184    -0.00000340    -0.00000227  0.34D-08  0.80D-08  6  2   386.44
   8      1.48406331    -1.15131632  -324.76817220    -0.00000035    -0.00000042  0.41D-09  0.83D-09  6  1   439.05
   9      1.48406352    -1.15131649  -324.76817237    -0.00000017     0.00000079  0.62D-10  0.78D-10  6  3   491.57
  10      1.48406389    -1.15131654  -324.76817242    -0.00000006     0.00000002  0.99D-11  0.99D-11  6  4   544.05
  11      1.48406362    -1.15131658  -324.76817246    -0.00000004     0.00000022  0.16D-11  0.14D-11  6  5   596.59
  12      1.48406345    -1.15131659  -324.76817247    -0.00000001     0.00000008  0.25D-12  0.27D-12  6  6   649.12
  13      1.48406332    -1.15131660  -324.76817248    -0.00000000     0.00000005  0.14D-13  0.52D-13  6  2   701.65
  14      1.48406326    -1.15131660  -324.76817248    -0.00000000     0.00000002  0.22D-14  0.93D-14  6  1   754.18
  15      1.48406323    -1.15131660  -324.76817248     0.00000000     0.00000001  0.46D-15  0.13D-14  6  3   806.74
  16      1.48406322    -1.15131660  -324.76817248    -0.00000000     0.00000000  0.98D-16  0.19D-15  6  4   859.25
  17      1.48406322    -1.15131660  -324.76817248    -0.00000000     0.00000000  0.19D-16  0.28D-16  6  5   911.76
  18      1.48406321    -1.15131660  -324.76817248    -0.00000000     0.00000000  0.37D-17  0.36D-17  6  6   964.31
  19      1.48406321    -1.15131660  -324.76817248    -0.00000000     0.00000000  0.83D-18  0.61D-18  6  2  1016.82
  20      1.48406321    -1.15131660  -324.76817248    -0.00000000     0.00000000  0.18D-18  0.13D-18  6  1  1069.36
  21      1.48406321    -1.15131660  -324.76817248    -0.00000000     0.00000000  0.66D-19  0.40D-19  6  3  1121.94
  22      1.48406321    -1.15131660  -324.76817248     0.00000000     0.00000000  0.29D-19  0.16D-19  6  4  1174.46

 Norm of t1 vector:      0.09778267      S-energy:     0.00000000      T1 diagnostic:  0.01093243
                                                                       D1 diagnostic:  0.02771569

 Doubles amplitudes (print threshold =  0.500E-01):

         I         J         SYM. A    SYM. B    A         B      T(IJ, AB)

        19        19         1         1         7         7     -0.06208511
        20        20         1         1         8         8     -0.06205307


 Total CPU time for triples:   1082.48 sec


 RESULTS
 =======

  Reference energy                   -323.616855880833
  CCSD singlet pair energy             -0.770111600130
  CCSD triplet pair energy             -0.381204996881
  CCSD correlation energy              -1.151316597011

  Triples (T) contribution             -0.054027498604
  Total correlation energy             -1.205344095616

  CCSD total energy                  -324.768172477844
  CCSD[T] energy                     -324.823533296065
  CCSD-T energy                      -324.821594333126
 !CCSD(T) total energy               -324.822199976449

 Timing summary (sec):

 STEP                 CPU(USER)    SYS     CPU(TOT)    WALL
 Transformation         19.74      1.09     20.83     20.83
 CCSD iterations      1154.75     14.60   1169.35   1169.54
 Triples              1082.48     15.89   1098.37   1098.52

 Program statistics:

 Available memory in ccsd:               999998300
 Min. memory needed in ccsd:              17709720
 Max. memory used in ccsd:                24415330
 Max. memory used in cckext:              20754978 (22 integral passes)



 **********************************************************************************************************************************
 DATASETS  * FILE   NREC   LENGTH (MB)   RECORD NAMES
              1      20     2832.95       500      610      700      900      950      970     1000      129      960     1100   
                                          VAR    BASINP    GEOM    SYMINP    ZMAT    AOBASIS   BASIS     P2S    ABASIS      S 
                                         1400     1410     1200     1210     1080     1600     1650     1300     1700     1380   
                                           T        V       H0       H01     AOSYM     SMH    MOLCAS    ERIS     OPER     JKOP   

              2       3        1.49       700     1000     2100   
                                         GEOM     BASIS     RHF  

 PROGRAMS   *        TOTAL   CCSD(T)       RHF       INT
 CPU TIMES  *      2350.39   2256.97     74.98     18.40
 REAL TIME  *      2396.90 SEC
 DISK USED  *         7.98 GB      
 GA USED    *         0.01 MB       (max)       0.00 MB       (current)
 **********************************************************************************************************************************

        CCSD(T)         RHF-SCF 
   -324.82219998   -323.61685588
 **********************************************************************************************************************************
 Variable memory released
