
 Primary working directories    : /tmp/943217.305.gen6.q
 Secondary working directories  : /tmp/943217.305.gen6.q
 Wavefunction directory         : /home/vulcan/mel64643/wfu/
 Main file repository           : /tmp/943217.305.gen6.q/

 ARCHNAME  : Linux/x86_64
 FC        : /opt/intel/compilers_and_libraries_2016.1.150/linux/bin/intel64/ifort
 FCVERSION : 16.0.1
 BLASLIB   : -mkl
 id        : ccgc

 Nodes     nprocs
 n092         1
 ga_uses_ma=false, calling ma_init with nominal heap.
 GA-space will be limited to   8.0 MW (determined by -G option)

 Using customized tuning parameters: mindgm=10; mindgv=16; mindgc=4; mindgr=1; noblas=0; mincuda=1000; minvec=7
 default implementation of scratch files=df  

 ***,Optimization of formic acid
 memory,1000,m
 gthresh,energy=1.0d-12,orbital=1.0d-10,oneint=1.0d-16,twoint=1.0d-16,optgrad=1.0d-6,compress=1.0d-13
 geomtyp=xyz
 
 bohr
 geometry = {
  C   -3.5020836313   -0.8276287901   -0.0000000000
  O   -3.1013621621    1.6267369938   -0.0000000000
  O   -1.8831397461   -2.4744290284   -0.0000000000
  H   -5.5134158453   -1.2732676980   -0.0000000000
  H   -1.2476231464    1.9491711651    0.0000000000
  C    3.4993221730    0.8270169502   -0.0000000000
  O    3.0986007038   -1.6273488337   -0.0000000000
  O    1.8803782878    2.4738171884    0.0000000000
  H    5.5244616785    1.2757150577   -0.0000000000
  H    1.2448616881   -1.9497830050    0.0000000000
 }
 
 basis=VDZ
 {rhf;maxit,200}
 {ccsd(t);maxit,200}

 Variables initialized (661), CPU time= 0.01 sec
 Commands  initialized (458), CPU time= 0.00 sec, 486 directives.
 Default parameters read. Elapsed time= 0.04 sec

 Checking input...
 Passed
1


                                         ***  PROGRAM SYSTEM MOLPRO  ***
                         Copyright, University College Cardiff Consultants Limited, 2008

                                    Version 2010.1 linked May 16 2016 07:17:05


 **********************************************************************************************************************************
 LABEL *   Optimization of formic acid                                                   
 Linux-4.4.3/n092(x86_64) 64 bit mpp version                                             DATE: 24-Oct-23          TIME: 11:21:19  
 **********************************************************************************************************************************

 SHA1:             9e8077add272b0f3cad6f7df79ec5211205f459d
 **********************************************************************************************************************************

 THRESHOLDS:

 ZERO    =  1.00D-12  ONEINT  =  1.00D-16  TWOINT  =  1.00D-16  PREFAC  =  1.00D-14  LOCALI  =  1.00D-09  EORDER  =  1.00D-04
 ENERGY  =  1.00D-12  ETEST   =  0.00D+00  EDENS   =  0.00D+00  THRDEDEF=  1.00D-06  GRADIENT=  1.00D-02  STEP    =  1.00D-03
 ORBITAL =  1.00D-10  CIVEC   =  1.00D-05  COEFF   =  1.00D-04  PRINTCI =  5.00D-02  PUNCHCI =  9.90D+01  OPTGRAD =  1.00D-06
 OPTENERG=  1.00D-06  OPTSTEP =  3.00D-04  THRGRAD =  1.00D-10  COMPRESS=  1.00D-13  VARMIN  =  1.00D-07  VARMAX  =  1.00D-03
 THRDOUB =  0.00D+00  THRDIV  =  1.00D-05  THRRED  =  1.00D-07  THRPSP  =  1.00D+00  THRDC   =  1.00D-10  THRCS   =  1.00D-10
 THRNRM  =  1.00D-08  THREQ   =  0.00D+00  THRDE   =  1.00D+00  THRREF  =  1.00D-05  SPARFAC =  1.00D+00  THRDLP  =  1.00D-07
 THRDIA  =  1.00D-10  THRDLS  =  1.00D-07  THRGPS  =  0.00D+00  THRKEX  =  0.00D+00  THRDIS  =  2.00D-01  THRVAR  =  1.00D-10
 THRLOC  =  1.00D-06  THRGAP  =  1.00D-06  THRLOCT = -1.00D+00  THRGAPT = -1.00D+00  THRORB  =  1.00D-06  THRMLTP =  0.00D+00
 THRCPQCI=  1.00D-10  KEXTA   =  0.00D+00  THRCOARS=  0.00D+00  SYMTOL  =  1.00D-06  GRADTOL =  1.00D-06  THROVL  =  1.00D-08
 THRORTH =  1.00D-08  GRID    =  1.00D-06  GRIDMAX =  1.00D-03  DTMAX   =  0.00D+00

 SETTING GEOMTYP        =    XYZ
 ZUNIT=BOHR
 

 Variable memory set to 1000000000 words,  buffer space   230000 words

 SETTING BASIS          =    VDZ


 Recomputing integrals since basis changed


 Using spherical harmonics

 Library entry C      S cc-pVDZ              selected for orbital group  1
 Library entry C      P cc-pVDZ              selected for orbital group  1
 Library entry C      D cc-pVDZ              selected for orbital group  1
 Library entry O      S cc-pVDZ              selected for orbital group  2
 Library entry O      P cc-pVDZ              selected for orbital group  2
 Library entry O      D cc-pVDZ              selected for orbital group  2
 Library entry H      S cc-pVDZ              selected for orbital group  3
 Library entry H      P cc-pVDZ              selected for orbital group  3

1PROGRAM * SEWARD (Integral evaluation for generally contracted gaussian basis sets)     Author: Roland Lindh, 1990

 Geometry written to block  1 of record 700


 Point group  Cs  



 ATOMIC COORDINATES

 NR  ATOM    CHARGE       X              Y              Z

   1  C       6.00   -3.502083631   -0.827628790    0.000000000
   2  O       8.00   -3.101362162    1.626736994    0.000000000
   3  O       8.00   -1.883139746   -2.474429028    0.000000000
   4  H       1.00   -5.513415845   -1.273267698    0.000000000
   5  H       1.00   -1.247623146    1.949171165    0.000000000
   6  C       6.00    3.499322173    0.827016950    0.000000000
   7  O       8.00    3.098600704   -1.627348834    0.000000000
   8  O       8.00    1.880378288    2.473817188    0.000000000
   9  H       1.00    5.524461678    1.275715058    0.000000000
  10  H       1.00    1.244861688   -1.949783005    0.000000000

 Bond lengths in Bohr (Angstrom)

 1-2  2.486863305  1-3  2.309313822  1-4  2.060109539  2-5  1.881571719  6-7  2.486863305
     ( 1.315991383)     ( 1.222036243)     ( 1.090163016)     ( 0.995684871)     ( 1.315991383)

  6- 8  2.309313822   6- 9  2.074251674   7-10  1.881571719
       ( 1.222036243)       ( 1.097646712)       ( 0.995684871)

 Bond angles

  1-2-5  109.13994962   2-1-3  126.21591402   2-1-4  111.76566607   3-1-4  122.01841991

  6- 7-10  109.13994962   7- 6- 8  126.21591402   7- 6- 9  111.76566607   8- 6- 9  122.01841991

 NUCLEAR CHARGE:                   48
 NUMBER OF PRIMITIVE AOS:         190
 NUMBER OF SYMMETRY AOS:          184
 NUMBER OF CONTRACTIONS:          104   (  76A'  +  28A"  )
 NUMBER OF CORE ORBITALS:           6   (   6A'  +   0A"  )
 NUMBER OF VALENCE ORBITALS:       28   (  22A'  +   6A"  )


 NUCLEAR REPULSION ENERGY  235.55895432


 Eigenvalues of metric

         1 0.817E-02 0.871E-02 0.138E-01 0.140E-01 0.165E-01 0.167E-01 0.298E-01 0.306E-01
         2 0.115E+00 0.116E+00 0.174E+00 0.175E+00 0.191E+00 0.194E+00 0.419E+00 0.421E+00


 Contracted 2-electron integrals neglected if value below      1.0D-16
 AO integral compression algorithm  1   Integral accuracy      1.0D-16

     61.604 MB (compressed) written to integral file ( 88.6%)

     Node minimum: 61.604 MB, node maximum: 61.604 MB


 NUMBER OF SORTED TWO-ELECTRON INTEGRALS:    7928690.     BUFFER LENGTH:  32768
 NUMBER OF SEGMENTS:   1  SEGMENT LENGTH:    7928690      RECORD LENGTH: 524288

 Memory used in sort:       8.49 MW

 SORT1 READ     8707281. AND WROTE     7786006. INTEGRALS IN     23 RECORDS. CPU TIME:     0.09 SEC, REAL TIME:     0.15 SEC
 SORT2 READ     7786006. AND WROTE     7928690. INTEGRALS IN    235 RECORDS. CPU TIME:     0.10 SEC, REAL TIME:     0.13 SEC

 FILE SIZES:   FILE 1:    59.0 MBYTE,  FILE 4:    96.5 MBYTE,   TOTAL:    155.5 MBYTE

 OPERATOR DM      FOR CENTER  0  COORDINATES:    0.000000    0.000000    0.000000


 **********************************************************************************************************************************
 DATASETS  * FILE   NREC   LENGTH (MB)   RECORD NAMES
              1      19       59.10       500      610      700      900      950      970     1000      129      960     1100   
                                          VAR    BASINP    GEOM    SYMINP    ZMAT    AOBASIS   BASIS     P2S    ABASIS      S 
                                         1400     1410     1200     1210     1080     1600     1650     1300     1700   
                                           T        V       H0       H01     AOSYM     SMH    MOLCAS    ERIS     OPER   

 PROGRAMS   *        TOTAL       INT
 CPU TIMES  *         1.55      1.51
 REAL TIME  *         1.86 SEC
 DISK USED  *       217.92 MB      
 GA USED    *         0.00 MB       (max)       0.00 MB       (current)
 **********************************************************************************************************************************

1PROGRAM * RHF-SCF (CLOSED SHELL)       Authors: W. Meyer, H.-J. Werner


 NUMBER OF ELECTRONS:      24+   24-
 CONVERGENCE THRESHOLDS:    1.00E-10 (Density)    1.00E-13 (Energy)
 MAX. NUMBER OF ITERATIONS:      200
 INTERPOLATION TYPE:            DIIS
 INTERPOLATION STEPS:              2 (START)      1 (STEP)
 LEVEL SHIFTS:                  0.00 (CLOSED)  0.00 (OPEN) 



 Orbital guess generated from atomic densities. Full valence occupancy:   28   6

 Molecular orbital dump at record        2100.2

 Initial alpha occupancy:  20   4
 Initial beta  occupancy:  20   4
 Wave function symmetry:    1

 ITERATION    DDIFF          GRAD             ENERGY        2-EL.EN.            DIPOLE MOMENTS         DIIS
    1      0.000D+00      0.000D+00      -377.44976308    747.101395   -0.00021    0.00001    0.00000    0
    2      0.000D+00      0.141D-01      -377.53756500    744.259894   -0.00169    0.00004    0.00000    1
    3      0.279D-01      0.876D-02      -377.58420387    746.508711   -0.00126   -0.00039    0.00000    2
    4      0.101D-01      0.124D-02      -377.58569492    746.227035   -0.00164   -0.00028    0.00000    3
    5      0.198D-02      0.515D-03      -377.58595572    746.253555   -0.00162   -0.00039    0.00000    4
    6      0.816D-03      0.148D-03      -377.58600200    746.297778   -0.00164   -0.00037    0.00000    5
    7      0.283D-03      0.675D-04      -377.58601338    746.282594   -0.00164   -0.00039    0.00000    6
    8      0.169D-03      0.200D-04      -377.58601438    746.287792   -0.00164   -0.00038    0.00000    7
    9      0.527D-04      0.678D-05      -377.58601449    746.286343   -0.00164   -0.00039    0.00000    8
   10      0.183D-04      0.186D-05      -377.58601449    746.286511   -0.00164   -0.00038    0.00000    7
   11      0.517D-05      0.454D-06      -377.58601449    746.286457   -0.00164   -0.00039    0.00000    8
   12      0.120D-05      0.132D-06      -377.58601449    746.286478   -0.00164   -0.00039    0.00000    7
   13      0.330D-06      0.536D-07      -377.58601449    746.286466   -0.00164   -0.00039    0.00000    8
   14      0.957D-07      0.157D-07      -377.58601449    746.286468   -0.00164   -0.00039    0.00000    8
   15      0.357D-07      0.600D-08      -377.58601449    746.286469   -0.00164   -0.00039    0.00000    8
   16      0.103D-07      0.153D-08      -377.58601449    746.286468   -0.00164   -0.00039    0.00000    8
   17      0.256D-08      0.402D-09      -377.58601449    746.286468   -0.00164   -0.00039    0.00000    8
   18      0.790D-09      0.154D-09      -377.58601449    746.286468   -0.00164   -0.00039    0.00000    8
   19      0.262D-09      0.597D-10      -377.58601449    746.286468   -0.00164   -0.00039    0.00000    8
   20      0.111D-09      0.237D-10      -377.58601449    746.286468   -0.00164   -0.00039    0.00000    8
   21      0.477D-10      0.609D-11      -377.58601449    746.286468   -0.00164   -0.00039    0.00000    8
   22      0.158D-10      0.150D-11      -377.58601449    746.286468   -0.00164   -0.00039    0.00000    8
   23      0.385D-11      0.618D-12      -377.58601449    746.286468   -0.00164   -0.00039    0.00000    8
   24      0.156D-11      0.172D-12      -377.58601449    746.286468   -0.00164   -0.00039    0.00000    8
   25      0.328D-12      0.659D-13      -377.58601449    746.286468   -0.00164   -0.00039    0.00000    8
   26      0.162D-12      0.346D-13      -377.58601449    746.286468   -0.00164   -0.00039    0.00000    8
   27      0.762D-13      0.146D-13      -377.58601449    746.286468   -0.00164   -0.00039    0.00000    0

 Final occupancy:  20   4

 !RHF STATE 1.1 Energy               -377.586014494111
 Nuclear energy                       235.55895432
 One-electron energy                 -986.28820293
 Two-electron energy                  373.14323411
 Virial quotient                       -1.00122444
 !RHF STATE 1.1 Dipole moment          -0.00163982    -0.00038661     0.00000000
 Dipole moment /Debye                  -0.00416773    -0.00098259     0.00000000

 Orbital energies:

         1.1          2.1          3.1          4.1          5.1          6.1          7.1          8.1          9.1         10.1
    -20.614046   -20.613963   -20.575609   -20.575507   -11.412359   -11.411685    -1.482331    -1.469615    -1.383689    -1.369736

        11.1         12.1         13.1         14.1         15.1         16.1         17.1         18.1         19.1         20.1
     -0.914154    -0.878177    -0.763151    -0.728090    -0.719403    -0.688643    -0.615545    -0.573992    -0.489720    -0.467707

        21.1         22.1
      0.204218     0.209795

         1.2          2.2          3.2          4.2          5.2          6.2
     -0.638514    -0.628938    -0.498461    -0.487830     0.160908     0.165933


 **********************************************************************************************************************************
 DATASETS  * FILE   NREC   LENGTH (MB)   RECORD NAMES
              1      19       59.10       500      610      700      900      950      970     1000      129      960     1100   
                                          VAR    BASINP    GEOM    SYMINP    ZMAT    AOBASIS   BASIS     P2S    ABASIS      S 
                                         1400     1410     1200     1210     1080     1600     1650     1300     1700   
                                           T        V       H0       H01     AOSYM     SMH    MOLCAS    ERIS     OPER   

              2       3        0.56       700     1000     2100   
                                         GEOM     BASIS     RHF  

 PROGRAMS   *        TOTAL       RHF       INT
 CPU TIMES  *         2.72      1.17      1.51
 REAL TIME  *         3.19 SEC
 DISK USED  *       217.92 MB      
 GA USED    *         0.00 MB       (max)       0.00 MB       (current)
 **********************************************************************************************************************************


1PROGRAM * CCSD (Closed-shell coupled cluster)     Authors: C. Hampel, H.-J. Werner, 1991, M. Deegan, P.J. Knowles, 1992


 Convergence thresholds:  THRVAR = 1.00D-08  THRDEN = 1.00D-12

 CCSD(T)     terms to be evaluated (factor= 1.000)


 Number of core orbitals:           6 (   6   0 )
 Number of closed-shell orbitals:  18 (  14   4 )
 Number of external orbitals:      80 (  56  24 )

 Molecular orbitals read from record     2100.2  Type=RHF/CANONICAL (state 1.1)

 Number of N-1 electron functions:              18
 Number of N-2 electron functions:             171
 Number of singly external CSFs:               880
 Number of doubly external CSFs:            544720
 Total number of CSFs:                      545601

 Length of J-op  integral file:               0.00 MB
 Length of K-op  integral file:               0.49 MB
 Length of 3-ext integral record:             0.00 MB

 Memory could be reduced to 7.20 Mwords without degradation in triples

 Integral transformation finished. Total CPU:   0.26 sec, npass=  1  Memory used:   4.51 MW

 Reference energy:                   -377.58601449

 MP2 singlet pair energy:              -0.59910553
 MP2 triplet pair energy:              -0.40695160
 MP2 correlation energy:               -1.00605713
 MP2 total energy:                   -378.59207162

 SCS-MP2 correlation energy:           -0.97214097   (PS=  1.200000  PT=  0.333333)
 SCS-MP2 total energy:               -378.55815546

 ITER.      SQ.NORM     CORR.ENERGY   TOTAL ENERGY   ENERGY CHANGE        DEN1      VAR(S)    VAR(P)  DIIS     TIME
   1      1.28161263    -1.02628547  -378.61229997    -0.02022834     0.01053160  0.10D-01  0.55D-02  1  1     1.11
   2      1.30528398    -1.02816570  -378.61418020    -0.00188023    -0.02505653  0.25D-03  0.10D-02  2  2     1.98
   3      1.31831110    -1.02911498  -378.61512947    -0.00094927    -0.00595528  0.20D-03  0.42D-04  3  3     2.84
   4      1.32365431    -1.02888163  -378.61489613     0.00023334    -0.00175150  0.18D-04  0.71D-05  4  4     3.72
   5      1.32571923    -1.02879200  -378.61480650     0.00008963    -0.00045844  0.11D-05  0.68D-06  5  5     4.58
   6      1.32606290    -1.02877158  -378.61478608     0.00002042    -0.00001561  0.10D-06  0.60D-07  6  6     5.45
   7      1.32613166    -1.02876397  -378.61477846     0.00000762    -0.00000448  0.79D-08  0.88D-08  6  2     6.32
   8      1.32613489    -1.02876482  -378.61477931    -0.00000085     0.00000208  0.16D-08  0.89D-09  6  1     7.20
   9      1.32613567    -1.02876449  -378.61477898     0.00000033     0.00000091  0.33D-09  0.16D-09  6  4     8.06
  10      1.32613748    -1.02876434  -378.61477883     0.00000015    -0.00000062  0.93D-10  0.26D-10  6  3     8.93
  11      1.32613697    -1.02876446  -378.61477895    -0.00000012     0.00000025  0.21D-10  0.54D-11  6  5     9.80
  12      1.32613662    -1.02876448  -378.61477897    -0.00000001     0.00000005  0.27D-11  0.11D-11  6  6    10.68
  13      1.32613629    -1.02876452  -378.61477901    -0.00000004     0.00000013  0.30D-12  0.21D-12  6  1    11.56
  14      1.32613618    -1.02876452  -378.61477902    -0.00000000     0.00000002  0.28D-13  0.23D-13  6  2    12.43
  15      1.32613615    -1.02876452  -378.61477902    -0.00000000     0.00000001  0.58D-14  0.28D-14  6  4    13.30
  16      1.32613613    -1.02876452  -378.61477902    -0.00000000     0.00000000  0.83D-15  0.59D-15  6  5    14.18
  17      1.32613613    -1.02876453  -378.61477902    -0.00000000    -0.00000000  0.92D-16  0.52D-16  6  3    15.05
  18      1.32613613    -1.02876453  -378.61477902    -0.00000000     0.00000000  0.26D-16  0.13D-16  6  5    15.93
  19      1.32613613    -1.02876453  -378.61477902    -0.00000000     0.00000000  0.36D-17  0.17D-17  6  6    16.81
  20      1.32613613    -1.02876453  -378.61477902     0.00000000     0.00000000  0.62D-18  0.29D-18  6  1    17.68
  21      1.32613613    -1.02876453  -378.61477902    -0.00000000     0.00000000  0.15D-18  0.47D-19  6  2    18.55
  22      1.32613613    -1.02876453  -378.61477902     0.00000000    -0.00000000  0.13D-19  0.62D-20  6  5    19.42
  23      1.32613613    -1.02876453  -378.61477902     0.00000000    -0.00000000  0.14D-20  0.60D-21  6  4    20.30
  24      1.32613613    -1.02876453  -378.61477902    -0.00000000     0.00000000  0.49D-21  0.18D-21  6  5    21.17
  25      1.32613613    -1.02876453  -378.61477902     0.00000000    -0.00000000  0.43D-22  0.20D-22  6  3    22.05

 Norm of t1 vector:      0.15249058      S-energy:     0.00000000      T1 diagnostic:  0.01797119
                                                                       D1 diagnostic:  0.06497907

 Singles amplitudes (print threshold =  0.500E-01):

         I         SYM. A    A   T(IA)

        15         2         1      0.05945234
        16         2         2      0.06128556


 Total CPU time for triples:     10.22 sec


 RESULTS
 =======

  Reference energy                   -377.586014494111
  CCSD singlet pair energy             -0.670923370970
  CCSD triplet pair energy             -0.357841154240
  CCSD correlation energy              -1.028764525209

  Triples (T) contribution             -0.031918670097
  Total correlation energy             -1.060683195306

  CCSD total energy                  -378.614779019321
  CCSD[T] energy                     -378.649982828342
  CCSD-T energy                      -378.645617762745
 !CCSD(T) total energy               -378.646697689418

 Timing summary (sec):

 STEP                 CPU(USER)    SYS     CPU(TOT)    WALL
 Transformation          0.28      0.05      0.33      0.32
 CCSD iterations        21.77      0.79     22.56     22.61
 Triples                10.22      0.29     10.51     10.52

 Program statistics:

 Available memory in ccsd:               999998604
 Min. memory needed in ccsd:               1529844
 Max. memory used in ccsd:                 2011076
 Max. memory used in cckext:               2263698 (25 integral passes)



 **********************************************************************************************************************************
 DATASETS  * FILE   NREC   LENGTH (MB)   RECORD NAMES
              1      20       91.00       500      610      700      900      950      970     1000      129      960     1100   
                                          VAR    BASINP    GEOM    SYMINP    ZMAT    AOBASIS   BASIS     P2S    ABASIS      S 
                                         1400     1410     1200     1210     1080     1600     1650     1300     1700     1380   
                                           T        V       H0       H01     AOSYM     SMH    MOLCAS    ERIS     OPER     JKOP   

              2       3        0.56       700     1000     2100   
                                         GEOM     BASIS     RHF  

 PROGRAMS   *        TOTAL   CCSD(T)       RHF       INT
 CPU TIMES  *        35.00     32.28      1.17      1.51
 REAL TIME  *        36.68 SEC
 DISK USED  *       250.53 MB      
 GA USED    *         0.00 MB       (max)       0.00 MB       (current)
 **********************************************************************************************************************************

        CCSD(T)         RHF-SCF 
   -378.64669769   -377.58601449
 **********************************************************************************************************************************
 Variable memory released
