
 Primary working directories    : /tmp/1065196.451.gen4.q
 Secondary working directories  : /tmp/1065196.451.gen4.q
 Wavefunction directory         : /home/vulcan/jj04645/wfu/
 Main file repository           : /tmp/1065196.451.gen4.q/

 ARCHNAME  : Linux/x86_64
 FC        : /opt/intel/compilers_and_libraries_2016.1.150/linux/bin/intel64/ifort
 FCVERSION : 16.0.1
 BLASLIB   : -mkl
 id        : ccgc

 Nodes     nprocs
 n066         1
 ga_uses_ma=false, calling ma_init with nominal heap.
 GA-space will be limited to   8.0 MW (determined by -G option)

 Using customized tuning parameters: mindgm=10; mindgv=16; mindgc=4; mindgr=1; noblas=0; mincuda=1000; minvec=7
 default implementation of scratch files=df  

 ***,Optimization of t-butanol
 memory,1000,m
 gthresh,energy=1.0d-12,orbital=1.0d-10,oneint=1.0d-16,twoint=1.0d-16,optgrad=1.0d-6,compress=1.0d-13
 geomtyp=xyz
 
 bohr
 geometry = {
  C    0.0053964218   -0.0579287559    0.0001398412
  O   -0.0229933804    2.6548250382   -0.0007521871
  C   -2.7669470777   -0.8339962937    0.0004048822
  C    1.3373989013   -1.0176218786   -2.3769054821
  C    1.3374157427   -1.0160582218    2.3778064326
  H    1.7093763749    3.2100448423   -0.0009409154
  H   -2.9434964159   -2.8820075437    0.0010790292
  H   -3.7120462567   -0.0832198867   -1.6772688353
  H   -3.7120342074   -0.0821167282    1.6775912791
  H    1.3148378233   -3.0753306749   -2.4579413803
  H    3.3140002159   -0.3995605085   -2.3996154493
  H    0.4014117768   -0.2738911287   -4.0613138860
  H    1.3147287455   -3.0852503410    2.4606578404
  H    3.3085071509   -0.3997050294    2.4000337434
  H    0.4040567463   -0.2733016884    4.0570250874
 }
 
 basis=VDZ
 {rhf;maxit,200}
 {ccsd(t);maxit,200}

 Variables initialized (661), CPU time= 0.01 sec
 Commands  initialized (458), CPU time= 0.00 sec, 486 directives.
 Default parameters read. Elapsed time= 0.05 sec

 Checking input...
 Passed
1


                                         ***  PROGRAM SYSTEM MOLPRO  ***
                         Copyright, University College Cardiff Consultants Limited, 2008

                                    Version 2010.1 linked May 16 2016 07:17:05


 **********************************************************************************************************************************
 LABEL *   Optimization of t-butanol                                                     
 Linux-4.4.3/n066(x86_64) 64 bit mpp version                                             DATE: 20-May-24          TIME: 11:58:50  
 **********************************************************************************************************************************

 SHA1:             9e8077add272b0f3cad6f7df79ec5211205f459d
 **********************************************************************************************************************************

 THRESHOLDS:

 ZERO    =  1.00D-12  ONEINT  =  1.00D-16  TWOINT  =  1.00D-16  PREFAC  =  1.00D-14  LOCALI  =  1.00D-09  EORDER  =  1.00D-04
 ENERGY  =  1.00D-12  ETEST   =  0.00D+00  EDENS   =  0.00D+00  THRDEDEF=  1.00D-06  GRADIENT=  1.00D-02  STEP    =  1.00D-03
 ORBITAL =  1.00D-10  CIVEC   =  1.00D-05  COEFF   =  1.00D-04  PRINTCI =  5.00D-02  PUNCHCI =  9.90D+01  OPTGRAD =  1.00D-06
 OPTENERG=  1.00D-06  OPTSTEP =  3.00D-04  THRGRAD =  1.00D-10  COMPRESS=  1.00D-13  VARMIN  =  1.00D-07  VARMAX  =  1.00D-03
 THRDOUB =  0.00D+00  THRDIV  =  1.00D-05  THRRED  =  1.00D-07  THRPSP  =  1.00D+00  THRDC   =  1.00D-10  THRCS   =  1.00D-10
 THRNRM  =  1.00D-08  THREQ   =  0.00D+00  THRDE   =  1.00D+00  THRREF  =  1.00D-05  SPARFAC =  1.00D+00  THRDLP  =  1.00D-07
 THRDIA  =  1.00D-10  THRDLS  =  1.00D-07  THRGPS  =  0.00D+00  THRKEX  =  0.00D+00  THRDIS  =  2.00D-01  THRVAR  =  1.00D-10
 THRLOC  =  1.00D-06  THRGAP  =  1.00D-06  THRLOCT = -1.00D+00  THRGAPT = -1.00D+00  THRORB  =  1.00D-06  THRMLTP =  0.00D+00
 THRCPQCI=  1.00D-10  KEXTA   =  0.00D+00  THRCOARS=  0.00D+00  SYMTOL  =  1.00D-06  GRADTOL =  1.00D-06  THROVL  =  1.00D-08
 THRORTH =  1.00D-08  GRID    =  1.00D-06  GRIDMAX =  1.00D-03  DTMAX   =  0.00D+00

 SETTING GEOMTYP        =    XYZ
 ZUNIT=BOHR
 

 Variable memory set to 1000000000 words,  buffer space   230000 words

 SETTING BASIS          =    VDZ


 Recomputing integrals since basis changed


 Using spherical harmonics

 Library entry C      S cc-pVDZ              selected for orbital group  1
 Library entry C      P cc-pVDZ              selected for orbital group  1
 Library entry C      D cc-pVDZ              selected for orbital group  1
 Library entry O      S cc-pVDZ              selected for orbital group  2
 Library entry O      P cc-pVDZ              selected for orbital group  2
 Library entry O      D cc-pVDZ              selected for orbital group  2
 Library entry H      S cc-pVDZ              selected for orbital group  4
 Library entry H      P cc-pVDZ              selected for orbital group  4

1PROGRAM * SEWARD (Integral evaluation for generally contracted gaussian basis sets)     Author: Roland Lindh, 1990

 Geometry written to block  1 of record 700


 Point group  C1  



 ATOMIC COORDINATES

 NR  ATOM    CHARGE       X              Y              Z

   1  C       6.00    0.005396422   -0.057928756    0.000139841
   2  O       8.00   -0.022993380    2.654825038   -0.000752187
   3  C       6.00   -2.766947078   -0.833996294    0.000404882
   4  C       6.00    1.337398901   -1.017621879   -2.376905482
   5  C       6.00    1.337415743   -1.016058222    2.377806433
   6  H       1.00    1.709376375    3.210044842   -0.000940915
   7  H       1.00   -2.943496416   -2.882007544    0.001079029
   8  H       1.00   -3.712046257   -0.083219887   -1.677268835
   9  H       1.00   -3.712034207   -0.082116728    1.677591279
  10  H       1.00    1.314837823   -3.075330675   -2.457941380
  11  H       1.00    3.314000216   -0.399560509   -2.399615449
  12  H       1.00    0.401411777   -0.273891129   -4.061313886
  13  H       1.00    1.314728746   -3.085250341    2.460657840
  14  H       1.00    3.308507151   -0.399705029    2.400033743
  15  H       1.00    0.404056746   -0.273301688    4.057025087

 Bond lengths in Bohr (Angstrom)

 1-2  2.712902491  1-3  2.878918091  1-4  2.888872784  1-5  2.888872784  2-6  1.819168501
     ( 1.435606168)     ( 1.523457840)     ( 1.528725637)     ( 1.528725637)     ( 0.962662510)

  3- 7  2.055607016   3- 8  2.066752712   3- 9  2.066752712   4-10  2.059427423   4-11  2.071103174
       ( 1.087780383)       ( 1.093678432)       ( 1.093678432)       ( 1.089802056)       ( 1.095980597)

  4-12  2.065536007   5-13  2.070974428   5-14  2.065329671   5-15  2.059762504
       ( 1.093034579)       ( 1.095912468)       ( 1.092925391)       ( 1.089979373)

 Bond angles

  1-2-6  107.17091859   1-3-7  110.56564854   1-3-8  110.02067919   1-3-9  110.02067555

  1- 4-10  111.05427787   1- 4-11  110.48289352   1- 4-12  110.02622489   1- 5-13  111.05427788

  1- 5-14  110.48289357   1- 5-15  110.02622482   2- 1- 3  105.03903602   2- 1- 4  109.67835923

  2-1-5  109.67835923   3-1-4  110.76498583   3-1-5  110.76498583   4-1-5  110.75948302

  7- 3- 8  108.83917076   7- 3- 9  108.83916705   8- 3- 9  108.51019472  10- 4-11  107.95054610

 10- 4-12  108.82712337  11- 4-12  108.42572226  13- 5-14  107.95054623  13- 5-15  108.82712326

 14- 5-15  108.42572224

 NUCLEAR CHARGE:                   42
 NUMBER OF PRIMITIVE AOS:         205
 NUMBER OF SYMMETRY AOS:          200
 NUMBER OF CONTRACTIONS:          120   ( 120A   )
 NUMBER OF CORE ORBITALS:           5   (   5A   )
 NUMBER OF VALENCE ORBITALS:       30   (  30A   )


 NUCLEAR REPULSION ENERGY  199.65092252


 Eigenvalues of metric

         1 0.261E-02 0.488E-02 0.490E-02 0.834E-02 0.169E-01 0.191E-01 0.192E-01 0.240E-01


 Contracted 2-electron integrals neglected if value below      1.0D-16
 AO integral compression algorithm  1   Integral accuracy      1.0D-16

     221.250 MB (compressed) written to integral file ( 96.8%)

     Node minimum: 221.250 MB, node maximum: 221.250 MB


 NUMBER OF SORTED TWO-ELECTRON INTEGRALS:   26357430.     BUFFER LENGTH:  32768
 NUMBER OF SEGMENTS:   2  SEGMENT LENGTH:   15997996      RECORD LENGTH: 524288

 Memory used in sort:      16.56 MW

 SORT1 READ    28587749. AND WROTE    26318597. INTEGRALS IN     76 RECORDS. CPU TIME:     0.28 SEC, REAL TIME:     0.42 SEC
 SORT2 READ    26318597. AND WROTE    26357430. INTEGRALS IN    844 RECORDS. CPU TIME:     0.23 SEC, REAL TIME:     0.34 SEC

 FILE SIZES:   FILE 1:   206.6 MBYTE,  FILE 4:   318.8 MBYTE,   TOTAL:    525.4 MBYTE

 OPERATOR DM      FOR CENTER  0  COORDINATES:    0.000000    0.000000    0.000000


 **********************************************************************************************************************************
 DATASETS  * FILE   NREC   LENGTH (MB)   RECORD NAMES
              1      19      206.76       500      610      700      900      950      970     1000      129      960     1100   
                                          VAR    BASINP    GEOM    SYMINP    ZMAT    AOBASIS   BASIS     P2S    ABASIS      S 
                                         1400     1410     1200     1210     1080     1600     1650     1300     1700   
                                           T        V       H0       H01     AOSYM     SMH    MOLCAS    ERIS     OPER   

 PROGRAMS   *        TOTAL       INT
 CPU TIMES  *         3.10      3.06
 REAL TIME  *         3.66 SEC
 DISK USED  *       747.59 MB      
 GA USED    *         0.01 MB       (max)       0.00 MB       (current)
 **********************************************************************************************************************************

1PROGRAM * RHF-SCF (CLOSED SHELL)       Authors: W. Meyer, H.-J. Werner


 NUMBER OF ELECTRONS:      21+   21-    SPACE SYMMETRY=1    SPIN SYMMETRY: Singlet 
 CONVERGENCE THRESHOLDS:    1.00E-10 (Density)    1.00E-13 (Energy)
 MAX. NUMBER OF ITERATIONS:      200
 INTERPOLATION TYPE:            DIIS
 INTERPOLATION STEPS:              2 (START)      1 (STEP)
 LEVEL SHIFTS:                  0.00 (CLOSED)  0.00 (OPEN) 



 Orbital guess generated from atomic densities. Full valence occupancy:   35

 Molecular orbital dump at record        2100.2

 ITERATION    DDIFF          GRAD             ENERGY        2-EL.EN.            DIPOLE MOMENTS         DIIS
    1      0.000D+00      0.000D+00      -232.08675870    561.120216    0.88948   -0.62222   -0.00049    0
    2      0.000D+00      0.616D-02      -232.16302454    555.894522    0.40980   -0.32593    0.00072    1
    3      0.122D-01      0.265D-02      -232.17370948    557.893465    0.53095   -0.43156    0.00079    2
    4      0.389D-02      0.733D-03      -232.17500929    557.665471    0.50405   -0.39570    0.00086    3
    5      0.141D-02      0.192D-03      -232.17508636    557.602475    0.50338   -0.40802    0.00091    4
    6      0.307D-03      0.357D-04      -232.17508941    557.622571    0.50275   -0.40637    0.00092    5
    7      0.899D-04      0.658D-05      -232.17508955    557.616935    0.50269   -0.40654    0.00092    6
    8      0.185D-04      0.211D-05      -232.17508956    557.618515    0.50270   -0.40663    0.00092    7
    9      0.399D-05      0.681D-06      -232.17508956    557.618168    0.50266   -0.40665    0.00092    7
   10      0.155D-05      0.190D-06      -232.17508956    557.618222    0.50267   -0.40666    0.00092    7
   11      0.502D-06      0.389D-07      -232.17508956    557.618210    0.50267   -0.40667    0.00092    7
   12      0.123D-06      0.120D-07      -232.17508956    557.618219    0.50267   -0.40667    0.00092    7
   13      0.242D-07      0.518D-08      -232.17508956    557.618216    0.50267   -0.40667    0.00092    7
   14      0.101D-07      0.170D-08      -232.17508956    557.618216    0.50267   -0.40667    0.00092    8
   15      0.302D-08      0.443D-09      -232.17508956    557.618216    0.50267   -0.40667    0.00092    8
   16      0.106D-08      0.110D-09      -232.17508956    557.618216    0.50267   -0.40667    0.00092    7
   17      0.254D-09      0.302D-10      -232.17508956    557.618216    0.50267   -0.40667    0.00092    7
   18      0.792D-10      0.857D-11      -232.17508956    557.618216    0.50267   -0.40667    0.00092    8
   19      0.174D-10      0.216D-11      -232.17508956    557.618216    0.50267   -0.40667    0.00092    0

 Final occupancy:  21

 !RHF STATE 1.1 Energy               -232.175089560103
 Nuclear energy                       199.65092252
 One-electron energy                 -710.63512014
 Two-electron energy                  278.80910806
 Virial quotient                       -1.00088951
 !RHF STATE 1.1 Dipole moment           0.50267009    -0.40666678     0.00091811
 Dipole moment /Debye                   1.27757625    -1.03357615     0.00233346

 Orbital energies:

         1.1          2.1          3.1          4.1          5.1          6.1          7.1          8.1          9.1         10.1
    -20.545094   -11.282093   -11.220497   -11.220459   -11.214381    -1.352143    -1.064306    -0.939981    -0.938097    -0.766790

        11.1         12.1         13.1         14.1         15.1         16.1         17.1         18.1         19.1         20.1
     -0.665585    -0.620698    -0.617977    -0.573408    -0.553857    -0.528541    -0.514258    -0.505292    -0.500055    -0.458110

        21.1         22.1         23.1
     -0.426829     0.166858     0.220195


 **********************************************************************************************************************************
 DATASETS  * FILE   NREC   LENGTH (MB)   RECORD NAMES
              1      19      206.76       500      610      700      900      950      970     1000      129      960     1100   
                                          VAR    BASINP    GEOM    SYMINP    ZMAT    AOBASIS   BASIS     P2S    ABASIS      S 
                                         1400     1410     1200     1210     1080     1600     1650     1300     1700   
                                           T        V       H0       H01     AOSYM     SMH    MOLCAS    ERIS     OPER   

              2       3        0.80       700     1000     2100   
                                         GEOM     BASIS     RHF  

 PROGRAMS   *        TOTAL       RHF       INT
 CPU TIMES  *         6.91      3.81      3.06
 REAL TIME  *         7.92 SEC
 DISK USED  *       747.59 MB      
 GA USED    *         0.01 MB       (max)       0.00 MB       (current)
 **********************************************************************************************************************************


1PROGRAM * CCSD (Closed-shell coupled cluster)     Authors: C. Hampel, H.-J. Werner, 1991, M. Deegan, P.J. Knowles, 1992


 Convergence thresholds:  THRVAR = 1.00D-08  THRDEN = 1.00D-12

 CCSD(T)     terms to be evaluated (factor= 1.000)


 Number of core orbitals:           5 (   5 )
 Number of closed-shell orbitals:  16 (  16 )
 Number of external orbitals:      99 (  99 )

 Molecular orbitals read from record     2100.2  Type=RHF/CANONICAL (state 1.1)

 Number of N-1 electron functions:              16
 Number of N-2 electron functions:             136
 Number of singly external CSFs:              1584
 Number of doubly external CSFs:           1255320
 Total number of CSFs:                     1256905

 Length of J-op  integral file:               0.00 MB
 Length of K-op  integral file:               1.03 MB
 Length of 3-ext integral record:             0.00 MB

 Memory could be reduced to 21.47 Mwords without degradation in triples

 Integral transformation finished. Total CPU:   1.42 sec, npass=  1  Memory used:  18.35 MW

 Reference energy:                   -232.17508956

 MP2 singlet pair energy:              -0.49759680
 MP2 triplet pair energy:              -0.27475547
 MP2 correlation energy:               -0.77235227
 MP2 total energy:                   -232.94744183

 SCS-MP2 correlation energy:           -0.76807512   (PS=  1.200000  PT=  0.333333)
 SCS-MP2 total energy:               -232.94316468

 ITER.      SQ.NORM     CORR.ENERGY   TOTAL ENERGY   ENERGY CHANGE        DEN1      VAR(S)    VAR(P)  DIIS     TIME
   1      1.27363413    -0.82955015  -233.00463971    -0.05719788    -0.03605825  0.25D-02  0.44D-02  1  1     5.34
   2      1.29482053    -0.83387107  -233.00896063    -0.00432092    -0.02220502  0.67D-04  0.42D-03  2  2     9.33
   3      1.29934757    -0.83408131  -233.00917087    -0.00021024    -0.00277749  0.25D-04  0.24D-04  3  3    13.33
   4      1.30061640    -0.83408714  -233.00917670    -0.00000583    -0.00060365  0.64D-06  0.21D-05  4  4    17.33
   5      1.30084821    -0.83409610  -233.00918566    -0.00000896    -0.00008118  0.19D-06  0.15D-06  5  5    21.31
   6      1.30088948    -0.83409284  -233.00918240     0.00000327    -0.00001323  0.26D-07  0.14D-07  6  6    25.31
   7      1.30089642    -0.83409161  -233.00918117     0.00000122    -0.00000071  0.38D-08  0.17D-08  6  1    29.31
   8      1.30090000    -0.83409163  -233.00918119    -0.00000001    -0.00000042  0.68D-09  0.22D-09  6  2    33.30
   9      1.30090058    -0.83409156  -233.00918112     0.00000006     0.00000057  0.64D-10  0.39D-10  6  4    37.31
  10      1.30090116    -0.83409155  -233.00918111     0.00000001    -0.00000001  0.51D-11  0.38D-11  6  3    41.29
  11      1.30090114    -0.83409155  -233.00918111    -0.00000000     0.00000005  0.79D-12  0.47D-12  6  5    45.29
  12      1.30090108    -0.83409155  -233.00918111    -0.00000000     0.00000003  0.14D-12  0.66D-13  6  6    49.29
  13      1.30090102    -0.83409156  -233.00918112    -0.00000000     0.00000003  0.11D-13  0.10D-13  6  2    53.29
  14      1.30090101    -0.83409156  -233.00918112    -0.00000000     0.00000001  0.17D-14  0.62D-15  6  1    57.29
  15      1.30090101    -0.83409156  -233.00918112    -0.00000000     0.00000000  0.23D-15  0.13D-15  6  4    61.30
  16      1.30090101    -0.83409156  -233.00918112     0.00000000    -0.00000000  0.36D-16  0.21D-16  6  3    65.29
  17      1.30090101    -0.83409156  -233.00918112     0.00000000    -0.00000000  0.37D-17  0.26D-17  6  5    69.29
  18      1.30090101    -0.83409156  -233.00918112    -0.00000000    -0.00000000  0.10D-17  0.36D-18  6  6    73.29
  19      1.30090101    -0.83409156  -233.00918112    -0.00000000    -0.00000000  0.25D-18  0.69D-19  6  2    77.29
  20      1.30090101    -0.83409156  -233.00918112    -0.00000000     0.00000000  0.39D-19  0.14D-19  6  1    81.28
  21      1.30090101    -0.83409156  -233.00918112    -0.00000000     0.00000000  0.52D-20  0.24D-20  6  4    85.27
  22      1.30090101    -0.83409156  -233.00918112     0.00000000    -0.00000000  0.96D-21  0.38D-21  6  3    89.26

 Norm of t1 vector:      0.06604905      S-energy:    -0.00000000      T1 diagnostic:  0.00825613
                                                                       D1 diagnostic:  0.02161756


 Total CPU time for triples:     60.17 sec


 RESULTS
 =======

  Reference energy                   -232.175089560102
  CCSD singlet pair energy             -0.581024976674
  CCSD triplet pair energy             -0.253066579637
  CCSD correlation energy              -0.834091556312

  Triples (T) contribution             -0.023260731946
  Total correlation energy             -0.857352288258

  CCSD total energy                  -233.009181116414
  CCSD[T] energy                     -233.033138746428
  CCSD-T energy                      -233.032105787365
 !CCSD(T) total energy               -233.032441848360

 Timing summary (sec):

 STEP                 CPU(USER)    SYS     CPU(TOT)    WALL
 Transformation          1.48      0.13      1.61      1.61
 CCSD iterations        87.79      1.93     89.72     90.28
 Triples                60.17      1.21     61.38     61.40

 Program statistics:

 Available memory in ccsd:               999998876
 Min. memory needed in ccsd:               3310297
 Max. memory used in ccsd:                 4412497
 Max. memory used in cckext:               4149679 (22 integral passes)



 **********************************************************************************************************************************
 DATASETS  * FILE   NREC   LENGTH (MB)   RECORD NAMES
              1      20      293.41       500      610      700      900      950      970     1000      129      960     1100   
                                          VAR    BASINP    GEOM    SYMINP    ZMAT    AOBASIS   BASIS     P2S    ABASIS      S 
                                         1400     1410     1200     1210     1080     1600     1650     1300     1700     1380   
                                           T        V       H0       H01     AOSYM     SMH    MOLCAS    ERIS     OPER     JKOP   

              2       3        0.80       700     1000     2100   
                                         GEOM     BASIS     RHF  

 PROGRAMS   *        TOTAL   CCSD(T)       RHF       INT
 CPU TIMES  *       156.36    149.45      3.81      3.06
 REAL TIME  *       161.26 SEC
 DISK USED  *       747.59 MB      
 GA USED    *         0.01 MB       (max)       0.00 MB       (current)
 **********************************************************************************************************************************

        CCSD(T)         RHF-SCF 
   -233.03244185   -232.17508956
 **********************************************************************************************************************************
 Variable memory released
