
 Primary working directories    : /tmp/880701.504.gen4.q
 Secondary working directories  : /tmp/880701.504.gen4.q
 Wavefunction directory         : /home/vulcan/lo21740/wfu/
 Main file repository           : /tmp/880701.504.gen4.q/

 ARCHNAME  : Linux/x86_64
 FC        : /opt/intel/compilers_and_libraries_2016.1.150/linux/bin/intel64/ifort
 FCVERSION : 16.0.1
 BLASLIB   : -mkl
 id        : ccgc

 Nodes     nprocs
 n058         1
 ga_uses_ma=false, calling ma_init with nominal heap.
 GA-space will be limited to   8.0 MW (determined by -G option)

 Using customized tuning parameters: mindgm=10; mindgv=16; mindgc=4; mindgr=1; noblas=0; mincuda=1000; minvec=7
 default implementation of scratch files=df  

 ***,Optimization of formamide
 memory,1000,m
 gthresh,energy=1.0d-12,orbital=1.0d-10,oneint=1.0d-16,twoint=1.0d-16,optgrad=1.0d-6,compress=1.0d-13
 geomtyp=xyz
 
 bohr
 geometry = {
  C   -3.8277292210    0.0870728236    0.0025736662
  O   -2.7298845024    2.1387483905    0.0061282011
  N   -2.6791873042   -2.1805577763   -0.0027945275
  H   -3.7396436634   -3.7557501284   -0.0092158368
  H   -0.7515162514   -2.3047395422    0.0002132320
  H   -5.9017163572   -0.0185059215    0.0030952650
  C    3.8277292210   -0.0870728236    0.0025736662
  O    2.7298845024   -2.1387483905    0.0061282011
  N    2.6791873042    2.1805577763   -0.0027945275
  H    3.7396436634    3.7557501284   -0.0092158368
  H    0.7515162514    2.3047395422    0.0002132320
  H    5.9017163572    0.0185059215    0.0030952650
 }
 
 basis=AVDZ
 {rhf;maxit,200}
 {ccsd(t);maxit,200}

 Variables initialized (661), CPU time= 0.00 sec
 Commands  initialized (458), CPU time= 0.00 sec, 486 directives.
 Default parameters read. Elapsed time= 0.05 sec

 Checking input...
 Passed
1


                                         ***  PROGRAM SYSTEM MOLPRO  ***
                         Copyright, University College Cardiff Consultants Limited, 2008

                                    Version 2010.1 linked May 16 2016 07:17:05


 **********************************************************************************************************************************
 LABEL *   Optimization of formamide                                                     
 Linux-4.4.3/n058(x86_64) 64 bit mpp version                                             DATE: 24-May-23          TIME: 23:54:23  
 **********************************************************************************************************************************

 SHA1:             9e8077add272b0f3cad6f7df79ec5211205f459d
 **********************************************************************************************************************************

 THRESHOLDS:

 ZERO    =  1.00D-12  ONEINT  =  1.00D-16  TWOINT  =  1.00D-16  PREFAC  =  1.00D-14  LOCALI  =  1.00D-09  EORDER  =  1.00D-04
 ENERGY  =  1.00D-12  ETEST   =  0.00D+00  EDENS   =  0.00D+00  THRDEDEF=  1.00D-06  GRADIENT=  1.00D-02  STEP    =  1.00D-03
 ORBITAL =  1.00D-10  CIVEC   =  1.00D-05  COEFF   =  1.00D-04  PRINTCI =  5.00D-02  PUNCHCI =  9.90D+01  OPTGRAD =  1.00D-06
 OPTENERG=  1.00D-06  OPTSTEP =  3.00D-04  THRGRAD =  1.00D-10  COMPRESS=  1.00D-13  VARMIN  =  1.00D-07  VARMAX  =  1.00D-03
 THRDOUB =  0.00D+00  THRDIV  =  1.00D-05  THRRED  =  1.00D-07  THRPSP  =  1.00D+00  THRDC   =  1.00D-10  THRCS   =  1.00D-10
 THRNRM  =  1.00D-08  THREQ   =  0.00D+00  THRDE   =  1.00D+00  THRREF  =  1.00D-05  SPARFAC =  1.00D+00  THRDLP  =  1.00D-07
 THRDIA  =  1.00D-10  THRDLS  =  1.00D-07  THRGPS  =  0.00D+00  THRKEX  =  0.00D+00  THRDIS  =  2.00D-01  THRVAR  =  1.00D-10
 THRLOC  =  1.00D-06  THRGAP  =  1.00D-06  THRLOCT = -1.00D+00  THRGAPT = -1.00D+00  THRORB  =  1.00D-06  THRMLTP =  0.00D+00
 THRCPQCI=  1.00D-10  KEXTA   =  0.00D+00  THRCOARS=  0.00D+00  SYMTOL  =  1.00D-06  GRADTOL =  1.00D-06  THROVL  =  1.00D-08
 THRORTH =  1.00D-08  GRID    =  1.00D-06  GRIDMAX =  1.00D-03  DTMAX   =  0.00D+00

 SETTING GEOMTYP        =    XYZ
 ZUNIT=BOHR
 

 Variable memory set to 1000000000 words,  buffer space   230000 words

 SETTING BASIS          =    AVDZ


 Recomputing integrals since basis changed


 Using spherical harmonics

 Library entry C      S aug-cc-pVDZ          selected for orbital group  1
 Library entry C      P aug-cc-pVDZ          selected for orbital group  1
 Library entry C      D aug-cc-pVDZ          selected for orbital group  1
 Library entry O      S aug-cc-pVDZ          selected for orbital group  2
 Library entry O      P aug-cc-pVDZ          selected for orbital group  2
 Library entry O      D aug-cc-pVDZ          selected for orbital group  2
 Library entry N      S aug-cc-pVDZ          selected for orbital group  3
 Library entry N      P aug-cc-pVDZ          selected for orbital group  3
 Library entry N      D aug-cc-pVDZ          selected for orbital group  3
 Library entry H      S aug-cc-pVDZ          selected for orbital group  4
 Library entry H      P aug-cc-pVDZ          selected for orbital group  4

1PROGRAM * SEWARD (Integral evaluation for generally contracted gaussian basis sets)     Author: Roland Lindh, 1990

 Geometry written to block  1 of record 700


 Point group  C2  



 ATOMIC COORDINATES

 NR  ATOM    CHARGE       X              Y              Z

   1  C       6.00   -3.827729221    0.087072824    0.002573666
   2  C       6.00    3.827729221   -0.087072824    0.002573666
   3  O       8.00   -2.729884502    2.138748390    0.006128201
   4  O       8.00    2.729884502   -2.138748390    0.006128201
   5  N       7.00   -2.679187304   -2.180557776   -0.002794527
   6  N       7.00    2.679187304    2.180557776   -0.002794527
   7  H       1.00   -3.739643663   -3.755750128   -0.009215837
   8  H       1.00    3.739643663    3.755750128   -0.009215837
   9  H       1.00   -0.751516251   -2.304739542    0.000213232
  10  H       1.00    0.751516251    2.304739542    0.000213232
  11  H       1.00   -5.901716357   -0.018505922    0.003095265
  12  H       1.00    5.901716357    0.018505922    0.003095265

 Bond lengths in Bohr (Angstrom)

  1- 3  2.326939684   1- 5  2.541913824   1-11  2.076672768   2- 4  2.326939684   2- 6  2.541913824
       ( 1.231363447)       ( 1.345122863)       ( 1.098927899)       ( 1.231363447)       ( 1.345122863)

  2-12  2.076672768   5- 7  1.898904913   5- 9  1.931669186   6- 8  1.898904913   6-10  1.931669186
       ( 1.098927899)       ( 1.004857202)       ( 1.022195309)       ( 1.004857202)       ( 1.022195309)

 Bond angles

  1- 5- 7  119.18889873   1- 5- 9  120.54755414   2- 6- 8  119.18889873   2- 6-10  120.54755414

  3- 1- 5  124.98705022   3- 1-11  121.06521247   4- 2- 6  124.98705022   4- 2-12  121.06521247

  5- 1-11  113.94773539   6- 2-12  113.94773539   7- 5- 9  120.26354389   8- 6-10  120.26354389

 NUCLEAR CHARGE:                   48
 NUMBER OF PRIMITIVE AOS:         288
 NUMBER OF SYMMETRY AOS:          276
 NUMBER OF CONTRACTIONS:          192   (  96A   +  96B   )
 NUMBER OF CORE ORBITALS:           6   (   3A   +   3B   )
 NUMBER OF VALENCE ORBITALS:       30   (  15A   +  15B   )


 NUCLEAR REPULSION ENERGY  230.46951303


 Eigenvalues of metric

         1 0.232E-03 0.528E-03 0.704E-03 0.712E-03 0.861E-03 0.217E-02 0.279E-02 0.327E-02
         2 0.271E-03 0.524E-03 0.564E-03 0.717E-03 0.120E-02 0.133E-02 0.232E-02 0.320E-02


 Contracted 2-electron integrals neglected if value below      1.0D-16
 AO integral compression algorithm  1   Integral accuracy      1.0D-16

     839.385 MB (compressed) written to integral file ( 97.5%)

     Node minimum: 839.385 MB, node maximum: 839.385 MB


 NUMBER OF SORTED TWO-ELECTRON INTEGRALS:   86718000.     BUFFER LENGTH:  32768
 NUMBER OF SEGMENTS:   6  SEGMENT LENGTH:   15998362      RECORD LENGTH: 524288

 Memory used in sort:      16.56 MW

 SORT1 READ   107623504. AND WROTE    86266685. INTEGRALS IN    250 RECORDS. CPU TIME:     1.12 SEC, REAL TIME:     1.67 SEC
 SORT2 READ    86266685. AND WROTE    86718000. INTEGRALS IN   3202 RECORDS. CPU TIME:     0.78 SEC, REAL TIME:     1.13 SEC

 FILE SIZES:   FILE 1:   695.6 MBYTE,  FILE 4:  1048.6 MBYTE,   TOTAL:   1744.3 MBYTE

 OPERATOR DM      FOR CENTER  0  COORDINATES:    0.000000    0.000000    0.000000


 **********************************************************************************************************************************
 DATASETS  * FILE   NREC   LENGTH (MB)   RECORD NAMES
              1      19      695.87       500      610      700      900      950      970     1000      129      960     1100   
                                          VAR    BASINP    GEOM    SYMINP    ZMAT    AOBASIS   BASIS     P2S    ABASIS      S 
                                         1400     1410     1200     1210     1080     1600     1650     1300     1700   
                                           T        V       H0       H01     AOSYM     SMH    MOLCAS    ERIS     OPER   

 PROGRAMS   *        TOTAL       INT
 CPU TIMES  *         6.27      6.22
 REAL TIME  *         7.76 SEC
 DISK USED  *         2.58 GB      
 GA USED    *         0.00 MB       (max)       0.00 MB       (current)
 **********************************************************************************************************************************

1PROGRAM * RHF-SCF (CLOSED SHELL)       Authors: W. Meyer, H.-J. Werner


 NUMBER OF ELECTRONS:      24+   24-
 CONVERGENCE THRESHOLDS:    1.00E-10 (Density)    1.00E-13 (Energy)
 MAX. NUMBER OF ITERATIONS:      200
 INTERPOLATION TYPE:            DIIS
 INTERPOLATION STEPS:              2 (START)      1 (STEP)
 LEVEL SHIFTS:                  0.00 (CLOSED)  0.00 (OPEN) 



 Orbital guess generated from atomic densities. Full valence occupancy:   18  18

 Molecular orbital dump at record        2100.2

 Initial alpha occupancy:  12  12
 Initial beta  occupancy:  12  12
 Wave function symmetry:    1

 ITERATION    DDIFF          GRAD             ENERGY        2-EL.EN.            DIPOLE MOMENTS         DIIS
    1      0.000D+00      0.000D+00      -337.80590504    704.628152    0.00000    0.00000   -0.00952    0
    2      0.000D+00      0.794D-02      -337.88337011    699.012228    0.00000    0.00000   -0.00509    1
    3      0.151D-01      0.579D-02      -337.94117840    701.754971    0.00000    0.00000   -0.00643    2
    4      0.612D-02      0.764D-03      -337.94339310    701.657889    0.00000    0.00000   -0.00618    3
    5      0.146D-02      0.264D-03      -337.94366238    701.591497    0.00000    0.00000   -0.00617    4
    6      0.498D-03      0.867D-04      -337.94372410    701.617056    0.00000    0.00000   -0.00612    5
    7      0.221D-03      0.384D-04      -337.94373519    701.608080    0.00000    0.00000   -0.00612    6
    8      0.105D-03      0.114D-04      -337.94373615    701.613693    0.00000    0.00000   -0.00611    7
    9      0.331D-04      0.346D-05      -337.94373622    701.611206    0.00000    0.00000   -0.00611    8
   10      0.870D-05      0.120D-05      -337.94373623    701.611748    0.00000    0.00000   -0.00611    7
   11      0.362D-05      0.287D-06      -337.94373623    701.611675    0.00000    0.00000   -0.00611    8
   12      0.833D-06      0.435D-07      -337.94373623    701.611681    0.00000    0.00000   -0.00611    7
   13      0.123D-06      0.101D-07      -337.94373623    701.611682    0.00000    0.00000   -0.00611    7
   14      0.308D-07      0.181D-08      -337.94373623    701.611682    0.00000    0.00000   -0.00611    6
   15      0.487D-08      0.500D-09      -337.94373623    701.611682    0.00000    0.00000   -0.00611    6
   16      0.117D-08      0.219D-09      -337.94373623    701.611682    0.00000    0.00000   -0.00611    6
   17      0.392D-09      0.746D-10      -337.94373623    701.611682    0.00000    0.00000   -0.00611    7
   18      0.157D-09      0.195D-10      -337.94373623    701.611682    0.00000    0.00000   -0.00611    7
   19      0.480D-10      0.670D-11      -337.94373623    701.611682    0.00000    0.00000   -0.00611    7
   20      0.174D-10      0.242D-11      -337.94373623    701.611682    0.00000    0.00000   -0.00611    7
   21      0.709D-11      0.633D-12      -337.94373623    701.611682    0.00000    0.00000   -0.00611    8
   22      0.588D-11      0.222D-12      -337.94373623    701.611682    0.00000    0.00000   -0.00611    8
   23      0.485D-11      0.128D-12      -337.94373623    701.611682    0.00000    0.00000   -0.00611    8
   24      0.230D-11      0.104D-12      -337.94373623    701.611682    0.00000    0.00000   -0.00611    9
   25      0.121D-11      0.777D-13      -337.94373623    701.611682    0.00000    0.00000   -0.00611    9
   26      0.906D-12      0.830D-13      -337.94373623    701.611682    0.00000    0.00000   -0.00611    9
   27      0.675D-12      0.847D-13      -337.94373623    701.611682    0.00000    0.00000   -0.00611    0

 Final occupancy:  12  12

 !RHF STATE 1.1 Energy               -337.943736227743
 Nuclear energy                       230.46951303
 One-electron energy                 -919.21909041
 Two-electron energy                  350.80584115
 Virial quotient                       -1.00173755
 !RHF STATE 1.1 Dipole moment           0.00000000     0.00000000    -0.00611012
 Dipole moment /Debye                   0.00000000     0.00000000    -0.01552937

 Orbital energies:

         1.1          2.1          3.1          4.1          5.1          6.1          7.1          8.1          9.1         10.1
    -20.541296   -15.588708   -11.367846    -1.389255    -1.211737    -0.861155    -0.749453    -0.645235    -0.619838    -0.573392

        11.1         12.1         13.1         14.1
     -0.454526    -0.409564     0.033389     0.059158

         1.2          2.2          3.2          4.2          5.2          6.2          7.2          8.2          9.2         10.2
    -20.541296   -15.588708   -11.367847    -1.384535    -1.217938    -0.835893    -0.740689    -0.705983    -0.594036    -0.565321

        11.2         12.2         13.2         14.2
     -0.429290    -0.420161     0.036358     0.052537


 **********************************************************************************************************************************
 DATASETS  * FILE   NREC   LENGTH (MB)   RECORD NAMES
              1      19      695.87       500      610      700      900      950      970     1000      129      960     1100   
                                          VAR    BASINP    GEOM    SYMINP    ZMAT    AOBASIS   BASIS     P2S    ABASIS      S 
                                         1400     1410     1200     1210     1080     1600     1650     1300     1700   
                                           T        V       H0       H01     AOSYM     SMH    MOLCAS    ERIS     OPER   

              2       3        0.85       700     1000     2100   
                                         GEOM     BASIS     RHF  

 PROGRAMS   *        TOTAL       RHF       INT
 CPU TIMES  *        17.35     11.08      6.22
 REAL TIME  *        21.06 SEC
 DISK USED  *         2.58 GB      
 GA USED    *         0.00 MB       (max)       0.00 MB       (current)
 **********************************************************************************************************************************


1PROGRAM * CCSD (Closed-shell coupled cluster)     Authors: C. Hampel, H.-J. Werner, 1991, M. Deegan, P.J. Knowles, 1992


 Convergence thresholds:  THRVAR = 1.00D-08  THRDEN = 1.00D-12

 CCSD(T)     terms to be evaluated (factor= 1.000)


 Number of core orbitals:           6 (   3   3 )
 Number of closed-shell orbitals:  18 (   9   9 )
 Number of external orbitals:     168 (  84  84 )

 Molecular orbitals read from record     2100.2  Type=RHF/CANONICAL (state 1.1)

 Number of N-1 electron functions:              18
 Number of N-2 electron functions:             171
 Number of singly external CSFs:              1512
 Number of doubly external CSFs:           2287656
 Total number of CSFs:                     2289169

 Length of J-op  integral file:               0.00 MB
 Length of K-op  integral file:               1.31 MB
 Length of 3-ext integral record:             0.00 MB

 Memory could be reduced to 54.59 Mwords without degradation in triples

 Integral transformation finished. Total CPU:   4.47 sec, npass=  1  Memory used:  28.81 MW

 Reference energy:                   -337.94373623

 MP2 singlet pair energy:              -0.62280956
 MP2 triplet pair energy:              -0.40617130
 MP2 correlation energy:               -1.02898086
 MP2 total energy:                   -338.97271709

 SCS-MP2 correlation energy:           -1.00010028   (PS=  1.200000  PT=  0.333333)
 SCS-MP2 total energy:               -338.94383651

 ITER.      SQ.NORM     CORR.ENERGY   TOTAL ENERGY   ENERGY CHANGE        DEN1      VAR(S)    VAR(P)  DIIS     TIME
   1      1.31941641    -1.05749810  -339.00123433    -0.02851724     0.00281404  0.10D-01  0.60D-02  1  1    10.01
   2      1.34494523    -1.05937894  -339.00311517    -0.00188083    -0.02596746  0.22D-03  0.11D-02  2  2    15.88
   3      1.35760420    -1.06027355  -339.00400978    -0.00089461    -0.00556998  0.22D-03  0.52D-04  3  3    21.76
   4      1.36283227    -1.06000903  -339.00374526     0.00026452    -0.00169757  0.22D-04  0.96D-05  4  4    27.63
   5      1.36498973    -1.05995148  -339.00368771     0.00005756    -0.00045071  0.27D-05  0.12D-05  5  5    33.52
   6      1.36551320    -1.05992277  -339.00365900     0.00002871    -0.00004987  0.27D-06  0.19D-06  6  6    39.40
   7      1.36564100    -1.05991045  -339.00364668     0.00001232    -0.00000199  0.35D-07  0.23D-07  6  1    45.29
   8      1.36567829    -1.05990926  -339.00364549     0.00000119    -0.00000700  0.73D-08  0.33D-08  6  2    51.19
   9      1.36567977    -1.05990944  -339.00364567    -0.00000018     0.00000266  0.13D-08  0.48D-09  6  3    57.08
  10      1.36568453    -1.05990890  -339.00364513     0.00000054    -0.00000110  0.32D-09  0.68D-10  6  4    62.98
  11      1.36568428    -1.05990916  -339.00364538    -0.00000025     0.00000046  0.58D-10  0.13D-10  6  5    68.87
  12      1.36568428    -1.05990913  -339.00364536     0.00000002     0.00000002  0.46D-11  0.35D-11  6  6    74.75
  13      1.36568400    -1.05990917  -339.00364540    -0.00000004     0.00000012  0.11D-11  0.39D-12  6  1    80.64
  14      1.36568391    -1.05990918  -339.00364541    -0.00000001     0.00000004  0.90D-13  0.75D-13  6  2    86.54
  15      1.36568389    -1.05990918  -339.00364541     0.00000000     0.00000001  0.24D-13  0.12D-13  6  3    92.45
  16      1.36568388    -1.05990918  -339.00364541    -0.00000000     0.00000000  0.50D-14  0.22D-14  6  4    98.34
  17      1.36568388    -1.05990918  -339.00364541     0.00000000    -0.00000000  0.98D-15  0.47D-15  6  5   104.22
  18      1.36568389    -1.05990918  -339.00364541     0.00000000    -0.00000000  0.27D-15  0.10D-15  6  2   110.12
  19      1.36568389    -1.05990918  -339.00364541     0.00000000    -0.00000000  0.48D-16  0.15D-16  6  6   116.02
  20      1.36568389    -1.05990918  -339.00364541    -0.00000000     0.00000000  0.13D-16  0.30D-17  6  1   121.93
  21      1.36568389    -1.05990918  -339.00364541     0.00000000    -0.00000000  0.36D-17  0.12D-17  6  4   127.83
  22      1.36568389    -1.05990918  -339.00364541    -0.00000000     0.00000000  0.11D-17  0.25D-18  6  3   133.71
  23      1.36568389    -1.05990918  -339.00364541     0.00000000    -0.00000000  0.65D-19  0.35D-19  6  5   139.59
  24      1.36568389    -1.05990918  -339.00364541     0.00000000    -0.00000000  0.18D-19  0.67D-20  6  2   145.50
  25      1.36568389    -1.05990918  -339.00364541    -0.00000000     0.00000000  0.39D-20  0.16D-20  6  4   151.38
  26      1.36568389    -1.05990918  -339.00364541     0.00000000    -0.00000000  0.10D-20  0.25D-21  6  6   157.28

 Norm of t1 vector:      0.14845797      S-energy:     0.00000000      T1 diagnostic:  0.01749594
                                                                       D1 diagnostic:  0.05918068


 Total CPU time for triples:    176.76 sec


 RESULTS
 =======

  Reference energy                   -337.943736227744
  CCSD singlet pair energy             -0.699748836216
  CCSD triplet pair energy             -0.360160346802
  CCSD correlation energy              -1.059909183018

  Triples (T) contribution             -0.039961002718
  Total correlation energy             -1.099870185736

  CCSD total energy                  -339.003645410761
  CCSD[T] energy                     -339.046834811500
  CCSD-T energy                      -339.042481328240
 !CCSD(T) total energy               -339.043606413479

 Timing summary (sec):

 STEP                 CPU(USER)    SYS     CPU(TOT)    WALL
 Transformation          4.54      0.36      4.90      4.89
 CCSD iterations       152.74      5.09    157.83    157.92
 Triples               176.76      4.09    180.85    180.88

 Program statistics:

 Available memory in ccsd:               999998604
 Min. memory needed in ccsd:               5718748
 Max. memory used in ccsd:                 7826908
 Max. memory used in cckext:               7427053 (26 integral passes)



 **********************************************************************************************************************************
 DATASETS  * FILE   NREC   LENGTH (MB)   RECORD NAMES
              1      20      907.12       500      610      700      900      950      970     1000      129      960     1100   
                                          VAR    BASINP    GEOM    SYMINP    ZMAT    AOBASIS   BASIS     P2S    ABASIS      S 
                                         1400     1410     1200     1210     1080     1600     1650     1300     1700     1380   
                                           T        V       H0       H01     AOSYM     SMH    MOLCAS    ERIS     OPER     JKOP   

              2       3        0.85       700     1000     2100   
                                         GEOM     BASIS     RHF  

 PROGRAMS   *        TOTAL   CCSD(T)       RHF       INT
 CPU TIMES  *       351.41    334.06     11.08      6.22
 REAL TIME  *       364.80 SEC
 DISK USED  *         2.58 GB      
 GA USED    *         0.00 MB       (max)       0.00 MB       (current)
 **********************************************************************************************************************************

        CCSD(T)         RHF-SCF 
   -339.04360641   -337.94373623
 **********************************************************************************************************************************
 Variable memory released
