
 Primary working directories    : /tmp/1059987.64.gen6.q
 Secondary working directories  : /tmp/1059987.64.gen6.q
 Wavefunction directory         : /home/vulcan/jj04645/wfu/
 Main file repository           : /tmp/1059987.64.gen6.q/

 ARCHNAME  : Linux/x86_64
 FC        : /opt/intel/compilers_and_libraries_2016.1.150/linux/bin/intel64/ifort
 FCVERSION : 16.0.1
 BLASLIB   : -mkl
 id        : ccgc

 Nodes     nprocs
 n075         1
 ga_uses_ma=false, calling ma_init with nominal heap.
 GA-space will be limited to   8.0 MW (determined by -G option)

 Using customized tuning parameters: mindgm=10; mindgv=16; mindgc=4; mindgr=1; noblas=0; mincuda=1000; minvec=7
 default implementation of scratch files=df  

 ***,Optimization of 1_4_cyclohexadiene
 memory,1000,m
 gthresh,energy=1.0d-12,orbital=1.0d-10,oneint=1.0d-16,twoint=1.0d-16,optgrad=1.0d-6,compress=1.0d-13
 geomtyp=xyz
 
 bohr
 geometry = {
  H    4.1063629894    0.0021157892   -1.6462983897
  C    2.8453853269   -0.0000000000   -0.0000000000
  C   -1.2671489732    2.3707500393   -0.0030468397
  C   -1.2671489732   -2.3707500393    0.0030468397
  C   -2.8453853269    0.0000000000    0.0000000000
  C    1.2671489732   -2.3707500393   -0.0030468397
  C    1.2671489732    2.3707500393    0.0030468397
  H   -2.2704502852    4.1594998749   -0.0106213671
  H    2.2704502852    4.1594998749    0.0106213671
  H   -4.1063629894   -0.0021157892   -1.6462983897
  H    2.2704502852   -4.1594998749   -0.0106213671
  H   -2.2704502852   -4.1594998749    0.0106213671
  H    4.1063629894   -0.0021157892    1.6462983897
  H   -4.1063629894    0.0021157892    1.6462983897
 }
 
 basis=VDZ
 {rhf;maxit,200}
 {ccsd(t);maxit,200}

 Variables initialized (661), CPU time= 0.00 sec
 Commands  initialized (458), CPU time= 0.01 sec, 486 directives.
 Default parameters read. Elapsed time= 0.03 sec

 Checking input...
 Passed
1


                                         ***  PROGRAM SYSTEM MOLPRO  ***
                         Copyright, University College Cardiff Consultants Limited, 2008

                                    Version 2010.1 linked May 16 2016 07:17:05


 **********************************************************************************************************************************
 LABEL *   Optimization of 1_4_cyclohexadiene                                            
 Linux-4.4.3/n075(x86_64) 64 bit mpp version                                             DATE: 06-May-24          TIME: 14:27:36  
 **********************************************************************************************************************************

 SHA1:             9e8077add272b0f3cad6f7df79ec5211205f459d
 **********************************************************************************************************************************

 THRESHOLDS:

 ZERO    =  1.00D-12  ONEINT  =  1.00D-16  TWOINT  =  1.00D-16  PREFAC  =  1.00D-14  LOCALI  =  1.00D-09  EORDER  =  1.00D-04
 ENERGY  =  1.00D-12  ETEST   =  0.00D+00  EDENS   =  0.00D+00  THRDEDEF=  1.00D-06  GRADIENT=  1.00D-02  STEP    =  1.00D-03
 ORBITAL =  1.00D-10  CIVEC   =  1.00D-05  COEFF   =  1.00D-04  PRINTCI =  5.00D-02  PUNCHCI =  9.90D+01  OPTGRAD =  1.00D-06
 OPTENERG=  1.00D-06  OPTSTEP =  3.00D-04  THRGRAD =  1.00D-10  COMPRESS=  1.00D-13  VARMIN  =  1.00D-07  VARMAX  =  1.00D-03
 THRDOUB =  0.00D+00  THRDIV  =  1.00D-05  THRRED  =  1.00D-07  THRPSP  =  1.00D+00  THRDC   =  1.00D-10  THRCS   =  1.00D-10
 THRNRM  =  1.00D-08  THREQ   =  0.00D+00  THRDE   =  1.00D+00  THRREF  =  1.00D-05  SPARFAC =  1.00D+00  THRDLP  =  1.00D-07
 THRDIA  =  1.00D-10  THRDLS  =  1.00D-07  THRGPS  =  0.00D+00  THRKEX  =  0.00D+00  THRDIS  =  2.00D-01  THRVAR  =  1.00D-10
 THRLOC  =  1.00D-06  THRGAP  =  1.00D-06  THRLOCT = -1.00D+00  THRGAPT = -1.00D+00  THRORB  =  1.00D-06  THRMLTP =  0.00D+00
 THRCPQCI=  1.00D-10  KEXTA   =  0.00D+00  THRCOARS=  0.00D+00  SYMTOL  =  1.00D-06  GRADTOL =  1.00D-06  THROVL  =  1.00D-08
 THRORTH =  1.00D-08  GRID    =  1.00D-06  GRIDMAX =  1.00D-03  DTMAX   =  0.00D+00

 SETTING GEOMTYP        =    XYZ
 ZUNIT=BOHR
 

 Variable memory set to 1000000000 words,  buffer space   230000 words

 SETTING BASIS          =    VDZ


 Recomputing integrals since basis changed


 Using spherical harmonics

 Library entry H      S cc-pVDZ              selected for orbital group  1
 Library entry H      P cc-pVDZ              selected for orbital group  1
 Library entry C      S cc-pVDZ              selected for orbital group  2
 Library entry C      P cc-pVDZ              selected for orbital group  2
 Library entry C      D cc-pVDZ              selected for orbital group  2

1PROGRAM * SEWARD (Integral evaluation for generally contracted gaussian basis sets)     Author: Roland Lindh, 1990

 Geometry written to block  1 of record 700


 Point group  D2  



 ATOMIC COORDINATES

 NR  ATOM    CHARGE       X              Y              Z

   1  H       1.00    4.106362989    0.002115789   -1.646298390
   2  H       1.00   -4.106362989   -0.002115789   -1.646298390
   3  H       1.00    4.106362989   -0.002115789    1.646298390
   4  H       1.00   -4.106362989    0.002115789    1.646298390
   5  C       6.00    2.845385327    0.000000000    0.000000000
   6  C       6.00   -2.845385327    0.000000000    0.000000000
   7  C       6.00   -1.267148973    2.370750039   -0.003046840
   8  C       6.00   -1.267148973   -2.370750039    0.003046840
   9  C       6.00    1.267148973   -2.370750039   -0.003046840
  10  C       6.00    1.267148973    2.370750039    0.003046840
  11  H       1.00   -2.270450285    4.159499875   -0.010621367
  12  H       1.00    2.270450285    4.159499875    0.010621367
  13  H       1.00    2.270450285   -4.159499875   -0.010621367
  14  H       1.00   -2.270450285   -4.159499875    0.010621367

 Bond lengths in Bohr (Angstrom)

 1-5  2.073732753  2-6  2.073732753  3-5  2.073732753  4-6  2.073732753  5-9  2.848033536
     ( 1.097372110)     ( 1.097372110)     ( 1.097372110)     ( 1.097372110)     ( 1.507114438)

  5-10  2.848033536   6- 7  2.848033536   6- 8  2.848033536   7-10  2.534305272   7-11  2.050925857
       ( 1.507114438)       ( 1.507114438)       ( 1.507114438)       ( 1.341096591)       ( 1.085303221)

  8- 9  2.534305272   8-14  2.050925857   9-13  2.050925857  10-12  2.050925857
       ( 1.341096591)       ( 1.085303221)       ( 1.085303221)       ( 1.085303221)

 Bond angles

  1- 5- 3  105.09962835   1- 5- 9  109.69191982   1- 5-10  109.69191982   2- 6- 4  105.09962835

  2- 6- 7  109.69191982   2- 6- 8  109.69191982   3- 5- 9  109.69191982   3- 5-10  109.69191982

  4- 6- 7  109.69191982   4- 6- 8  109.69191982   5- 9- 8  123.65186696   5- 9-13  117.06000123

  5-10- 7  123.65186696   5-10-12  117.06000123   6- 7-10  123.65186696   6- 7-11  117.06000123

  6- 8- 9  123.65186696   6- 8-14  117.06000123   7- 6- 8  112.69569146   7-10-12  119.28813181

  8- 9-13  119.28813181   9- 5-10  112.69569146   9- 8-14  119.28813181  10- 7-11  119.28813181

 NUCLEAR CHARGE:                   44
 NUMBER OF PRIMITIVE AOS:         218
 NUMBER OF SYMMETRY AOS:          212
 NUMBER OF CONTRACTIONS:          124   (  32A   +  32B3  +  30B2  +  30B1  )
 NUMBER OF CORE ORBITALS:           6   (   2A   +   2B3  +   1B2  +   1B1  )
 NUMBER OF VALENCE ORBITALS:       32   (   8A   +   8B3  +   8B2  +   8B1  )


 NUCLEAR REPULSION ENERGY  217.49397007


 Eigenvalues of metric

         1 0.348E-02 0.183E-01 0.274E-01 0.392E-01 0.436E-01 0.799E-01 0.992E-01 0.103E+00
         2 0.677E-03 0.317E-02 0.164E-01 0.260E-01 0.321E-01 0.455E-01 0.559E-01 0.651E-01
         3 0.566E-02 0.228E-01 0.258E-01 0.361E-01 0.366E-01 0.536E-01 0.769E-01 0.124E+00
         4 0.170E-02 0.435E-02 0.143E-01 0.312E-01 0.356E-01 0.382E-01 0.610E-01 0.863E-01


 Contracted 2-electron integrals neglected if value below      1.0D-16
 AO integral compression algorithm  1   Integral accuracy      1.0D-16

     86.770 MB (compressed) written to integral file (100.0%)

     Node minimum: 86.770 MB, node maximum: 86.770 MB


 NUMBER OF SORTED TWO-ELECTRON INTEGRALS:    7692069.     BUFFER LENGTH:  32768
 NUMBER OF SEGMENTS:   1  SEGMENT LENGTH:    7692069      RECORD LENGTH: 524288

 Memory used in sort:       8.25 MW

 SORT1 READ    10793040. AND WROTE     7681985. INTEGRALS IN     22 RECORDS. CPU TIME:     0.16 SEC, REAL TIME:     0.21 SEC
 SORT2 READ     7681985. AND WROTE     7692069. INTEGRALS IN    331 RECORDS. CPU TIME:     0.12 SEC, REAL TIME:     0.16 SEC

 FILE SIZES:   FILE 1:    65.0 MBYTE,  FILE 4:    92.3 MBYTE,   TOTAL:    157.3 MBYTE

 OPERATOR DM      FOR CENTER  0  COORDINATES:    0.000000    0.000000    0.000000


 **********************************************************************************************************************************
 DATASETS  * FILE   NREC   LENGTH (MB)   RECORD NAMES
              1      19       65.02       500      610      700      900      950      970     1000      129      960     1100   
                                          VAR    BASINP    GEOM    SYMINP    ZMAT    AOBASIS   BASIS     P2S    ABASIS      S 
                                         1400     1410     1200     1210     1080     1600     1650     1300     1700   
                                           T        V       H0       H01     AOSYM     SMH    MOLCAS    ERIS     OPER   

 PROGRAMS   *        TOTAL       INT
 CPU TIMES  *         2.22      2.18
 REAL TIME  *         2.51 SEC
 DISK USED  *       244.99 MB      
 GA USED    *         0.00 MB       (max)       0.00 MB       (current)
 **********************************************************************************************************************************

1PROGRAM * RHF-SCF (CLOSED SHELL)       Authors: W. Meyer, H.-J. Werner


 NUMBER OF ELECTRONS:      22+   22-
 CONVERGENCE THRESHOLDS:    1.00E-10 (Density)    1.00E-13 (Energy)
 MAX. NUMBER OF ITERATIONS:      200
 INTERPOLATION TYPE:            DIIS
 INTERPOLATION STEPS:              2 (START)      1 (STEP)
 LEVEL SHIFTS:                  0.00 (CLOSED)  0.00 (OPEN) 



 Orbital guess generated from atomic densities. Full valence occupancy:   10  10   9   9

 Molecular orbital dump at record        2100.2

 Initial alpha occupancy:   6   6   5   5
 Initial beta  occupancy:   6   6   5   5
 Wave function symmetry:    1

 ITERATION    DDIFF          GRAD             ENERGY        2-EL.EN.            DIPOLE MOMENTS         DIIS
    1      0.000D+00      0.000D+00      -231.78162759    589.915587    0.00000    0.00000    0.00000    0
    2      0.000D+00      0.891D-02      -231.84374743    585.129913    0.00000    0.00000    0.00000    1
    3      0.181D-01      0.349D-02      -231.85122155    587.431119    0.00000    0.00000    0.00000    2
    4      0.670D-02      0.119D-02      -231.85245569    586.820451    0.00000    0.00000    0.00000    3
    5      0.249D-02      0.122D-03      -231.85247400    586.825685    0.00000    0.00000    0.00000    4
    6      0.459D-03      0.257D-04      -231.85247459    586.822611    0.00000    0.00000    0.00000    5
    7      0.640D-04      0.864D-05      -231.85247465    586.823647    0.00000    0.00000    0.00000    6
    8      0.246D-04      0.170D-05      -231.85247465    586.823533    0.00000    0.00000    0.00000    7
    9      0.587D-05      0.346D-06      -231.85247465    586.823570    0.00000    0.00000    0.00000    6
   10      0.130D-05      0.712D-07      -231.85247465    586.823564    0.00000    0.00000    0.00000    6
   11      0.272D-06      0.105D-07      -231.85247465    586.823566    0.00000    0.00000    0.00000    6
   12      0.307D-07      0.258D-08      -231.85247465    586.823565    0.00000    0.00000    0.00000    6
   13      0.810D-08      0.892D-09      -231.85247465    586.823565    0.00000    0.00000    0.00000    6
   14      0.208D-08      0.282D-09      -231.85247465    586.823565    0.00000    0.00000    0.00000    6
   15      0.787D-09      0.756D-10      -231.85247465    586.823565    0.00000    0.00000    0.00000    6
   16      0.185D-09      0.321D-10      -231.85247465    586.823565    0.00000    0.00000    0.00000    7
   17      0.810D-10      0.106D-10      -231.85247465    586.823565    0.00000    0.00000    0.00000    7
   18      0.308D-10      0.199D-11      -231.85247465    586.823565    0.00000    0.00000    0.00000    0

 Final occupancy:   6   6   5   5

 !RHF STATE 1.1 Energy               -231.852474649959
 Nuclear energy                       217.49397007
 One-electron energy                 -742.75822729
 Two-electron energy                  293.41178257
 Virial quotient                       -1.00129025
 !RHF STATE 1.1 Dipole moment           0.00000000     0.00000000     0.00000000
 Dipole moment /Debye                   0.00000000     0.00000000     0.00000000

 Orbital energies:

         1.1          2.1          3.1          4.1          5.1          6.1          7.1          8.1
    -11.234255   -11.229826    -1.120982    -0.861665    -0.677736    -0.490710     0.173971     0.180871

         1.2          2.2          3.2          4.2          5.2          6.2          7.2          8.2
    -11.234255   -11.228242    -1.004326    -0.655172    -0.531564    -0.358315     0.217534     0.278487

         1.3          2.3          3.3          4.3          5.3          6.3          7.3
    -11.229887    -1.007694    -0.597024    -0.561644    -0.561010     0.192977     0.223658

         1.4          2.4          3.4          4.4          5.4          6.4          7.4
    -11.228276    -0.784425    -0.594839    -0.445848    -0.329633     0.257008     0.257728


 **********************************************************************************************************************************
 DATASETS  * FILE   NREC   LENGTH (MB)   RECORD NAMES
              1      19       65.02       500      610      700      900      950      970     1000      129      960     1100   
                                          VAR    BASINP    GEOM    SYMINP    ZMAT    AOBASIS   BASIS     P2S    ABASIS      S 
                                         1400     1410     1200     1210     1080     1600     1650     1300     1700   
                                           T        V       H0       H01     AOSYM     SMH    MOLCAS    ERIS     OPER   

              2       3        0.58       700     1000     2100   
                                         GEOM     BASIS     RHF  

 PROGRAMS   *        TOTAL       RHF       INT
 CPU TIMES  *         2.54      0.32      2.18
 REAL TIME  *         2.91 SEC
 DISK USED  *       244.99 MB      
 GA USED    *         0.00 MB       (max)       0.00 MB       (current)
 **********************************************************************************************************************************


1PROGRAM * CCSD (Closed-shell coupled cluster)     Authors: C. Hampel, H.-J. Werner, 1991, M. Deegan, P.J. Knowles, 1992


 Convergence thresholds:  THRVAR = 1.00D-08  THRDEN = 1.00D-12

 CCSD(T)     terms to be evaluated (factor= 1.000)


 Number of core orbitals:           6 (   2   2   1   1 )
 Number of closed-shell orbitals:  16 (   4   4   4   4 )
 Number of external orbitals:     102 (  26  26  25  25 )

 Molecular orbitals read from record     2100.2  Type=RHF/CANONICAL (state 1.1)

 Number of N-1 electron functions:              16
 Number of N-2 electron functions:             136
 Number of singly external CSFs:               408
 Number of doubly external CSFs:            333744
 Total number of CSFs:                      334153

 Length of J-op  integral file:               0.00 MB
 Length of K-op  integral file:               0.30 MB
 Length of 3-ext integral record:             0.00 MB

 Memory could be reduced to 6.04 Mwords without degradation in triples

 Integral transformation finished. Total CPU:   0.14 sec, npass=  1  Memory used:   2.01 MW

 Reference energy:                   -231.85247465

 MP2 singlet pair energy:              -0.50669989
 MP2 triplet pair energy:              -0.29380343
 MP2 correlation energy:               -0.80050333
 MP2 total energy:                   -232.65297798

 SCS-MP2 correlation energy:           -0.79085090   (PS=  1.200000  PT=  0.333333)
 SCS-MP2 total energy:               -232.64332555

 ITER.      SQ.NORM     CORR.ENERGY   TOTAL ENERGY   ENERGY CHANGE        DEN1      VAR(S)    VAR(P)  DIIS     TIME
   1      1.31871526    -0.85498181  -232.70745646    -0.05447848    -0.03133492  0.31D-02  0.54D-02  1  1     0.46
   2      1.34701827    -0.86082652  -232.71330117    -0.00584472    -0.02425402  0.69D-04  0.71D-03  2  2     0.79
   3      1.35546669    -0.86114288  -232.71361753    -0.00031636    -0.00388618  0.20D-04  0.69D-04  3  3     1.12
   4      1.35904600    -0.86126507  -232.71373972    -0.00012219    -0.00108636  0.11D-05  0.68D-05  4  4     1.46
   5      1.35989196    -0.86127699  -232.71375164    -0.00001192    -0.00018006  0.51D-07  0.66D-06  5  5     1.79
   6      1.36005174    -0.86126927  -232.71374392     0.00000771    -0.00002609  0.50D-08  0.36D-07  6  6     2.11
   7      1.36006743    -0.86126994  -232.71374459    -0.00000067     0.00000108  0.17D-08  0.32D-08  6  2     2.44
   8      1.36007216    -0.86126980  -232.71374445     0.00000014    -0.00000094  0.57D-10  0.36D-09  6  1     2.78
   9      1.36007221    -0.86126988  -232.71374453    -0.00000007     0.00000045  0.18D-10  0.53D-10  6  3     3.11
  10      1.36007214    -0.86126991  -232.71374456    -0.00000004     0.00000017  0.81D-12  0.84D-11  6  4     3.44
  11      1.36007157    -0.86126995  -232.71374459    -0.00000003     0.00000023  0.86D-13  0.12D-11  6  6     3.77
  12      1.36007146    -0.86126995  -232.71374460    -0.00000001     0.00000005  0.20D-13  0.10D-12  6  5     4.10
  13      1.36007146    -0.86126995  -232.71374460     0.00000000    -0.00000000  0.79D-14  0.16D-13  6  2     4.43
  14      1.36007148    -0.86126995  -232.71374460     0.00000000    -0.00000001  0.58D-15  0.14D-14  6  1     4.77
  15      1.36007149    -0.86126995  -232.71374460     0.00000000    -0.00000000  0.17D-15  0.15D-15  6  3     5.10
  16      1.36007149    -0.86126995  -232.71374460     0.00000000    -0.00000000  0.19D-16  0.24D-16  6  4     5.43
  17      1.36007149    -0.86126995  -232.71374460    -0.00000000     0.00000000  0.36D-17  0.39D-17  6  6     5.77
  18      1.36007149    -0.86126995  -232.71374460    -0.00000000     0.00000000  0.24D-18  0.67D-18  6  5     6.10
  19      1.36007149    -0.86126995  -232.71374460     0.00000000     0.00000000  0.30D-19  0.16D-18  6  2     6.44
  20      1.36007149    -0.86126995  -232.71374460     0.00000000    -0.00000000  0.67D-21  0.27D-19  6  1     6.77
  21      1.36007149    -0.86126995  -232.71374460     0.00000000    -0.00000000  0.15D-21  0.19D-20  6  4     7.11
  22      1.36007149    -0.86126995  -232.71374460     0.00000000    -0.00000000  0.17D-22  0.89D-22  6  3     7.44

 Norm of t1 vector:      0.07905095      S-energy:     0.00000000      T1 diagnostic:  0.00988137
                                                                       D1 diagnostic:  0.02898866

 Doubles amplitudes (print threshold =  0.500E-01):

         I         J         SYM. A    SYM. B    A         B      T(IJ, AB)

         8         8         1         1         1         1     -0.07485758
        16        16         3         3         1         1     -0.05845728
        16         8         1         3         1         1     -0.05009596
        16         8         3         1         1         1     -0.06137686


 Total CPU time for triples:      5.68 sec


 RESULTS
 =======

  Reference energy                   -231.852474649959
  CCSD singlet pair energy             -0.594015691143
  CCSD triplet pair energy             -0.267254259236
  CCSD correlation energy              -0.861269950379

  Triples (T) contribution             -0.032301827633
  Total correlation energy             -0.893571778011

  CCSD total energy                  -232.713744600338
  CCSD[T] energy                     -232.746784441496
  CCSD-T energy                      -232.745725604444
 !CCSD(T) total energy               -232.746046427971

 Timing summary (sec):

 STEP                 CPU(USER)    SYS     CPU(TOT)    WALL
 Transformation          0.14      0.04      0.18      0.19
 CCSD iterations         7.30      0.44      7.74      7.76
 Triples                 5.68      0.18      5.86      5.86

 Program statistics:

 Available memory in ccsd:               999998876
 Min. memory needed in ccsd:                895155
 Max. memory used in ccsd:                 1192763
 Max. memory used in cckext:               1196616 (22 integral passes)



 **********************************************************************************************************************************
 DATASETS  * FILE   NREC   LENGTH (MB)   RECORD NAMES
              1      20       88.80       500      610      700      900      950      970     1000      129      960     1100   
                                          VAR    BASINP    GEOM    SYMINP    ZMAT    AOBASIS   BASIS     P2S    ABASIS      S 
                                         1400     1410     1200     1210     1080     1600     1650     1300     1700     1380   
                                           T        V       H0       H01     AOSYM     SMH    MOLCAS    ERIS     OPER     JKOP   

              2       3        0.58       700     1000     2100   
                                         GEOM     BASIS     RHF  

 PROGRAMS   *        TOTAL   CCSD(T)       RHF       INT
 CPU TIMES  *        15.67     13.13      0.32      2.18
 REAL TIME  *        16.76 SEC
 DISK USED  *       244.99 MB      
 GA USED    *         0.00 MB       (max)       0.00 MB       (current)
 **********************************************************************************************************************************

        CCSD(T)         RHF-SCF 
   -232.74604643   -231.85247465
 **********************************************************************************************************************************
 Variable memory released
