
 Primary working directories    : /tmp/917005.38.gen5.q
 Secondary working directories  : /tmp/917005.38.gen5.q
 Wavefunction directory         : /home/vulcan/lo21740/wfu/
 Main file repository           : /tmp/917005.38.gen5.q/

 ARCHNAME  : Linux/x86_64
 FC        : /opt/intel/compilers_and_libraries_2016.1.150/linux/bin/intel64/ifort
 FCVERSION : 16.0.1
 BLASLIB   : -mkl
 id        : ccgc

 Nodes     nprocs
 n071         1
 ga_uses_ma=false, calling ma_init with nominal heap.
 GA-space will be limited to   8.0 MW (determined by -G option)

 Using customized tuning parameters: mindgm=10; mindgv=16; mindgc=4; mindgr=1; noblas=0; mincuda=1000; minvec=7
 default implementation of scratch files=df  

 ***,Optimization of h2o_2
 memory,1000,m
 gthresh,energy=1.0d-12,orbital=1.0d-10,oneint=1.0d-16,twoint=1.0d-16,optgrad=1.0d-6,compress=1.0d-13
 geomtyp=xyz
 
 bohr
 geometry = {
  C    0.0038728869   -3.4221777803   -0.0019778370
  H   -0.9696737907   -2.7312254235   -1.6867541048
  H   -0.9696724900   -2.7323419656    1.6832566610
  H    1.9488368834   -2.7287867517   -0.0017488555
  H   -0.0086031240   -5.4869373772    0.0057781740
  C   -0.0009540237    3.4221596162    0.0002898106
  H   -0.0030691845    5.4819702751    0.0009722618
  H    0.9702356368    2.7340009012   -1.6808657184
  H    0.9702369344    2.7328870616    1.6809882234
  H   -1.9412097286    2.7304514441    0.0000613848
 }
 
 basis=VDZ
 {rhf;maxit,200}
 {ccsd(t);maxit,200}

 Variables initialized (661), CPU time= 0.01 sec
 Commands  initialized (458), CPU time= 0.01 sec, 486 directives.
 Default parameters read. Elapsed time= 0.08 sec

 Checking input...
 Passed
1


                                         ***  PROGRAM SYSTEM MOLPRO  ***
                         Copyright, University College Cardiff Consultants Limited, 2008

                                    Version 2010.1 linked May 16 2016 07:17:05


 **********************************************************************************************************************************
 LABEL *   Optimization of h2o_2                                                         
 Linux-4.4.3/n071(x86_64) 64 bit mpp version                                             DATE: 19-Jul-23          TIME: 16:07:59  
 **********************************************************************************************************************************

 SHA1:             9e8077add272b0f3cad6f7df79ec5211205f459d
 **********************************************************************************************************************************

 THRESHOLDS:

 ZERO    =  1.00D-12  ONEINT  =  1.00D-16  TWOINT  =  1.00D-16  PREFAC  =  1.00D-14  LOCALI  =  1.00D-09  EORDER  =  1.00D-04
 ENERGY  =  1.00D-12  ETEST   =  0.00D+00  EDENS   =  0.00D+00  THRDEDEF=  1.00D-06  GRADIENT=  1.00D-02  STEP    =  1.00D-03
 ORBITAL =  1.00D-10  CIVEC   =  1.00D-05  COEFF   =  1.00D-04  PRINTCI =  5.00D-02  PUNCHCI =  9.90D+01  OPTGRAD =  1.00D-06
 OPTENERG=  1.00D-06  OPTSTEP =  3.00D-04  THRGRAD =  1.00D-10  COMPRESS=  1.00D-13  VARMIN  =  1.00D-07  VARMAX  =  1.00D-03
 THRDOUB =  0.00D+00  THRDIV  =  1.00D-05  THRRED  =  1.00D-07  THRPSP  =  1.00D+00  THRDC   =  1.00D-10  THRCS   =  1.00D-10
 THRNRM  =  1.00D-08  THREQ   =  0.00D+00  THRDE   =  1.00D+00  THRREF  =  1.00D-05  SPARFAC =  1.00D+00  THRDLP  =  1.00D-07
 THRDIA  =  1.00D-10  THRDLS  =  1.00D-07  THRGPS  =  0.00D+00  THRKEX  =  0.00D+00  THRDIS  =  2.00D-01  THRVAR  =  1.00D-10
 THRLOC  =  1.00D-06  THRGAP  =  1.00D-06  THRLOCT = -1.00D+00  THRGAPT = -1.00D+00  THRORB  =  1.00D-06  THRMLTP =  0.00D+00
 THRCPQCI=  1.00D-10  KEXTA   =  0.00D+00  THRCOARS=  0.00D+00  SYMTOL  =  1.00D-06  GRADTOL =  1.00D-06  THROVL  =  1.00D-08
 THRORTH =  1.00D-08  GRID    =  1.00D-06  GRIDMAX =  1.00D-03  DTMAX   =  0.00D+00

 SETTING GEOMTYP        =    XYZ
 ZUNIT=BOHR
 

 Variable memory set to 1000000000 words,  buffer space   230000 words

 SETTING BASIS          =    VDZ


 Recomputing integrals since basis changed


 Using spherical harmonics

 Library entry C      S cc-pVDZ              selected for orbital group  1
 Library entry C      P cc-pVDZ              selected for orbital group  1
 Library entry C      D cc-pVDZ              selected for orbital group  1
 Library entry H      S cc-pVDZ              selected for orbital group  2
 Library entry H      P cc-pVDZ              selected for orbital group  2

1PROGRAM * SEWARD (Integral evaluation for generally contracted gaussian basis sets)     Author: Roland Lindh, 1990

 Geometry written to block  1 of record 700


 Point group  C1  



 ATOMIC COORDINATES

 NR  ATOM    CHARGE       X              Y              Z

   1  C       6.00    0.003872887   -3.422177780   -0.001977837
   2  H       1.00   -0.969673791   -2.731225424   -1.686754105
   3  H       1.00   -0.969672490   -2.732341966    1.683256661
   4  H       1.00    1.948836883   -2.728786752   -0.001748856
   5  H       1.00   -0.008603124   -5.486937377    0.005778174
   6  C       6.00   -0.000954024    3.422159616    0.000289811
   7  H       1.00   -0.003069185    5.481970275    0.000972262
   8  H       1.00    0.970235637    2.734000901   -1.680865718
   9  H       1.00    0.970236934    2.732887062    1.680988223
  10  H       1.00   -1.941209729    2.730451444    0.000061385

 Bond lengths in Bohr (Angstrom)

 1-2  2.064867881  1-3  2.064867881  1-4  2.064867095  1-5  2.064811856  6-7  2.059811858
     ( 1.092681022)     ( 1.092681022)     ( 1.092680606)     ( 1.092651375)     ( 1.090005490)

  6- 8  2.059867881   6- 9  2.059867881   6-10  2.059867095
       ( 1.090035136)       ( 1.090035136)       ( 1.090034720)

 Bond angles

  2-1-3  109.37975589   2-1-4  109.37963985   2-1-5  109.56223841   3-1-4  109.37963985

  3-1-5  109.15709600   4-1-5  109.96747290   7-6-8  109.56240831   7-6-9  109.56240831

  7- 6-10  109.56250040   8- 6- 9  109.37992579   8- 6-10  109.37980975   9- 6-10  109.37980975

 NUCLEAR CHARGE:                   20
 NUMBER OF PRIMITIVE AOS:         110
 NUMBER OF SYMMETRY AOS:          108
 NUMBER OF CONTRACTIONS:           68   (  68A   )
 NUMBER OF CORE ORBITALS:           2   (   2A   )
 NUMBER OF VALENCE ORBITALS:       16   (  16A   )


 NUCLEAR REPULSION ENERGY   41.30723775


 Eigenvalues of metric

         1 0.113E-01 0.127E-01 0.349E-01 0.350E-01 0.357E-01 0.377E-01 0.385E-01 0.385E-01


 Contracted 2-electron integrals neglected if value below      1.0D-16
 AO integral compression algorithm  1   Integral accuracy      1.0D-16

     21.758 MB (compressed) written to integral file ( 87.0%)

     Node minimum: 21.758 MB, node maximum: 21.758 MB


 NUMBER OF SORTED TWO-ELECTRON INTEGRALS:    2753031.     BUFFER LENGTH:  32768
 NUMBER OF SEGMENTS:   1  SEGMENT LENGTH:    2753031      RECORD LENGTH: 524288

 Memory used in sort:       3.31 MW

 SORT1 READ     3104305. AND WROTE     2689546. INTEGRALS IN      8 RECORDS. CPU TIME:     0.04 SEC, REAL TIME:     0.07 SEC
 SORT2 READ     2689546. AND WROTE     2753031. INTEGRALS IN     83 RECORDS. CPU TIME:     0.07 SEC, REAL TIME:     0.09 SEC

 FILE SIZES:   FILE 1:    21.5 MBYTE,  FILE 4:    33.6 MBYTE,   TOTAL:     55.1 MBYTE

 OPERATOR DM      FOR CENTER  0  COORDINATES:    0.000000    0.000000    0.000000


 **********************************************************************************************************************************
 DATASETS  * FILE   NREC   LENGTH (MB)   RECORD NAMES
              1      19       21.60       500      610      700      900      950      970     1000      129      960     1100   
                                          VAR    BASINP    GEOM    SYMINP    ZMAT    AOBASIS   BASIS     P2S    ABASIS      S 
                                         1400     1410     1200     1210     1080     1600     1650     1300     1700   
                                           T        V       H0       H01     AOSYM     SMH    MOLCAS    ERIS     OPER   

 PROGRAMS   *        TOTAL       INT
 CPU TIMES  *         1.02      0.89
 REAL TIME  *         1.61 SEC
 DISK USED  *        77.66 MB      
 GA USED    *         0.00 MB       (max)       0.00 MB       (current)
 **********************************************************************************************************************************

1PROGRAM * RHF-SCF (CLOSED SHELL)       Authors: W. Meyer, H.-J. Werner


 NUMBER OF ELECTRONS:      10+   10-    SPACE SYMMETRY=1    SPIN SYMMETRY: Singlet 
 CONVERGENCE THRESHOLDS:    1.00E-10 (Density)    1.00E-13 (Energy)
 MAX. NUMBER OF ITERATIONS:      200
 INTERPOLATION TYPE:            DIIS
 INTERPOLATION STEPS:              2 (START)      1 (STEP)
 LEVEL SHIFTS:                  0.00 (CLOSED)  0.00 (OPEN) 



 Orbital guess generated from atomic densities. Full valence occupancy:   18

 Molecular orbital dump at record        2100.2

 ITERATION    DDIFF          GRAD             ENERGY        2-EL.EN.            DIPOLE MOMENTS         DIIS
    1      0.000D+00      0.000D+00       -80.35973998    134.760799   -0.00239   -0.00011    0.00139    0
    2      0.000D+00      0.635D-02       -80.39229483    132.489596   -0.00087   -0.00003    0.00051    1
    3      0.132D-01      0.234D-02       -80.39614518    133.289695   -0.00112   -0.00003    0.00065    2
    4      0.460D-02      0.629D-03       -80.39667333    133.152442   -0.00098   -0.00002    0.00057    3
    5      0.165D-02      0.664D-04       -80.39667785    133.158488   -0.00096   -0.00002    0.00056    4
    6      0.233D-03      0.397D-05       -80.39667787    133.158352   -0.00096   -0.00002    0.00056    5
    7      0.204D-04      0.469D-06       -80.39667787    133.158351   -0.00096   -0.00002    0.00056    5
    8      0.119D-05      0.164D-06       -80.39667787    133.158350   -0.00096   -0.00002    0.00056    5
    9      0.316D-06      0.203D-07       -80.39667787    133.158351   -0.00096   -0.00002    0.00056    5
   10      0.609D-07      0.482D-08       -80.39667787    133.158351   -0.00096   -0.00002    0.00056    5
   11      0.171D-07      0.675D-09       -80.39667787    133.158351   -0.00096   -0.00002    0.00056    6
   12      0.191D-08      0.138D-09       -80.39667787    133.158351   -0.00096   -0.00002    0.00056    6
   13      0.367D-09      0.420D-10       -80.39667787    133.158351   -0.00096   -0.00002    0.00056    6
   14      0.918D-10      0.981D-11       -80.39667787    133.158351   -0.00096   -0.00002    0.00056    6
   15      0.271D-10      0.147D-11       -80.39667787    133.158351   -0.00096   -0.00002    0.00056    6
   16      0.496D-11      0.341D-12       -80.39667787    133.158351   -0.00096   -0.00002    0.00056    6
   17      0.777D-12      0.101D-12       -80.39667787    133.158351   -0.00096   -0.00002    0.00056    0

 Final occupancy:  10

 !RHF STATE 1.1 Energy                -80.396677873336
 Nuclear energy                        41.30723775
 One-electron energy                 -188.28309125
 Two-electron energy                   66.57917562
 Virial quotient                       -1.00248383
 !RHF STATE 1.1 Dipole moment          -0.00096274    -0.00002062     0.00056119
 Dipole moment /Debye                  -0.00244689    -0.00005240     0.00142632

 Orbital energies:

         1.1          2.1          3.1          4.1          5.1          6.1          7.1          8.1          9.1         10.1
    -11.216526   -11.215296    -0.943766    -0.937788    -0.549435    -0.545047    -0.545023    -0.537736    -0.537680    -0.534074

        11.1         12.1
      0.172281     0.229102


 **********************************************************************************************************************************
 DATASETS  * FILE   NREC   LENGTH (MB)   RECORD NAMES
              1      19       21.60       500      610      700      900      950      970     1000      129      960     1100   
                                          VAR    BASINP    GEOM    SYMINP    ZMAT    AOBASIS   BASIS     P2S    ABASIS      S 
                                         1400     1410     1200     1210     1080     1600     1650     1300     1700   
                                           T        V       H0       H01     AOSYM     SMH    MOLCAS    ERIS     OPER   

              2       3        0.51       700     1000     2100   
                                         GEOM     BASIS     RHF  

 PROGRAMS   *        TOTAL       RHF       INT
 CPU TIMES  *         1.47      0.45      0.89
 REAL TIME  *         2.15 SEC
 DISK USED  *        77.66 MB      
 GA USED    *         0.00 MB       (max)       0.00 MB       (current)
 **********************************************************************************************************************************


1PROGRAM * CCSD (Closed-shell coupled cluster)     Authors: C. Hampel, H.-J. Werner, 1991, M. Deegan, P.J. Knowles, 1992


 Convergence thresholds:  THRVAR = 1.00D-08  THRDEN = 1.00D-12

 CCSD(T)     terms to be evaluated (factor= 1.000)


 Number of core orbitals:           2 (   2 )
 Number of closed-shell orbitals:   8 (   8 )
 Number of external orbitals:      58 (  58 )

 Molecular orbitals read from record     2100.2  Type=RHF/CANONICAL (state 1.1)

 Number of N-1 electron functions:               8
 Number of N-2 electron functions:              36
 Number of singly external CSFs:               464
 Number of doubly external CSFs:            107880
 Total number of CSFs:                      108345

 Length of J-op  integral file:               0.00 MB
 Length of K-op  integral file:               0.35 MB
 Length of 3-ext integral record:             0.00 MB

 Memory could be reduced to 2.66 Mwords without degradation in triples

 Integral transformation finished. Total CPU:   0.08 sec, npass=  1  Memory used:   1.86 MW

 Reference energy:                    -80.39667787

 MP2 singlet pair energy:              -0.23220474
 MP2 triplet pair energy:              -0.09154714
 MP2 correlation energy:               -0.32375188
 MP2 total energy:                    -80.72042976

 SCS-MP2 correlation energy:           -0.33560836   (PS=  1.200000  PT=  0.333333)
 SCS-MP2 total energy:                -80.73228623

 ITER.      SQ.NORM     CORR.ENERGY   TOTAL ENERGY   ENERGY CHANGE        DEN1      VAR(S)    VAR(P)  DIIS     TIME
   1      1.13440968    -0.36768294   -80.76436082    -0.04393106    -0.03298612  0.50D-03  0.24D-02  1  1     0.23
   2      1.14706611    -0.37049050   -80.76716838    -0.00280756    -0.01279166  0.15D-04  0.97D-04  2  2     0.39
   3      1.14886966    -0.37066332   -80.76734120    -0.00017282    -0.00095991  0.18D-05  0.56D-05  3  3     0.55
   4      1.14924143    -0.37068365   -80.76736153    -0.00002033    -0.00016760  0.25D-07  0.36D-06  4  4     0.71
   5      1.14928781    -0.37068117   -80.76735904     0.00000249    -0.00002410  0.19D-08  0.18D-07  5  5     0.87
   6      1.14928908    -0.37068111   -80.76735898     0.00000005    -0.00000007  0.20D-09  0.12D-08  6  6     1.02
   7      1.14928917    -0.37068137   -80.76735925    -0.00000026     0.00000013  0.13D-10  0.73D-10  6  1     1.19
   8      1.14928934    -0.37068137   -80.76735924     0.00000001    -0.00000013  0.15D-11  0.42D-11  6  2     1.34
   9      1.14928937    -0.37068135   -80.76735923     0.00000001    -0.00000003  0.15D-12  0.26D-12  6  3     1.50
  10      1.14928936    -0.37068135   -80.76735923     0.00000000     0.00000001  0.12D-13  0.24D-13  6  4     1.66
  11      1.14928935    -0.37068135   -80.76735923    -0.00000000     0.00000001  0.82D-15  0.20D-14  6  5     1.82
  12      1.14928934    -0.37068135   -80.76735923    -0.00000000     0.00000000  0.44D-16  0.23D-15  6  6     1.97
  13      1.14928934    -0.37068135   -80.76735923    -0.00000000     0.00000000  0.35D-17  0.28D-16  6  1     2.13
  14      1.14928934    -0.37068135   -80.76735923     0.00000000     0.00000000  0.61D-18  0.38D-17  6  2     2.30
  15      1.14928934    -0.37068135   -80.76735923     0.00000000     0.00000000  0.74D-19  0.38D-18  6  3     2.46
  16      1.14928934    -0.37068135   -80.76735923    -0.00000000     0.00000000  0.16D-20  0.21D-19  6  5     2.62
  17      1.14928934    -0.37068135   -80.76735923    -0.00000000     0.00000000  0.19D-21  0.58D-21  6  4     2.78
  18      1.14928934    -0.37068135   -80.76735923     0.00000000    -0.00000000  0.47D-22  0.54D-22  6  6     2.94

 Norm of t1 vector:      0.03068111      S-energy:     0.00000000      T1 diagnostic:  0.00542370
                                                                       D1 diagnostic:  0.00880081


 Total CPU time for triples:      1.27 sec


 RESULTS
 =======

  Reference energy                    -80.396677873336
  CCSD singlet pair energy             -0.282039110529
  CCSD triplet pair energy             -0.088642243444
  CCSD correlation energy              -0.370681353972

  Triples (T) contribution             -0.007550156983
  Total correlation energy             -0.378231510956

  CCSD total energy                   -80.767359227309
  CCSD[T] energy                      -80.775086689866
  CCSD-T energy                       -80.774814421575
 !CCSD(T) total energy                -80.774909384292

 Timing summary (sec):

 STEP                 CPU(USER)    SYS     CPU(TOT)    WALL
 Transformation          0.09      0.01      0.10      0.11
 CCSD iterations         2.85      0.19      3.04      3.07
 Triples                 1.27      0.03      1.30      1.31

 Program statistics:

 Available memory in ccsd:               999999644
 Min. memory needed in ccsd:                356281
 Max. memory used in ccsd:                  442401
 Max. memory used in cckext:                403930 (18 integral passes)



 **********************************************************************************************************************************
 DATASETS  * FILE   NREC   LENGTH (MB)   RECORD NAMES
              1      20       30.06       500      610      700      900      950      970     1000      129      960     1100   
                                          VAR    BASINP    GEOM    SYMINP    ZMAT    AOBASIS   BASIS     P2S    ABASIS      S 
                                         1400     1410     1200     1210     1080     1600     1650     1300     1700     1380   
                                           T        V       H0       H01     AOSYM     SMH    MOLCAS    ERIS     OPER     JKOP   

              2       3        0.51       700     1000     2100   
                                         GEOM     BASIS     RHF  

 PROGRAMS   *        TOTAL   CCSD(T)       RHF       INT
 CPU TIMES  *         5.70      4.22      0.45      0.89
 REAL TIME  *         6.66 SEC
 DISK USED  *        77.66 MB      
 GA USED    *         0.00 MB       (max)       0.00 MB       (current)
 **********************************************************************************************************************************

        CCSD(T)         RHF-SCF 
    -80.77490938    -80.39667787
 **********************************************************************************************************************************
 Variable memory released
