
 Primary working directories    : /tmp/943417.509.gen6.q
 Secondary working directories  : /tmp/943417.509.gen6.q
 Wavefunction directory         : /home/vulcan/mel64643/wfu/
 Main file repository           : /tmp/943417.509.gen6.q/

 ARCHNAME  : Linux/x86_64
 FC        : /opt/intel/compilers_and_libraries_2016.1.150/linux/bin/intel64/ifort
 FCVERSION : 16.0.1
 BLASLIB   : -mkl
 id        : ccgc

 Nodes     nprocs
 n084         1
 ga_uses_ma=false, calling ma_init with nominal heap.
 GA-space will be limited to   8.0 MW (determined by -G option)

 Using customized tuning parameters: mindgm=10; mindgv=16; mindgc=4; mindgr=1; noblas=0; mincuda=1000; minvec=7
 default implementation of scratch files=df  

 ***,Optimization of nh3_nitrosmethane
 memory,1000,m
 gthresh,energy=1.0d-12,orbital=1.0d-10,oneint=1.0d-16,twoint=1.0d-16,optgrad=1.0d-6,compress=1.0d-13
 geomtyp=xyz
 
 bohr
 geometry = {
  N   -5.2233872194   -0.1848333147   -0.0056825748
  H   -6.2948258915    0.2428074947   -1.5385487408
  H   -3.7594169566    1.0586184750    0.0075886819
  H   -6.3008452642    0.2171450005    1.5299064876
  H   -0.9251580453   -2.3992712904    0.0077548521
  H    1.8668250514   -3.4359109385   -1.6660919640
  H    1.8967074021   -3.4320233754    1.6671478712
  C    1.1353521597   -2.4696598049    0.0060948501
  N    2.2661625510    0.0979771911   -0.0070373967
  O    0.7027047028    1.7822075715   -0.0011320666
 }
 
 basis=cc-pvdz
 {rhf;maxit,200}
 {ccsd(t);maxit,200}

 Variables initialized (661), CPU time= 0.01 sec
 Commands  initialized (458), CPU time= 0.00 sec, 486 directives.
 Default parameters read. Elapsed time= 0.04 sec

 Checking input...
 Passed
1


                                         ***  PROGRAM SYSTEM MOLPRO  ***
                         Copyright, University College Cardiff Consultants Limited, 2008

                                    Version 2010.1 linked May 16 2016 07:17:05


 **********************************************************************************************************************************
 LABEL *   Optimization of nh3_nitrosmethane                                             
 Linux-4.4.3/n084(x86_64) 64 bit mpp version                                             DATE: 25-Oct-23          TIME: 17:27:19  
 **********************************************************************************************************************************

 SHA1:             9e8077add272b0f3cad6f7df79ec5211205f459d
 **********************************************************************************************************************************

 THRESHOLDS:

 ZERO    =  1.00D-12  ONEINT  =  1.00D-16  TWOINT  =  1.00D-16  PREFAC  =  1.00D-14  LOCALI  =  1.00D-09  EORDER  =  1.00D-04
 ENERGY  =  1.00D-12  ETEST   =  0.00D+00  EDENS   =  0.00D+00  THRDEDEF=  1.00D-06  GRADIENT=  1.00D-02  STEP    =  1.00D-03
 ORBITAL =  1.00D-10  CIVEC   =  1.00D-05  COEFF   =  1.00D-04  PRINTCI =  5.00D-02  PUNCHCI =  9.90D+01  OPTGRAD =  1.00D-06
 OPTENERG=  1.00D-06  OPTSTEP =  3.00D-04  THRGRAD =  1.00D-10  COMPRESS=  1.00D-13  VARMIN  =  1.00D-07  VARMAX  =  1.00D-03
 THRDOUB =  0.00D+00  THRDIV  =  1.00D-05  THRRED  =  1.00D-07  THRPSP  =  1.00D+00  THRDC   =  1.00D-10  THRCS   =  1.00D-10
 THRNRM  =  1.00D-08  THREQ   =  0.00D+00  THRDE   =  1.00D+00  THRREF  =  1.00D-05  SPARFAC =  1.00D+00  THRDLP  =  1.00D-07
 THRDIA  =  1.00D-10  THRDLS  =  1.00D-07  THRGPS  =  0.00D+00  THRKEX  =  0.00D+00  THRDIS  =  2.00D-01  THRVAR  =  1.00D-10
 THRLOC  =  1.00D-06  THRGAP  =  1.00D-06  THRLOCT = -1.00D+00  THRGAPT = -1.00D+00  THRORB  =  1.00D-06  THRMLTP =  0.00D+00
 THRCPQCI=  1.00D-10  KEXTA   =  0.00D+00  THRCOARS=  0.00D+00  SYMTOL  =  1.00D-06  GRADTOL =  1.00D-06  THROVL  =  1.00D-08
 THRORTH =  1.00D-08  GRID    =  1.00D-06  GRIDMAX =  1.00D-03  DTMAX   =  0.00D+00

 SETTING GEOMTYP        =    XYZ
 ZUNIT=BOHR
 

 Variable memory set to 1000000000 words,  buffer space   230000 words

 SETTING BASIS          =    CC-PVDZ


 Recomputing integrals since basis changed


 Using spherical harmonics

 Library entry N      S cc-pVDZ              selected for orbital group  1
 Library entry N      P cc-pVDZ              selected for orbital group  1
 Library entry N      D cc-pVDZ              selected for orbital group  1
 Library entry H      S cc-pVDZ              selected for orbital group  2
 Library entry H      P cc-pVDZ              selected for orbital group  2
 Library entry C      S cc-pVDZ              selected for orbital group  3
 Library entry C      P cc-pVDZ              selected for orbital group  3
 Library entry C      D cc-pVDZ              selected for orbital group  3
 Library entry O      S cc-pVDZ              selected for orbital group  5
 Library entry O      P cc-pVDZ              selected for orbital group  5
 Library entry O      D cc-pVDZ              selected for orbital group  5

1PROGRAM * SEWARD (Integral evaluation for generally contracted gaussian basis sets)     Author: Roland Lindh, 1990

 Geometry written to block  1 of record 700


 Point group  C1  



 ATOMIC COORDINATES

 NR  ATOM    CHARGE       X              Y              Z

   1  N       7.00   -5.223387219   -0.184833315   -0.005682575
   2  H       1.00   -6.294825892    0.242807495   -1.538548741
   3  H       1.00   -3.759416957    1.058618475    0.007588682
   4  H       1.00   -6.300845264    0.217145000    1.529906488
   5  H       1.00   -0.925158045   -2.399271290    0.007754852
   6  H       1.00    1.866825051   -3.435910939   -1.666091964
   7  H       1.00    1.896707402   -3.432023375    1.667147871
   8  C       6.00    1.135352160   -2.469659805    0.006094850
   9  N       7.00    2.266162551    0.097977191   -0.007037397
  10  O       8.00    0.702704703    1.782207572   -0.001132067

 Bond lengths in Bohr (Angstrom)

 1-2  1.918472354  1-3  1.920822066  1-4  1.918472354  5-8  2.061712784  6-8  2.065164058
     ( 1.015211846)     ( 1.016455260)     ( 1.015211846)     ( 1.091011417)     ( 1.092837752)

  7- 8  2.065164058   8- 9  2.805648649   9-10  2.298057286
       ( 1.092837752)       ( 1.484685321)       ( 1.216079541)

 Bond angles

  2-1-3  106.67095378   2-1-4  106.21107418   3-1-4  106.67095378   5-8-6  111.75356309

  5-8-7  112.56384404   5-8-9  111.81259323   6-8-7  107.61715628   6-8-9  106.35819341

  7- 8- 9  106.35819139   8- 9-10  113.35946295

 NUCLEAR CHARGE:                   34
 NUMBER OF PRIMITIVE AOS:         150
 NUMBER OF SYMMETRY AOS:          146
 NUMBER OF CONTRACTIONS:           86   (  86A   )
 NUMBER OF CORE ORBITALS:           4   (   4A   )
 NUMBER OF VALENCE ORBITALS:       22   (  22A   )


 NUCLEAR REPULSION ENERGY  117.39095721


 Eigenvalues of metric

         1 0.629E-02 0.972E-02 0.152E-01 0.180E-01 0.298E-01 0.370E-01 0.392E-01 0.407E-01


 Contracted 2-electron integrals neglected if value below      1.0D-16
 AO integral compression algorithm  1   Integral accuracy      1.0D-16

     53.215 MB (compressed) written to integral file ( 83.0%)

     Node minimum: 53.215 MB, node maximum: 53.215 MB


 NUMBER OF SORTED TWO-ELECTRON INTEGRALS:    6999411.     BUFFER LENGTH:  32768
 NUMBER OF SEGMENTS:   1  SEGMENT LENGTH:    6999411      RECORD LENGTH: 524288

 Memory used in sort:       7.56 MW

 SORT1 READ     8004502. AND WROTE     6870976. INTEGRALS IN     20 RECORDS. CPU TIME:     0.07 SEC, REAL TIME:     0.10 SEC
 SORT2 READ     6870976. AND WROTE     6999411. INTEGRALS IN    203 RECORDS. CPU TIME:     0.08 SEC, REAL TIME:     0.11 SEC

 FILE SIZES:   FILE 1:    48.9 MBYTE,  FILE 4:    83.9 MBYTE,   TOTAL:    132.8 MBYTE

 OPERATOR DM      FOR CENTER  0  COORDINATES:    0.000000    0.000000    0.000000


 **********************************************************************************************************************************
 DATASETS  * FILE   NREC   LENGTH (MB)   RECORD NAMES
              1      19       48.96       500      610      700      900      950      970     1000      129      960     1100   
                                          VAR    BASINP    GEOM    SYMINP    ZMAT    AOBASIS   BASIS     P2S    ABASIS      S 
                                         1400     1410     1200     1210     1080     1600     1650     1300     1700   
                                           T        V       H0       H01     AOSYM     SMH    MOLCAS    ERIS     OPER   

 PROGRAMS   *        TOTAL       INT
 CPU TIMES  *         0.77      0.73
 REAL TIME  *         1.04 SEC
 DISK USED  *       186.78 MB      
 GA USED    *         0.00 MB       (max)       0.00 MB       (current)
 **********************************************************************************************************************************

1PROGRAM * RHF-SCF (CLOSED SHELL)       Authors: W. Meyer, H.-J. Werner


 NUMBER OF ELECTRONS:      17+   17-    SPACE SYMMETRY=1    SPIN SYMMETRY: Singlet 
 CONVERGENCE THRESHOLDS:    1.00E-10 (Density)    1.00E-13 (Energy)
 MAX. NUMBER OF ITERATIONS:      200
 INTERPOLATION TYPE:            DIIS
 INTERPOLATION STEPS:              2 (START)      1 (STEP)
 LEVEL SHIFTS:                  0.00 (CLOSED)  0.00 (OPEN) 



 Orbital guess generated from atomic densities. Full valence occupancy:   26

 Molecular orbital dump at record        2100.2

 ITERATION    DDIFF          GRAD             ENERGY        2-EL.EN.            DIPOLE MOMENTS         DIIS
    1      0.000D+00      0.000D+00      -224.94600391    393.798386    0.10268   -0.57103    0.00460    0
    2      0.000D+00      0.101D-01      -225.00728505    393.249817   -0.59260   -0.30291    0.00656    1
    3      0.189D-01      0.693D-02      -225.03994702    393.766180   -0.25005   -0.51451    0.00542    2
    4      0.825D-02      0.139D-02      -225.04210939    393.657510   -0.32896   -0.42281    0.00587    3
    5      0.216D-02      0.531D-03      -225.04248608    393.653452   -0.33027   -0.44942    0.00592    4
    6      0.908D-03      0.129D-03      -225.04252262    393.675755   -0.33515   -0.44761    0.00597    5
    7      0.304D-03      0.512D-04      -225.04252842    393.663545   -0.33674   -0.44783    0.00599    6
    8      0.124D-03      0.198D-04      -225.04252927    393.669111   -0.33752   -0.44781    0.00599    7
    9      0.433D-04      0.826D-05      -225.04252945    393.667771   -0.33770   -0.44750    0.00600    8
   10      0.226D-04      0.230D-05      -225.04252946    393.667592   -0.33776   -0.44734    0.00600    8
   11      0.659D-05      0.696D-06      -225.04252946    393.667643   -0.33777   -0.44727    0.00600    8
   12      0.188D-05      0.225D-06      -225.04252946    393.667606   -0.33778   -0.44725    0.00600    8
   13      0.767D-06      0.789D-07      -225.04252946    393.667600   -0.33778   -0.44725    0.00600    8
   14      0.197D-06      0.469D-07      -225.04252946    393.667602   -0.33778   -0.44725    0.00600    8
   15      0.128D-06      0.257D-07      -225.04252946    393.667602   -0.33778   -0.44725    0.00600    8
   16      0.846D-07      0.185D-07      -225.04252946    393.667601   -0.33778   -0.44725    0.00600    9
   17      0.141D-06      0.802D-08      -225.04252946    393.667602   -0.33778   -0.44725    0.00600    9
   18      0.746D-07      0.199D-08      -225.04252946    393.667602   -0.33778   -0.44725    0.00600    9
   19      0.893D-08      0.606D-09      -225.04252946    393.667602   -0.33778   -0.44725    0.00600    9
   20      0.151D-08      0.176D-09      -225.04252946    393.667602   -0.33778   -0.44725    0.00600    9
   21      0.430D-09      0.447D-10      -225.04252946    393.667602   -0.33778   -0.44725    0.00600    9
   22      0.123D-09      0.169D-10      -225.04252946    393.667602   -0.33778   -0.44725    0.00600    9
   23      0.400D-10      0.758D-11      -225.04252946    393.667602   -0.33778   -0.44725    0.00600    9
   24      0.194D-10      0.343D-11      -225.04252946    393.667602   -0.33778   -0.44725    0.00600    8
   25      0.902D-11      0.152D-11      -225.04252946    393.667602   -0.33778   -0.44725    0.00600    8
   26      0.413D-11      0.576D-12      -225.04252946    393.667602   -0.33778   -0.44725    0.00600    8
   27      0.129D-11      0.384D-12      -225.04252946    393.667602   -0.33778   -0.44725    0.00600    8
   28      0.122D-11      0.276D-12      -225.04252946    393.667602   -0.33778   -0.44725    0.00600    9
   29      0.229D-11      0.116D-12      -225.04252946    393.667602   -0.33778   -0.44725    0.00600    9
   30      0.816D-12      0.419D-13      -225.04252946    393.667602   -0.33778   -0.44725    0.00600    9
   31      0.265D-12      0.162D-13      -225.04252946    393.667602   -0.33778   -0.44725    0.00600    0

 Final occupancy:  17

 !RHF STATE 1.1 Energy               -225.042529463106
 Nuclear energy                       117.39095721
 One-electron energy                 -539.26728751
 Two-electron energy                  196.83380084
 Virial quotient                       -1.00156600
 !RHF STATE 1.1 Dipole moment          -0.33777911    -0.44724994     0.00600200
 Dipole moment /Debye                  -0.85849263    -1.13672151     0.01525457

 Orbital energies:

         1.1          2.1          3.1          4.1          5.1          6.1          7.1          8.1          9.1         10.1
    -20.626034   -15.699081   -15.537300   -11.265784    -1.506742    -1.130662    -1.070069    -0.855386    -0.684658    -0.667633

        11.1         12.1         13.1         14.1         15.1         16.1         17.1         18.1         19.1
     -0.630883    -0.615004    -0.613820    -0.550648    -0.527770    -0.420149    -0.398219     0.109520     0.187008


 **********************************************************************************************************************************
 DATASETS  * FILE   NREC   LENGTH (MB)   RECORD NAMES
              1      19       48.96       500      610      700      900      950      970     1000      129      960     1100   
                                          VAR    BASINP    GEOM    SYMINP    ZMAT    AOBASIS   BASIS     P2S    ABASIS      S 
                                         1400     1410     1200     1210     1080     1600     1650     1300     1700   
                                           T        V       H0       H01     AOSYM     SMH    MOLCAS    ERIS     OPER   

              2       3        0.57       700     1000     2100   
                                         GEOM     BASIS     RHF  

 PROGRAMS   *        TOTAL       RHF       INT
 CPU TIMES  *         2.18      1.41      0.73
 REAL TIME  *         2.63 SEC
 DISK USED  *       186.78 MB      
 GA USED    *         0.00 MB       (max)       0.00 MB       (current)
 **********************************************************************************************************************************


1PROGRAM * CCSD (Closed-shell coupled cluster)     Authors: C. Hampel, H.-J. Werner, 1991, M. Deegan, P.J. Knowles, 1992


 Convergence thresholds:  THRVAR = 1.00D-08  THRDEN = 1.00D-12

 CCSD(T)     terms to be evaluated (factor= 1.000)


 Number of core orbitals:           4 (   4 )
 Number of closed-shell orbitals:  13 (  13 )
 Number of external orbitals:      69 (  69 )

 Molecular orbitals read from record     2100.2  Type=RHF/CANONICAL (state 1.1)

 Number of N-1 electron functions:              13
 Number of N-2 electron functions:              91
 Number of singly external CSFs:               897
 Number of doubly external CSFs:            402753
 Total number of CSFs:                      403651

 Length of J-op  integral file:               0.00 MB
 Length of K-op  integral file:               0.54 MB
 Length of 3-ext integral record:             0.00 MB

 Memory could be reduced to 6.46 Mwords without degradation in triples

 Integral transformation finished. Total CPU:   0.25 sec, npass=  1  Memory used:   5.81 MW

 Reference energy:                   -225.04252946

 MP2 singlet pair energy:              -0.42990182
 MP2 triplet pair energy:              -0.25005860
 MP2 correlation energy:               -0.67996042
 MP2 total energy:                   -225.72248989

 SCS-MP2 correlation energy:           -0.67147421   (PS=  1.200000  PT=  0.333333)
 SCS-MP2 total energy:               -225.71400367

 ITER.      SQ.NORM     CORR.ENERGY   TOTAL ENERGY   ENERGY CHANGE        DEN1      VAR(S)    VAR(P)  DIIS     TIME
   1      1.22681159    -0.71575271  -225.75828218    -0.03579229    -0.01323981  0.44D-02  0.46D-02  1  1     0.92
   2      1.24749432    -0.71906331  -225.76159278    -0.00331060    -0.02058348  0.13D-03  0.82D-03  2  2     1.61
   3      1.25646398    -0.71975122  -225.76228068    -0.00068791    -0.00431104  0.10D-03  0.59D-04  3  3     2.29
   4      1.26019038    -0.71974213  -225.76227160     0.00000909    -0.00126898  0.77D-05  0.10D-04  4  4     2.98
   5      1.26162386    -0.71976179  -225.76229125    -0.00001965    -0.00032495  0.14D-05  0.17D-05  5  5     3.66
   6      1.26202329    -0.71973412  -225.76226358     0.00002767    -0.00004701  0.78D-07  0.36D-06  6  6     4.34
   7      1.26211371    -0.71973228  -225.76226175     0.00000183    -0.00000209  0.20D-07  0.96D-07  6  2     5.02
   8      1.26213615    -0.71973236  -225.76226182    -0.00000008     0.00000226  0.86D-08  0.24D-07  6  5     5.70
   9      1.26213138    -0.71973323  -225.76226269    -0.00000087     0.00000162  0.17D-08  0.27D-08  6  1     6.38
  10      1.26213133    -0.71973349  -225.76226296    -0.00000027    -0.00000145  0.39D-09  0.30D-09  6  3     7.07
  11      1.26212981    -0.71973376  -225.76226322    -0.00000027     0.00000088  0.78D-10  0.49D-10  6  4     7.75
  12      1.26212908    -0.71973382  -225.76226329    -0.00000006     0.00000022  0.19D-10  0.11D-10  6  6     8.44
  13      1.26212834    -0.71973386  -225.76226332    -0.00000003     0.00000017  0.36D-11  0.17D-11  6  2     9.12
  14      1.26212797    -0.71973388  -225.76226334    -0.00000002     0.00000012  0.82D-12  0.48D-12  6  1     9.80
  15      1.26212770    -0.71973388  -225.76226335    -0.00000001     0.00000005  0.16D-12  0.79D-13  6  5    10.48
  16      1.26212764    -0.71973389  -225.76226335    -0.00000000     0.00000001  0.90D-13  0.32D-13  6  3    11.16
  17      1.26212761    -0.71973389  -225.76226335    -0.00000000     0.00000001  0.54D-13  0.12D-13  6  4    11.86
  18      1.26212759    -0.71973389  -225.76226335    -0.00000000    -0.00000000  0.33D-13  0.44D-14  6  6    12.54
  19      1.26212759    -0.71973389  -225.76226335    -0.00000000    -0.00000000  0.15D-13  0.20D-14  6  2    13.23
  20      1.26212759    -0.71973389  -225.76226335     0.00000000     0.00000000  0.57D-14  0.13D-14  6  1    13.91
  21      1.26212760    -0.71973389  -225.76226335     0.00000000    -0.00000000  0.13D-14  0.71D-15  6  3    14.60
  22      1.26212760    -0.71973389  -225.76226335     0.00000000     0.00000000  0.21D-15  0.19D-15  6  5    15.28
  23      1.26212760    -0.71973389  -225.76226335     0.00000000    -0.00000000  0.57D-16  0.60D-16  6  4    15.97
  24      1.26212760    -0.71973389  -225.76226335    -0.00000000     0.00000000  0.32D-17  0.13D-16  6  6    16.65
  25      1.26212760    -0.71973389  -225.76226335     0.00000000    -0.00000000  0.79D-18  0.36D-17  6  2    17.33
  26      1.26212760    -0.71973389  -225.76226335     0.00000000    -0.00000000  0.13D-18  0.32D-18  6  5    18.02
  27      1.26212760    -0.71973389  -225.76226335    -0.00000000    -0.00000000  0.73D-19  0.56D-19  6  1    18.71
  28      1.26212760    -0.71973389  -225.76226335     0.00000000    -0.00000000  0.13D-19  0.75D-20  6  3    19.39
  29      1.26212760    -0.71973389  -225.76226335     0.00000000    -0.00000000  0.44D-20  0.15D-20  6  4    20.08
  30      1.26212760    -0.71973389  -225.76226335     0.00000000    -0.00000000  0.27D-20  0.54D-21  6  6    20.76
  31      1.26212760    -0.71973389  -225.76226335     0.00000000    -0.00000000  0.12D-20  0.18D-21  6  2    21.45

 Norm of t1 vector:      0.10008054      S-energy:     0.00000000      T1 diagnostic:  0.01387867
                                                                       D1 diagnostic:  0.05075633

 Doubles amplitudes (print threshold =  0.500E-01):

         I         J         SYM. A    SYM. B    A         B      T(IJ, AB)

         7         7         1         1         1         1     -0.06082195
        11         7         1         1         1         1     -0.06594342
        11        11         1         1         1         1     -0.09628910


 Total CPU time for triples:      6.18 sec


 RESULTS
 =======

  Reference energy                   -225.042529463106
  CCSD singlet pair energy             -0.499050703987
  CCSD triplet pair energy             -0.220683185565
  CCSD correlation energy              -0.719733889552

  Triples (T) contribution             -0.021672090805
  Total correlation energy             -0.741405980357

  CCSD total energy                  -225.762263352658
  CCSD[T] energy                     -225.785310178605
  CCSD-T energy                      -225.783532085462
 !CCSD(T) total energy               -225.783935443463

 Timing summary (sec):

 STEP                 CPU(USER)    SYS     CPU(TOT)    WALL
 Transformation          0.27      0.04      0.31      0.31
 CCSD iterations        21.18      0.68     21.86     21.93
 Triples                 6.18      0.13      6.31      6.32

 Program statistics:

 Available memory in ccsd:               999999224
 Min. memory needed in ccsd:               1143606
 Max. memory used in ccsd:                 1480488
 Max. memory used in cckext:               1471436 (31 integral passes)



 **********************************************************************************************************************************
 DATASETS  * FILE   NREC   LENGTH (MB)   RECORD NAMES
              1      20       74.58       500      610      700      900      950      970     1000      129      960     1100   
                                          VAR    BASINP    GEOM    SYMINP    ZMAT    AOBASIS   BASIS     P2S    ABASIS      S 
                                         1400     1410     1200     1210     1080     1600     1650     1300     1700     1380   
                                           T        V       H0       H01     AOSYM     SMH    MOLCAS    ERIS     OPER     JKOP   

              2       3        0.57       700     1000     2100   
                                         GEOM     BASIS     RHF  

 PROGRAMS   *        TOTAL   CCSD(T)       RHF       INT
 CPU TIMES  *        29.83     27.65      1.41      0.73
 REAL TIME  *        31.22 SEC
 DISK USED  *       199.42 MB      
 GA USED    *         0.00 MB       (max)       0.00 MB       (current)
 **********************************************************************************************************************************

        CCSD(T)         RHF-SCF 
   -225.78393544   -225.04252946
 **********************************************************************************************************************************
 Variable memory released
