
 Primary working directories    : /tmp/1049502.1810.gen4.q
 Secondary working directories  : /tmp/1049502.1810.gen4.q
 Wavefunction directory         : /home/vulcan/jj04645/wfu/
 Main file repository           : /tmp/1049502.1810.gen4.q/

 ARCHNAME  : Linux/x86_64
 FC        : /opt/intel/compilers_and_libraries_2016.1.150/linux/bin/intel64/ifort
 FCVERSION : 16.0.1
 BLASLIB   : -mkl
 id        : ccgc

 Nodes     nprocs
 n065         1
 ga_uses_ma=false, calling ma_init with nominal heap.
 GA-space will be limited to   8.0 MW (determined by -G option)

 Using customized tuning parameters: mindgm=10; mindgv=16; mindgc=4; mindgr=1; noblas=0; mincuda=1000; minvec=7
 default implementation of scratch files=df  

 ***,Optimization of neopentane
 memory,1000,m
 gthresh,energy=1.0d-12,orbital=1.0d-10,oneint=1.0d-16,twoint=1.0d-16,optgrad=1.0d-6,compress=1.0d-13
 geomtyp=xyz
 
 bohr
 geometry = {
  C    0.0011664934   -0.0011664934   -0.0000000000
  C    2.3666067263   -0.0011681275   -1.6726222956
  C    0.0011681275   -2.3666067263    1.6726222956
  C    0.0011681275    2.3642770077    1.6726176738
  C   -2.3642770077   -0.0011681275   -1.6726176738
  H    2.4085175703    1.6701953983   -2.8883309469
  H   -1.6701953983   -2.4085175703    2.8883309469
  H    1.6725251210    2.4061812733    2.8883355324
  H   -2.4061812733   -1.6725251210   -2.8883355324
  H    4.0869433071    0.0022798589   -0.5265026508
  H   -0.0022798589   -4.0869433071    0.5265026508
  H   -0.0052969049    4.0846068780    0.5265010039
  H   -4.0846068780    0.0052969049   -0.5265010039
  H    2.4004621360   -1.6730400355   -2.8878828497
  H    1.6730400355   -2.4004621360    2.8878828497
  H   -1.6756679011    2.4030924224    2.8808702865
  H   -2.4030924224    1.6756679011   -2.8808702865
 }
 
 basis=VDZ
 {rhf;maxit,200}
 {ccsd(t);maxit,200}

 Variables initialized (661), CPU time= 0.00 sec
 Commands  initialized (458), CPU time= 0.00 sec, 486 directives.
 Default parameters read. Elapsed time= 0.05 sec

 Checking input...
 Passed
1


                                         ***  PROGRAM SYSTEM MOLPRO  ***
                         Copyright, University College Cardiff Consultants Limited, 2008

                                    Version 2010.1 linked May 16 2016 07:17:05


 **********************************************************************************************************************************
 LABEL *   Optimization of neopentane                                                    
 Linux-4.4.3/n065(x86_64) 64 bit mpp version                                             DATE: 31-Mar-24          TIME: 03:21:52  
 **********************************************************************************************************************************

 SHA1:             9e8077add272b0f3cad6f7df79ec5211205f459d
 **********************************************************************************************************************************

 THRESHOLDS:

 ZERO    =  1.00D-12  ONEINT  =  1.00D-16  TWOINT  =  1.00D-16  PREFAC  =  1.00D-14  LOCALI  =  1.00D-09  EORDER  =  1.00D-04
 ENERGY  =  1.00D-12  ETEST   =  0.00D+00  EDENS   =  0.00D+00  THRDEDEF=  1.00D-06  GRADIENT=  1.00D-02  STEP    =  1.00D-03
 ORBITAL =  1.00D-10  CIVEC   =  1.00D-05  COEFF   =  1.00D-04  PRINTCI =  5.00D-02  PUNCHCI =  9.90D+01  OPTGRAD =  1.00D-06
 OPTENERG=  1.00D-06  OPTSTEP =  3.00D-04  THRGRAD =  1.00D-10  COMPRESS=  1.00D-13  VARMIN  =  1.00D-07  VARMAX  =  1.00D-03
 THRDOUB =  0.00D+00  THRDIV  =  1.00D-05  THRRED  =  1.00D-07  THRPSP  =  1.00D+00  THRDC   =  1.00D-10  THRCS   =  1.00D-10
 THRNRM  =  1.00D-08  THREQ   =  0.00D+00  THRDE   =  1.00D+00  THRREF  =  1.00D-05  SPARFAC =  1.00D+00  THRDLP  =  1.00D-07
 THRDIA  =  1.00D-10  THRDLS  =  1.00D-07  THRGPS  =  0.00D+00  THRKEX  =  0.00D+00  THRDIS  =  2.00D-01  THRVAR  =  1.00D-10
 THRLOC  =  1.00D-06  THRGAP  =  1.00D-06  THRLOCT = -1.00D+00  THRGAPT = -1.00D+00  THRORB  =  1.00D-06  THRMLTP =  0.00D+00
 THRCPQCI=  1.00D-10  KEXTA   =  0.00D+00  THRCOARS=  0.00D+00  SYMTOL  =  1.00D-06  GRADTOL =  1.00D-06  THROVL  =  1.00D-08
 THRORTH =  1.00D-08  GRID    =  1.00D-06  GRIDMAX =  1.00D-03  DTMAX   =  0.00D+00

 SETTING GEOMTYP        =    XYZ
 ZUNIT=BOHR
 

 Variable memory set to 1000000000 words,  buffer space   230000 words

 SETTING BASIS          =    VDZ


 Recomputing integrals since basis changed


 Using spherical harmonics

 Library entry C      S cc-pVDZ              selected for orbital group  1
 Library entry C      P cc-pVDZ              selected for orbital group  1
 Library entry C      D cc-pVDZ              selected for orbital group  1
 Library entry H      S cc-pVDZ              selected for orbital group  2
 Library entry H      P cc-pVDZ              selected for orbital group  2

1PROGRAM * SEWARD (Integral evaluation for generally contracted gaussian basis sets)     Author: Roland Lindh, 1990

 Geometry written to block  1 of record 700


 Point group  C1  



 ATOMIC COORDINATES

 NR  ATOM    CHARGE       X              Y              Z

   1  C       6.00    0.001166493   -0.001166493    0.000000000
   2  C       6.00    2.366606726   -0.001168128   -1.672622296
   3  C       6.00    0.001168128   -2.366606726    1.672622296
   4  C       6.00    0.001168128    2.364277008    1.672617674
   5  C       6.00   -2.364277008   -0.001168128   -1.672617674
   6  H       1.00    2.408517570    1.670195398   -2.888330947
   7  H       1.00   -1.670195398   -2.408517570    2.888330947
   8  H       1.00    1.672525121    2.406181273    2.888335532
   9  H       1.00   -2.406181273   -1.672525121   -2.888335532
  10  H       1.00    4.086943307    0.002279859   -0.526502651
  11  H       1.00   -0.002279859   -4.086943307    0.526502651
  12  H       1.00   -0.005296905    4.084606878    0.526501004
  13  H       1.00   -4.084606878    0.005296905   -0.526501004
  14  H       1.00    2.400462136   -1.673040035   -2.887882850
  15  H       1.00    1.673040035   -2.400462136    2.887882850
  16  H       1.00   -1.675667901    2.403092422    2.880870286
  17  H       1.00   -2.403092422    1.675667901   -2.880870286

 Bond lengths in Bohr (Angstrom)

 1-2  2.897062795  1-3  2.897062795  1-4  2.897062795  1-5  2.897062795  2-6  2.067162325
     ( 1.533059604)     ( 1.533059604)     ( 1.533059604)     ( 1.533059604)     ( 1.093895190)

  2-10  2.067162326   2-14  2.067162325   3- 7  2.067162325   3-11  2.067162326   3-15  2.067162325
       ( 1.093895190)       ( 1.093895190)       ( 1.093895190)       ( 1.093895190)       ( 1.093895190)

  4- 8  2.067162325   4-12  2.067162326   4-16  2.067162325   5- 9  2.067162325   5-13  2.067162326
       ( 1.093895190)       ( 1.093895190)       ( 1.093895190)       ( 1.093895190)       ( 1.093895190)

  5-17  2.067162325
       ( 1.093895190)

 Bond angles

  1- 2- 6  110.86067650   1- 2-10  111.06324635   1- 2-14  110.65810458   1- 3- 7  110.86067650

  1- 3-11  111.06324635   1- 3-15  110.65810458   1- 4- 8  110.86067465   1- 4-12  111.06324652

  1- 4-16  110.65810486   1- 5- 9  110.86067465   1- 5-13  111.06324652   1- 5-17  110.65810486

  2-1-3  109.47122063   2-1-4  109.47122064   2-1-5  109.47122063   3-1-4  109.47122063

  3- 1- 5  109.47122064   4- 1- 5  109.47122064   6- 2-10  107.92959137   6- 2-14  107.92959247

  7- 3-11  107.92959137   7- 3-15  107.92959247   8- 4-12  108.16349854   8- 4-16  108.16349984

  9- 5-13  108.16349854   9- 5-17  108.16349984  10- 2-14  108.28045351  11- 3-15  108.28045351

 12- 4-16  107.81263760  13- 5-17  107.81263760

 NUCLEAR CHARGE:                   42
 NUMBER OF PRIMITIVE AOS:         219
 NUMBER OF SYMMETRY AOS:          214
 NUMBER OF CONTRACTIONS:          130   ( 130A   )
 NUMBER OF CORE ORBITALS:           5   (   5A   )
 NUMBER OF VALENCE ORBITALS:       32   (  32A   )


 NUCLEAR REPULSION ENERGY  198.59918843


 Eigenvalues of metric

         1 0.280E-02 0.502E-02 0.504E-02 0.505E-02 0.171E-01 0.188E-01 0.189E-01 0.190E-01


 Contracted 2-electron integrals neglected if value below      1.0D-16
 AO integral compression algorithm  1   Integral accuracy      1.0D-16

     300.679 MB (compressed) written to integral file ( 96.5%)

     Node minimum: 300.679 MB, node maximum: 300.679 MB


 NUMBER OF SORTED TWO-ELECTRON INTEGRALS:   36256870.     BUFFER LENGTH:  32768
 NUMBER OF SEGMENTS:   3  SEGMENT LENGTH:   15998004      RECORD LENGTH: 524288

 Memory used in sort:      16.56 MW

 SORT1 READ    38984184. AND WROTE    36126886. INTEGRALS IN    105 RECORDS. CPU TIME:     0.40 SEC, REAL TIME:     0.59 SEC
 SORT2 READ    36126886. AND WROTE    36256870. INTEGRALS IN   1147 RECORDS. CPU TIME:     0.30 SEC, REAL TIME:     0.46 SEC

 FILE SIZES:   FILE 1:   281.8 MBYTE,  FILE 4:   440.4 MBYTE,   TOTAL:    722.2 MBYTE

 OPERATOR DM      FOR CENTER  0  COORDINATES:    0.000000    0.000000    0.000000


 **********************************************************************************************************************************
 DATASETS  * FILE   NREC   LENGTH (MB)   RECORD NAMES
              1      19      282.01       500      610      700      900      950      970     1000      129      960     1100   
                                          VAR    BASINP    GEOM    SYMINP    ZMAT    AOBASIS   BASIS     P2S    ABASIS      S 
                                         1400     1410     1200     1210     1080     1600     1650     1300     1700   
                                           T        V       H0       H01     AOSYM     SMH    MOLCAS    ERIS     OPER   

 PROGRAMS   *        TOTAL       INT
 CPU TIMES  *         4.29      4.25
 REAL TIME  *         4.96 SEC
 DISK USED  *         1.02 GB      
 GA USED    *         0.01 MB       (max)       0.00 MB       (current)
 **********************************************************************************************************************************

1PROGRAM * RHF-SCF (CLOSED SHELL)       Authors: W. Meyer, H.-J. Werner


 NUMBER OF ELECTRONS:      21+   21-    SPACE SYMMETRY=1    SPIN SYMMETRY: Singlet 
 CONVERGENCE THRESHOLDS:    1.00E-10 (Density)    1.00E-13 (Energy)
 MAX. NUMBER OF ITERATIONS:      200
 INTERPOLATION TYPE:            DIIS
 INTERPOLATION STEPS:              2 (START)      1 (STEP)
 LEVEL SHIFTS:                  0.00 (CLOSED)  0.00 (OPEN) 



 Orbital guess generated from atomic densities. Full valence occupancy:   37

 Molecular orbital dump at record        2100.2

 ITERATION    DDIFF          GRAD             ENERGY        2-EL.EN.            DIPOLE MOMENTS         DIIS
    1      0.000D+00      0.000D+00      -196.27089040    527.677276   -0.00309    0.00309    0.00000    0
    2      0.000D+00      0.467D-02      -196.33874846    521.943891   -0.00073    0.00073    0.00000    1
    3      0.930D-02      0.177D-02      -196.34653876    524.513961   -0.00143    0.00143    0.00000    2
    4      0.346D-02      0.571D-03      -196.34768550    523.812632   -0.00115    0.00115   -0.00000    3
    5      0.114D-02      0.118D-03      -196.34772009    523.879145   -0.00117    0.00117   -0.00000    4
    6      0.198D-03      0.238D-04      -196.34772176    523.875386   -0.00117    0.00117    0.00000    5
    7      0.659D-04      0.226D-05      -196.34772178    523.875152   -0.00117    0.00117   -0.00000    6
    8      0.684D-05      0.488D-06      -196.34772179    523.875111   -0.00117    0.00117    0.00000    6
    9      0.138D-05      0.702D-07      -196.34772179    523.875102   -0.00117    0.00117   -0.00000    5
   10      0.244D-06      0.955D-08      -196.34772179    523.875112   -0.00117    0.00117   -0.00000    5
   11      0.316D-07      0.309D-08      -196.34772179    523.875108   -0.00117    0.00117   -0.00000    5
   12      0.617D-08      0.103D-08      -196.34772179    523.875108   -0.00117    0.00117   -0.00000    6
   13      0.217D-08      0.805D-10      -196.34772179    523.875108   -0.00117    0.00117   -0.00000    6
   14      0.164D-09      0.162D-10      -196.34772179    523.875108   -0.00117    0.00117   -0.00000    6
   15      0.381D-10      0.423D-11      -196.34772179    523.875108   -0.00117    0.00117   -0.00000    6
   16      0.114D-10      0.157D-11      -196.34772179    523.875108   -0.00117    0.00117   -0.00000    7
   17      0.354D-11      0.301D-12      -196.34772179    523.875108   -0.00117    0.00117   -0.00000    6
   18      0.985D-12      0.878D-13      -196.34772179    523.875108   -0.00117    0.00117   -0.00000    6
   19      0.395D-12      0.457D-13      -196.34772179    523.875108   -0.00117    0.00117   -0.00000    7
   20      0.194D-12      0.300D-13      -196.34772179    523.875108   -0.00117    0.00117    0.00000    8
   21      0.106D-12      0.297D-13      -196.34772179    523.875108   -0.00117    0.00117    0.00000    8
   22      0.684D-13      0.276D-13      -196.34772179    523.875108   -0.00117    0.00117    0.00000    9
   23      0.438D-13      0.250D-13      -196.34772179    523.875108   -0.00117    0.00117    0.00000    9
   24      0.509D-13      0.271D-13      -196.34772179    523.875108   -0.00117    0.00117   -0.00000    0

 Final occupancy:  21

 !RHF STATE 1.1 Energy               -196.347721786040
 Nuclear energy                       198.59918843
 One-electron energy                 -656.88446438
 Two-electron energy                  261.93755417
 Virial quotient                       -1.00118138
 !RHF STATE 1.1 Dipole moment          -0.00116747     0.00116747    -0.00000000
 Dipole moment /Debye                  -0.00296723     0.00296723    -0.00000000

 Orbital energies:

         1.1          2.1          3.1          4.1          5.1          6.1          7.1          8.1          9.1         10.1
    -11.230716   -11.214120   -11.214108   -11.214087   -11.214051    -1.103748    -0.927683    -0.927561    -0.927438    -0.728612

        11.1         12.1         13.1         14.1         15.1         16.1         17.1         18.1         19.1         20.1
     -0.609481    -0.609078    -0.608669    -0.550572    -0.550404    -0.508251    -0.507783    -0.507325    -0.450780    -0.450327

        21.1         22.1         23.1
     -0.449883     0.170677     0.231102


 **********************************************************************************************************************************
 DATASETS  * FILE   NREC   LENGTH (MB)   RECORD NAMES
              1      19      282.01       500      610      700      900      950      970     1000      129      960     1100   
                                          VAR    BASINP    GEOM    SYMINP    ZMAT    AOBASIS   BASIS     P2S    ABASIS      S 
                                         1400     1410     1200     1210     1080     1600     1650     1300     1700   
                                           T        V       H0       H01     AOSYM     SMH    MOLCAS    ERIS     OPER   

              2       3        0.89       700     1000     2100   
                                         GEOM     BASIS     RHF  

 PROGRAMS   *        TOTAL       RHF       INT
 CPU TIMES  *        10.79      6.50      4.25
 REAL TIME  *        12.24 SEC
 DISK USED  *         1.02 GB      
 GA USED    *         0.01 MB       (max)       0.00 MB       (current)
 **********************************************************************************************************************************


1PROGRAM * CCSD (Closed-shell coupled cluster)     Authors: C. Hampel, H.-J. Werner, 1991, M. Deegan, P.J. Knowles, 1992


 Convergence thresholds:  THRVAR = 1.00D-08  THRDEN = 1.00D-12

 CCSD(T)     terms to be evaluated (factor= 1.000)


 Number of core orbitals:           5 (   5 )
 Number of closed-shell orbitals:  16 (  16 )
 Number of external orbitals:     109 ( 109 )

 Molecular orbitals read from record     2100.2  Type=RHF/CANONICAL (state 1.1)

 Number of N-1 electron functions:              16
 Number of N-2 electron functions:             136
 Number of singly external CSFs:              1744
 Number of doubly external CSFs:           1521640
 Total number of CSFs:                     1523385

 Length of J-op  integral file:               0.00 MB
 Length of K-op  integral file:               1.20 MB
 Length of 3-ext integral record:             0.00 MB

 Memory could be reduced to 28.13 Mwords without degradation in triples

 Integral transformation finished. Total CPU:   1.88 sec, npass=  1  Memory used:  22.98 MW

 Reference energy:                   -196.34772179

 MP2 singlet pair energy:              -0.48845334
 MP2 triplet pair energy:              -0.25007833
 MP2 correlation energy:               -0.73853168
 MP2 total energy:                   -197.08625346

 SCS-MP2 correlation energy:           -0.74174831   (PS=  1.200000  PT=  0.333333)
 SCS-MP2 total energy:               -197.08947010

 ITER.      SQ.NORM     CORR.ENERGY   TOTAL ENERGY   ENERGY CHANGE        DEN1      VAR(S)    VAR(P)  DIIS     TIME
   1      1.28821672    -0.80655676  -197.15427855    -0.06802508    -0.04667750  0.17D-02  0.47D-02  1  1     6.92
   2      1.31151918    -0.81149043  -197.15921221    -0.00493366    -0.02352804  0.47D-04  0.32D-03  2  2    12.04
   3      1.31554402    -0.81163965  -197.15936144    -0.00014922    -0.00244941  0.53D-05  0.22D-04  3  3    17.16
   4      1.31658486    -0.81170226  -197.15942404    -0.00006260    -0.00046043  0.25D-06  0.12D-05  4  4    22.28
   5      1.31671022    -0.81170675  -197.15942854    -0.00000450    -0.00005060  0.15D-07  0.93D-07  5  5    27.41
   6      1.31672265    -0.81170430  -197.15942608     0.00000245    -0.00000853  0.68D-09  0.61D-08  6  6    32.55
   7      1.31672106    -0.81170459  -197.15942637    -0.00000029     0.00000073  0.16D-09  0.52D-09  6  1    37.67
   8      1.31672077    -0.81170473  -197.15942652    -0.00000015     0.00000027  0.78D-11  0.30D-10  6  2    42.80
   9      1.31672048    -0.81170478  -197.15942656    -0.00000005     0.00000026  0.11D-11  0.25D-11  6  3    47.94
  10      1.31672037    -0.81170479  -197.15942657    -0.00000001     0.00000009  0.88D-13  0.22D-12  6  4    53.06
  11      1.31672031    -0.81170479  -197.15942658    -0.00000000     0.00000004  0.94D-14  0.24D-13  6  5    58.20
  12      1.31672027    -0.81170479  -197.15942658    -0.00000000     0.00000002  0.89D-15  0.12D-14  6  1    63.33
  13      1.31672027    -0.81170479  -197.15942658    -0.00000000     0.00000000  0.78D-16  0.70D-16  6  6    68.46
  14      1.31672027    -0.81170479  -197.15942658    -0.00000000     0.00000000  0.15D-16  0.96D-17  6  2    73.60
  15      1.31672027    -0.81170479  -197.15942658    -0.00000000     0.00000000  0.13D-17  0.11D-17  6  3    78.73
  16      1.31672027    -0.81170479  -197.15942658     0.00000000    -0.00000000  0.70D-19  0.92D-19  6  4    83.86
  17      1.31672027    -0.81170479  -197.15942658     0.00000000    -0.00000000  0.34D-20  0.84D-20  6  5    88.99
  18      1.31672027    -0.81170479  -197.15942658     0.00000000    -0.00000000  0.37D-21  0.12D-20  6  1    94.12
  19      1.31672027    -0.81170479  -197.15942658     0.00000000    -0.00000000  0.29D-22  0.16D-21  6  6    99.26

 Norm of t1 vector:      0.05469730      S-energy:    -0.00000000      T1 diagnostic:  0.00683716
                                                                       D1 diagnostic:  0.01261365


 Total CPU time for triples:     80.95 sec


 RESULTS
 =======

  Reference energy                   -196.347721786039
  CCSD singlet pair energy             -0.577588128815
  CCSD triplet pair energy             -0.234116663479
  CCSD correlation energy              -0.811704792294

  Triples (T) contribution             -0.023942479729
  Total correlation energy             -0.835647272022

  CCSD total energy                  -197.159426578333
  CCSD[T] energy                     -197.183828397237
  CCSD-T energy                      -197.183120396091
 !CCSD(T) total energy               -197.183369058062

 Timing summary (sec):

 STEP                 CPU(USER)    SYS     CPU(TOT)    WALL
 Transformation          1.96      0.18      2.14      2.15
 CCSD iterations        97.30      2.01     99.31     99.91
 Triples                80.95      1.58     82.53     82.53

 Program statistics:

 Available memory in ccsd:               999998876
 Min. memory needed in ccsd:               3966807
 Max. memory used in ccsd:                 5311887
 Max. memory used in cckext:               4858018 (19 integral passes)



 **********************************************************************************************************************************
 DATASETS  * FILE   NREC   LENGTH (MB)   RECORD NAMES
              1      20      393.72       500      610      700      900      950      970     1000      129      960     1100   
                                          VAR    BASINP    GEOM    SYMINP    ZMAT    AOBASIS   BASIS     P2S    ABASIS      S 
                                         1400     1410     1200     1210     1080     1600     1650     1300     1700     1380   
                                           T        V       H0       H01     AOSYM     SMH    MOLCAS    ERIS     OPER     JKOP   

              2       3        0.89       700     1000     2100   
                                         GEOM     BASIS     RHF  

 PROGRAMS   *        TOTAL   CCSD(T)       RHF       INT
 CPU TIMES  *       191.01    180.22      6.50      4.25
 REAL TIME  *       196.88 SEC
 DISK USED  *         1.02 GB      
 GA USED    *         0.01 MB       (max)       0.00 MB       (current)
 **********************************************************************************************************************************

        CCSD(T)         RHF-SCF 
   -197.18336906   -196.34772179
 **********************************************************************************************************************************
 Variable memory released
