
 Primary working directories    : /tmp/985636.1500.gen4.q
 Secondary working directories  : /tmp/985636.1500.gen4.q
 Wavefunction directory         : /home/vulcan/jj04645/wfu/
 Main file repository           : /tmp/985636.1500.gen4.q/

 ARCHNAME  : Linux/x86_64
 FC        : /opt/intel/compilers_and_libraries_2016.1.150/linux/bin/intel64/ifort
 FCVERSION : 16.0.1
 BLASLIB   : -mkl
 id        : ccgc

 Nodes     nprocs
 n056         1
 ga_uses_ma=false, calling ma_init with nominal heap.
 GA-space will be limited to   8.0 MW (determined by -G option)

 Using customized tuning parameters: mindgm=10; mindgv=16; mindgc=4; mindgr=1; noblas=0; mincuda=1000; minvec=7
 default implementation of scratch files=df  

 ***,Optimization of tetrahydrothiopyran
 memory,1000,m
 gthresh,energy=1.0d-12,orbital=1.0d-10,oneint=1.0d-16,twoint=1.0d-16,optgrad=1.0d-6,compress=1.0d-13
 geomtyp=xyz
 
 bohr
 geometry = {
  S    0.3429064157    2.7011114557    0.0005029762
  C   -0.3336014965   -3.3645784565    0.0003281422
  C   -0.6610031021    0.6685768685   -2.5837722931
  C   -0.6643993550    0.6667796403    2.5820410764
  C    0.4713585320   -1.9828874096   -2.4137414168
  C    0.4761485373   -1.9811603962    2.4118052769
  H   -2.7271415087    0.5682618647   -2.5901914100
  H   -2.7305198013    0.5666806196    2.5946389948
  H   -0.0586989723    1.6231407517   -4.3099453477
  H   -0.0813207714    1.6227581892    4.3140226772
  H    2.5335672699   -1.8394640460   -2.4790758897
  H    2.5381224340   -1.8315493441    2.4703195115
  H   -0.1280728619   -3.0763417354   -4.0652328316
  H   -0.1152717294   -3.0754614449    4.0656225387
  H    0.4559669327   -5.2737989791    0.0002276799
  H   -2.3967755396   -3.5718889947    0.0024503150
 }
 
 basis=VDZ
 {rhf;maxit,200}
 {ccsd(t);maxit,200}

 Variables initialized (661), CPU time= 0.01 sec
 Commands  initialized (458), CPU time= 0.00 sec, 486 directives.
 Default parameters read. Elapsed time= 0.05 sec

 Checking input...
 Passed
1


                                         ***  PROGRAM SYSTEM MOLPRO  ***
                         Copyright, University College Cardiff Consultants Limited, 2008

                                    Version 2010.1 linked May 16 2016 07:17:05


 **********************************************************************************************************************************
 LABEL *   Optimization of tetrahydrothiopyran                                           
 Linux-4.4.3/n056(x86_64) 64 bit mpp version                                             DATE: 26-Jan-24          TIME: 18:17:30  
 **********************************************************************************************************************************

 SHA1:             9e8077add272b0f3cad6f7df79ec5211205f459d
 **********************************************************************************************************************************

 THRESHOLDS:

 ZERO    =  1.00D-12  ONEINT  =  1.00D-16  TWOINT  =  1.00D-16  PREFAC  =  1.00D-14  LOCALI  =  1.00D-09  EORDER  =  1.00D-04
 ENERGY  =  1.00D-12  ETEST   =  0.00D+00  EDENS   =  0.00D+00  THRDEDEF=  1.00D-06  GRADIENT=  1.00D-02  STEP    =  1.00D-03
 ORBITAL =  1.00D-10  CIVEC   =  1.00D-05  COEFF   =  1.00D-04  PRINTCI =  5.00D-02  PUNCHCI =  9.90D+01  OPTGRAD =  1.00D-06
 OPTENERG=  1.00D-06  OPTSTEP =  3.00D-04  THRGRAD =  1.00D-10  COMPRESS=  1.00D-13  VARMIN  =  1.00D-07  VARMAX  =  1.00D-03
 THRDOUB =  0.00D+00  THRDIV  =  1.00D-05  THRRED  =  1.00D-07  THRPSP  =  1.00D+00  THRDC   =  1.00D-10  THRCS   =  1.00D-10
 THRNRM  =  1.00D-08  THREQ   =  0.00D+00  THRDE   =  1.00D+00  THRREF  =  1.00D-05  SPARFAC =  1.00D+00  THRDLP  =  1.00D-07
 THRDIA  =  1.00D-10  THRDLS  =  1.00D-07  THRGPS  =  0.00D+00  THRKEX  =  0.00D+00  THRDIS  =  2.00D-01  THRVAR  =  1.00D-10
 THRLOC  =  1.00D-06  THRGAP  =  1.00D-06  THRLOCT = -1.00D+00  THRGAPT = -1.00D+00  THRORB  =  1.00D-06  THRMLTP =  0.00D+00
 THRCPQCI=  1.00D-10  KEXTA   =  0.00D+00  THRCOARS=  0.00D+00  SYMTOL  =  1.00D-06  GRADTOL =  1.00D-06  THROVL  =  1.00D-08
 THRORTH =  1.00D-08  GRID    =  1.00D-06  GRIDMAX =  1.00D-03  DTMAX   =  0.00D+00

 SETTING GEOMTYP        =    XYZ
 ZUNIT=BOHR
 

 Variable memory set to 1000000000 words,  buffer space   230000 words

 SETTING BASIS          =    VDZ


 Recomputing integrals since basis changed


 Using spherical harmonics

 Library entry S      S cc-pVDZ              selected for orbital group  1
 Library entry S      P cc-pVDZ              selected for orbital group  1
 Library entry S      D cc-pVDZ              selected for orbital group  1
 Library entry C      S cc-pVDZ              selected for orbital group  2
 Library entry C      P cc-pVDZ              selected for orbital group  2
 Library entry C      D cc-pVDZ              selected for orbital group  2
 Library entry H      S cc-pVDZ              selected for orbital group  3
 Library entry H      P cc-pVDZ              selected for orbital group  3

1PROGRAM * SEWARD (Integral evaluation for generally contracted gaussian basis sets)     Author: Roland Lindh, 1990

 Geometry written to block  1 of record 700


 Point group  C1  



 ATOMIC COORDINATES

 NR  ATOM    CHARGE       X              Y              Z

   1  S      16.00    0.342906416    2.701111456    0.000502976
   2  C       6.00   -0.333601496   -3.364578456    0.000328142
   3  C       6.00   -0.661003102    0.668576868   -2.583772293
   4  C       6.00   -0.664399355    0.666779640    2.582041076
   5  C       6.00    0.471358532   -1.982887410   -2.413741417
   6  C       6.00    0.476148537   -1.981160396    2.411805277
   7  H       1.00   -2.727141509    0.568261865   -2.590191410
   8  H       1.00   -2.730519801    0.566680620    2.594638995
   9  H       1.00   -0.058698972    1.623140752   -4.309945348
  10  H       1.00   -0.081320771    1.622758189    4.314022677
  11  H       1.00    2.533567270   -1.839464046   -2.479075890
  12  H       1.00    2.538122434   -1.831549344    2.470319512
  13  H       1.00   -0.128072862   -3.076341735   -4.065232832
  14  H       1.00   -0.115271729   -3.075461445    4.065622539
  15  H       1.00    0.455966933   -5.273798979    0.000227680
  16  H       1.00   -2.396775540   -3.571888995    0.002450315

 Bond lengths in Bohr (Angstrom)

  1- 3  3.437660518   1- 4  3.437660515   2- 5  2.895645460   2- 6  2.895645458   2-15  2.066044849
       ( 1.819131598)       ( 1.819131597)       ( 1.532309583)       ( 1.532309582)       ( 1.093303847)

  2-16  2.073564394   3- 5  2.888150998   3- 7  2.068582176   3- 9  2.062434456   4- 6  2.888150993
       ( 1.097283019)       ( 1.528343684)       ( 1.094646543)       ( 1.091393309)       ( 1.528343682)

  4- 8  2.068582176   4-10  2.062434456   5-11  2.068222361   5-13  2.069392242   6-12  2.068222361
       ( 1.094646543)       ( 1.091393309)       ( 1.094456136)       ( 1.095075211)       ( 1.094456136)

  6-14  2.069392242
       ( 1.095075211)

 Bond angles

  1-3-5  112.58454999   1-3-7  108.82587897   1-3-9  105.67918184   1-4-6  112.49358002

  1- 4- 8  109.01899913   1- 4-10  105.87230199   2- 5- 3  112.21893896   2- 5-11  109.67028153

  2- 5-13  109.43138931   2- 6- 4  112.12797207   2- 6-12  109.68937794   2- 6-14  109.45048571

  3- 1- 4   97.41597892   3- 5-11  108.99032709   3- 5-13  108.93764367   4- 6-12  109.00942349

  4- 6-14  108.95674007   5- 2- 6  112.86654043   5- 2-15  109.55211540   5- 2-16  108.97500903

  5- 3- 7  110.32046280   5- 3- 9  111.08045037   6- 2-15  109.55211539   6- 2-16  108.97500903

  6- 4- 8  110.51358293   6- 4-10  111.27357052   7- 3- 9  108.15195578   8- 4-10  107.43915014

 11- 5-13  107.47291757  12- 6-14  107.49201394  15- 2-16  106.72989952

 NUCLEAR CHARGE:                   56
 NUMBER OF PRIMITIVE AOS:         247
 NUMBER OF SYMMETRY AOS:          241
 NUMBER OF CONTRACTIONS:          138   ( 138A   )
 NUMBER OF CORE ORBITALS:          10   (  10A   )
 NUMBER OF VALENCE ORBITALS:       34   (  34A   )


 NUCLEAR REPULSION ENERGY  312.12061343


 Eigenvalues of metric

         1 0.286E-02 0.306E-02 0.426E-02 0.634E-02 0.706E-02 0.151E-01 0.157E-01 0.196E-01


 Contracted 2-electron integrals neglected if value below      1.0D-16
 AO integral compression algorithm  1   Integral accuracy      1.0D-16

     374.079 MB (compressed) written to integral file ( 94.1%)

     Node minimum: 374.079 MB, node maximum: 374.079 MB


 NUMBER OF SORTED TWO-ELECTRON INTEGRALS:   45998436.     BUFFER LENGTH:  32768
 NUMBER OF SEGMENTS:   3  SEGMENT LENGTH:   15998004      RECORD LENGTH: 524288

 Memory used in sort:      16.56 MW

 SORT1 READ    49670079. AND WROTE    45796463. INTEGRALS IN    132 RECORDS. CPU TIME:     0.50 SEC, REAL TIME:     0.75 SEC
 SORT2 READ    45796463. AND WROTE    45998436. INTEGRALS IN   1427 RECORDS. CPU TIME:     0.36 SEC, REAL TIME:     0.55 SEC

 FILE SIZES:   FILE 1:   349.5 MBYTE,  FILE 4:   553.7 MBYTE,   TOTAL:    903.2 MBYTE

 OPERATOR DM      FOR CENTER  0  COORDINATES:    0.000000    0.000000    0.000000


 **********************************************************************************************************************************
 DATASETS  * FILE   NREC   LENGTH (MB)   RECORD NAMES
              1      19      349.73       500      610      700      900      950      970     1000      129      960     1100   
                                          VAR    BASINP    GEOM    SYMINP    ZMAT    AOBASIS   BASIS     P2S    ABASIS      S 
                                         1400     1410     1200     1210     1080     1600     1650     1300     1700   
                                           T        V       H0       H01     AOSYM     SMH    MOLCAS    ERIS     OPER   

 PROGRAMS   *        TOTAL       INT
 CPU TIMES  *         5.17      5.12
 REAL TIME  *         5.99 SEC
 DISK USED  *         1.28 GB      
 GA USED    *         0.01 MB       (max)       0.00 MB       (current)
 **********************************************************************************************************************************

1PROGRAM * RHF-SCF (CLOSED SHELL)       Authors: W. Meyer, H.-J. Werner


 NUMBER OF ELECTRONS:      28+   28-    SPACE SYMMETRY=1    SPIN SYMMETRY: Singlet 
 CONVERGENCE THRESHOLDS:    1.00E-10 (Density)    1.00E-13 (Energy)
 MAX. NUMBER OF ITERATIONS:      200
 INTERPOLATION TYPE:            DIIS
 INTERPOLATION STEPS:              2 (START)      1 (STEP)
 LEVEL SHIFTS:                  0.00 (CLOSED)  0.00 (OPEN) 



 Orbital guess generated from atomic densities. Full valence occupancy:   44

 Molecular orbital dump at record        2100.2

 ITERATION    DDIFF          GRAD             ENERGY        2-EL.EN.            DIPOLE MOMENTS         DIIS
    1      0.000D+00      0.000D+00      -592.64387982   1056.808303   -0.40469   -0.80670    0.00034    0
    2      0.000D+00      0.396D-02      -592.70491440   1054.223926   -0.20557   -0.74068    0.00014    1
    3      0.778D-02      0.132D-02      -592.71085070   1055.658657   -0.27777   -0.67833   -0.00006    2
    4      0.269D-02      0.540D-03      -592.71185969   1055.040414   -0.25058   -0.71136   -0.00005    3
    5      0.931D-03      0.774D-04      -592.71188543   1055.103473   -0.24670   -0.70289   -0.00007    4
    6      0.181D-03      0.267D-04      -592.71188795   1055.072587   -0.24842   -0.70317   -0.00007    5
    7      0.504D-04      0.620D-05      -592.71188816   1055.075747   -0.24775   -0.70306   -0.00007    6
    8      0.164D-04      0.174D-05      -592.71188818   1055.074886   -0.24774   -0.70292   -0.00007    7
    9      0.538D-05      0.452D-06      -592.71188818   1055.074769   -0.24772   -0.70288   -0.00007    7
   10      0.127D-05      0.162D-06      -592.71188818   1055.074807   -0.24771   -0.70288   -0.00007    7
   11      0.480D-06      0.343D-07      -592.71188818   1055.074792   -0.24771   -0.70287   -0.00007    7
   12      0.114D-06      0.689D-08      -592.71188818   1055.074798   -0.24771   -0.70287   -0.00007    7
   13      0.183D-07      0.287D-08      -592.71188818   1055.074795   -0.24771   -0.70287   -0.00007    7
   14      0.632D-08      0.846D-09      -592.71188818   1055.074796   -0.24771   -0.70287   -0.00007    7
   15      0.226D-08      0.275D-09      -592.71188818   1055.074796   -0.24771   -0.70287   -0.00007    7
   16      0.661D-09      0.860D-10      -592.71188818   1055.074796   -0.24771   -0.70287   -0.00007    8
   17      0.208D-09      0.199D-10      -592.71188818   1055.074796   -0.24771   -0.70287   -0.00007    7
   18      0.529D-10      0.678D-11      -592.71188818   1055.074796   -0.24771   -0.70287   -0.00007    7
   19      0.214D-10      0.257D-11      -592.71188818   1055.074796   -0.24771   -0.70287   -0.00007    8
   20      0.788D-11      0.933D-12      -592.71188818   1055.074796   -0.24771   -0.70287   -0.00007    8
   21      0.323D-11      0.336D-12      -592.71188818   1055.074796   -0.24771   -0.70287   -0.00007    8
   22      0.120D-11      0.117D-12      -592.71188818   1055.074796   -0.24771   -0.70287   -0.00007    8
   23      0.521D-12      0.495D-13      -592.71188818   1055.074796   -0.24771   -0.70287   -0.00007    8
   24      0.196D-12      0.417D-13      -592.71188818   1055.074796   -0.24771   -0.70287   -0.00007    9
   25      0.139D-12      0.429D-13      -592.71188818   1055.074796   -0.24771   -0.70287   -0.00007    9
   26      0.798D-13      0.304D-13      -592.71188818   1055.074796   -0.24771   -0.70287   -0.00007    9
   27      0.723D-13      0.331D-13      -592.71188818   1055.074796   -0.24771   -0.70287   -0.00007    9
   28      0.767D-13      0.302D-13      -592.71188818   1055.074796   -0.24771   -0.70287   -0.00007    9
   29      0.487D-13      0.283D-13      -592.71188818   1055.074796   -0.24771   -0.70287   -0.00007    9
   30      0.391D-13      0.255D-13      -592.71188818   1055.074796   -0.24771   -0.70287   -0.00007    0

 Final occupancy:  28

 !RHF STATE 1.1 Energy               -592.711888182101
 Nuclear energy                       312.12061343
 One-electron energy                -1432.36989949
 Two-electron energy                  527.53739788
 Virial quotient                       -1.00019597
 !RHF STATE 1.1 Dipole moment          -0.24771369    -0.70287307    -0.00006757
 Dipole moment /Debye                  -0.62958416    -1.78640814    -0.00017174

 Orbital energies:

         1.1          2.1          3.1          4.1          5.1          6.1          7.1          8.1          9.1         10.1
    -91.929763   -11.255021   -11.254925   -11.231065   -11.230980   -11.229131    -8.933651    -6.615548    -6.614113    -6.611913

        11.1         12.1         13.1         14.1         15.1         16.1         17.1         18.1         19.1         20.1
     -1.119570    -1.019976    -1.006481    -0.842412    -0.835852    -0.755723    -0.646700    -0.614485    -0.609627    -0.578462

        21.1         22.1         23.1         24.1         25.1         26.1         27.1         28.1         29.1         30.1
     -0.547014    -0.523604    -0.497891    -0.495554    -0.473165    -0.434662    -0.411578    -0.328685     0.176940     0.190408


 **********************************************************************************************************************************
 DATASETS  * FILE   NREC   LENGTH (MB)   RECORD NAMES
              1      19      349.73       500      610      700      900      950      970     1000      129      960     1100   
                                          VAR    BASINP    GEOM    SYMINP    ZMAT    AOBASIS   BASIS     P2S    ABASIS      S 
                                         1400     1410     1200     1210     1080     1600     1650     1300     1700   
                                           T        V       H0       H01     AOSYM     SMH    MOLCAS    ERIS     OPER   

              2       3        0.92       700     1000     2100   
                                         GEOM     BASIS     RHF  

 PROGRAMS   *        TOTAL       RHF       INT
 CPU TIMES  *        15.66     10.49      5.12
 REAL TIME  *        17.76 SEC
 DISK USED  *         1.28 GB      
 GA USED    *         0.01 MB       (max)       0.00 MB       (current)
 **********************************************************************************************************************************


1PROGRAM * CCSD (Closed-shell coupled cluster)     Authors: C. Hampel, H.-J. Werner, 1991, M. Deegan, P.J. Knowles, 1992


 Convergence thresholds:  THRVAR = 1.00D-08  THRDEN = 1.00D-12

 CCSD(T)     terms to be evaluated (factor= 1.000)


 Number of core orbitals:          10 (  10 )
 Number of closed-shell orbitals:  18 (  18 )
 Number of external orbitals:     110 ( 110 )

 Molecular orbitals read from record     2100.2  Type=RHF/CANONICAL (state 1.1)

 Number of N-1 electron functions:              18
 Number of N-2 electron functions:             171
 Number of singly external CSFs:              1980
 Number of doubly external CSFs:           1961190
 Total number of CSFs:                     1963171

 Length of J-op  integral file:               0.00 MB
 Length of K-op  integral file:               1.35 MB
 Length of 3-ext integral record:             0.00 MB

 Memory could be reduced to 32.58 Mwords without degradation in triples

 Integral transformation finished. Total CPU:   2.63 sec, npass=  1  Memory used:  30.89 MW

 Reference energy:                   -592.71188818

 MP2 singlet pair energy:              -0.53945648
 MP2 triplet pair energy:              -0.30435709
 MP2 correlation energy:               -0.84381357
 MP2 total energy:                   -593.55570175

 SCS-MP2 correlation energy:           -0.83672552   (PS=  1.200000  PT=  0.333333)
 SCS-MP2 total energy:               -593.54861371

 ITER.      SQ.NORM     CORR.ENERGY   TOTAL ENERGY   ENERGY CHANGE        DEN1      VAR(S)    VAR(P)  DIIS     TIME
   1      1.33969981    -0.91079413  -593.62268231    -0.06698055    -0.04302221  0.26D-02  0.55D-02  1  1    10.63
   2      1.36669526    -0.91614182  -593.62803001    -0.00534770    -0.02577679  0.69D-04  0.46D-03  2  2    18.75
   3      1.37202872    -0.91626968  -593.62815786    -0.00012786    -0.00303796  0.16D-04  0.28D-04  3  3    26.85
   4      1.37352181    -0.91632773  -593.62821591    -0.00005805    -0.00059397  0.76D-06  0.20D-05  4  4    34.96
   5      1.37376242    -0.91633434  -593.62822253    -0.00000661    -0.00007083  0.17D-06  0.16D-06  5  5    43.08
   6      1.37380805    -0.91632990  -593.62821808     0.00000445    -0.00001392  0.30D-07  0.14D-07  6  6    51.21
   7      1.37381562    -0.91632978  -593.62821797     0.00000011     0.00000064  0.53D-08  0.23D-08  6  2    59.32
   8      1.37382170    -0.91632947  -593.62821765     0.00000031    -0.00000125  0.73D-09  0.27D-09  6  1    67.44
   9      1.37382253    -0.91632941  -593.62821759     0.00000006     0.00000050  0.66D-10  0.44D-10  6  4    75.57
  10      1.37382341    -0.91632937  -593.62821755     0.00000003    -0.00000011  0.47D-11  0.35D-11  6  3    83.66
  11      1.37382342    -0.91632938  -593.62821756    -0.00000000     0.00000004  0.12D-11  0.54D-12  6  5    91.77
  12      1.37382339    -0.91632938  -593.62821756    -0.00000000     0.00000002  0.17D-12  0.77D-13  6  6    99.89
  13      1.37382333    -0.91632938  -593.62821756    -0.00000000     0.00000002  0.24D-13  0.11D-13  6  1   108.01
  14      1.37382332    -0.91632938  -593.62821756    -0.00000000     0.00000000  0.31D-14  0.12D-14  6  2   116.13
  15      1.37382333    -0.91632938  -593.62821756     0.00000000    -0.00000000  0.68D-15  0.31D-15  6  4   124.24
  16      1.37382333    -0.91632938  -593.62821756     0.00000000    -0.00000000  0.32D-16  0.23D-16  6  5   132.36
  17      1.37382333    -0.91632938  -593.62821756     0.00000000    -0.00000000  0.58D-17  0.25D-17  6  3   140.49
  18      1.37382333    -0.91632938  -593.62821756     0.00000000    -0.00000000  0.14D-17  0.42D-18  6  5   148.60
  19      1.37382333    -0.91632938  -593.62821756     0.00000000    -0.00000000  0.19D-18  0.65D-19  6  6   156.73
  20      1.37382333    -0.91632938  -593.62821756     0.00000000     0.00000000  0.15D-19  0.67D-20  6  1   164.85
  21      1.37382333    -0.91632938  -593.62821756    -0.00000000     0.00000000  0.25D-20  0.10D-20  6  2   172.96

 Norm of t1 vector:      0.07014474      S-energy:    -0.00000000      T1 diagnostic:  0.00826664
                                                                       D1 diagnostic:  0.02108623


 Total CPU time for triples:    123.28 sec


 RESULTS
 =======

  Reference energy                   -592.711888182100
  CCSD singlet pair energy             -0.634213288638
  CCSD triplet pair energy             -0.282116091185
  CCSD correlation energy              -0.916329379823

  Triples (T) contribution             -0.029866561268
  Total correlation energy             -0.946195941092

  CCSD total energy                  -593.628217561924
  CCSD[T] energy                     -593.658703491538
  CCSD-T energy                      -593.657772915675
 !CCSD(T) total energy               -593.658084123192

 Timing summary (sec):

 STEP                 CPU(USER)    SYS     CPU(TOT)    WALL
 Transformation          2.74      0.23      2.97      2.98
 CCSD iterations       170.23      2.92    173.15    175.21
 Triples               123.28      2.31    125.59    125.61

 Program statistics:

 Available memory in ccsd:               999998604
 Min. memory needed in ccsd:               5123362
 Max. memory used in ccsd:                 6867976
 Max. memory used in cckext:               6836871 (21 integral passes)



 **********************************************************************************************************************************
 DATASETS  * FILE   NREC   LENGTH (MB)   RECORD NAMES
              1      20      486.10       500      610      700      900      950      970     1000      129      960     1100   
                                          VAR    BASINP    GEOM    SYMINP    ZMAT    AOBASIS   BASIS     P2S    ABASIS      S 
                                         1400     1410     1200     1210     1080     1600     1650     1300     1700     1380   
                                           T        V       H0       H01     AOSYM     SMH    MOLCAS    ERIS     OPER     JKOP   

              2       3        0.92       700     1000     2100   
                                         GEOM     BASIS     RHF  

 PROGRAMS   *        TOTAL   CCSD(T)       RHF       INT
 CPU TIMES  *       311.93    296.27     10.49      5.12
 REAL TIME  *       321.62 SEC
 DISK USED  *         1.28 GB      
 GA USED    *         0.01 MB       (max)       0.00 MB       (current)
 **********************************************************************************************************************************

        CCSD(T)         RHF-SCF 
   -593.65808412   -592.71188818
 **********************************************************************************************************************************
 Variable memory released
