
    -----------------------------------------------------------------------
          Psi4: An Open-Source Ab Initio Electronic Structure Package
                               Psi4 1.4a2.dev629 

                         Git: Rev {master} 2938fc2 dirty


    D. G. A. Smith, L. A. Burns, A. C. Simmonett, R. M. Parrish,
    M. C. Schieber, R. Galvelis, P. Kraus, H. Kruse, R. Di Remigio,
    A. Alenaizan, A. M. James, S. Lehtola, J. P. Misiewicz, M. Scheurer,
    R. A. Shaw, J. B. Schriber, Y. Xie, Z. L. Glick, D. A. Sirianni,
    J. S. O'Brien, J. M. Waldrop, A. Kumar, E. G. Hohenstein,
    B. P. Pritchard, B. R. Brooks, H. F. Schaefer III, A. Yu. Sokolov,
    K. Patkowski, A. E. DePrince III, U. Bozkaya, R. A. King,
    F. A. Evangelista, J. M. Turney, T. D. Crawford, C. D. Sherrill,
    J. Chem. Phys. 152(18) 184108 (2020). https://doi.org/10.1063/5.0006002

                            Additional Code Authors
    E. T. Seidl, C. L. Janssen, E. F. Valeev, M. L. Leininger,
    J. F. Gonthier, R. M. Richard, H. R. McAlexander, M. Saitow, X. Wang,
    P. Verma, and M. H. Lechner

             Previous Authors, Complete List of Code Contributors,
                       and Citations for Specific Modules
    https://github.com/psi4/psi4/blob/master/codemeta.json
    https://github.com/psi4/psi4/graphs/contributors
    http://psicode.org/psi4manual/master/introduction.html#citing-psifour

    -----------------------------------------------------------------------


    Psi4 started on: Wednesday, 17 November 2021 10:55AM

    Process ID: 13300
    Host:       n076
    PSIDATADIR: /opt/psi/4/master/share/psi4
    Memory:     500.0 MiB
    Threads:    4
    
  ==> Input File <==

--------------------------------------------------------------------------
import os
memory 14 GB 
 
molecule {
 S   -0.0000000000   -0.0071486075    2.1737541501
 C   -0.0000000000    2.3356169882   -0.0917471300
 C   -0.0000000000   -2.3368011113   -0.0940905252
 C   -0.0000000000   -1.3490343882   -2.4921086062
 C   -0.0000000000    1.3489107237   -2.4919862015
 H   -0.0000000000    4.3049908231    0.4580029925
 H    0.0000000000   -4.2972742489    0.4614518778
 H   -0.0000000000   -2.4973852600   -4.1745855293
 H   -0.0000000000    2.4981250809   -4.1767766582
units bohr
}

basis {

assign 6-31g_2dfp_

[ 6-31g_2dfp_ ]

spherical

!----------------------------------------------------------------------
! Basis Set Exchange
! Version v0.8.13
! https://www.basissetexchange.org
!----------------------------------------------------------------------
!   Basis set: 6-31G(2df,p)
! Description: 6-31G(2df,p)
!        Role: orbital
!     Version: 0  (Data from the original Basis Set Exchange)
!----------------------------------------------------------------------


****
H     0
S    3   1.00
     18.7311370              0.03349460
      2.8253937              0.23472695
      0.6401217              0.81375733
S    1   1.00
      0.1612778              1.00000000
P    1   1.00
      1.5000000              1.0000000
P    1   1.00
      0.3750000              1.0000000
****
B     0
S    6   1.00
   2068.8823000              0.0018663
    310.6495700              0.0142515
     70.6830330              0.0695516
     19.8610800              0.2325729
      6.2993048              0.4670787
      2.1270270              0.3634314
SP   3   1.00
      4.7279710             -0.1303938              0.0745976
      1.1903377             -0.1307889              0.3078467
      0.3594117              1.1309444              0.7434568
SP   1   1.00
      0.1267512              1.0000000              1.0000000
D    1   1.00
      0.8020000              1.0000000
D    1   1.00
      0.2005000              1.0000000
F    1   1.00
      0.5000000              1.0000000
****
C     0
S    6   1.00
   3047.5249000              0.0018347
    457.3695100              0.0140373
    103.9486900              0.0688426
     29.2101550              0.2321844
      9.2866630              0.4679413
      3.1639270              0.3623120
SP   3   1.00
      7.8682724             -0.1193324              0.0689991
      1.8812885             -0.1608542              0.3164240
      0.5442493              1.1434564              0.7443083
SP   1   1.00
      0.1687144              1.0000000              1.0000000
D    1   1.00
      1.2520000              1.0000000
D    1   1.00
      0.3130000              1.0000000
F    1   1.00
      0.8000000              1.0000000
****
N     0
S    6   1.00
   4173.5110000              0.0018348
    627.4579000              0.0139950
    142.9021000              0.0685870
     40.2343300              0.2322410
     12.8202100              0.4690700
      4.3904370              0.3604550
SP   3   1.00
     11.6263580             -0.1149610              0.0675800
      2.7162800             -0.1691180              0.3239070
      0.7722180              1.1458520              0.7408950
SP   1   1.00
      0.2120313              1.0000000              1.0000000
D    1   1.00
      1.8260000              1.0000000
D    1   1.00
      0.4565000              1.0000000
F    1   1.00
      1.0000000              1.0000000
****
O     0
S    6   1.00
   5484.6717000              0.0018311
    825.2349500              0.0139501
    188.0469600              0.0684451
     52.9645000              0.2327143
     16.8975700              0.4701930
      5.7996353              0.3585209
SP   3   1.00
     15.5396160             -0.1107775              0.0708743
      3.5999336             -0.1480263              0.3397528
      1.0137618              1.1307670              0.7271586
SP   1   1.00
      0.2700058              1.0000000              1.0000000
D    1   1.00
      2.5840000              1.0000000
D    1   1.00
      0.6460000              1.0000000
F    1   1.00
      1.4000000              1.0000000
****
F     0
S    6   1.00
   7001.7130900              0.0018196169
   1051.3660900              0.0139160796
    239.2856900              0.0684053245
     67.3974453              0.233185760
     21.5199573              0.471267439
      7.40310130             0.356618546
SP   3   1.00
     20.8479528             -0.108506975            0.0716287243
      4.80830834            -0.146451658            0.3459121030
      1.34406986             1.128688580            0.7224699570
SP   1   1.00
      0.358151393            1.0000000              1.0000000
D    1   1.00
      3.5000000              1.0000000
D    1   1.00
      0.8750000              1.0000000
F    1   1.00
      1.8500000              1.0000000
****
Al     0
S    6   1.00
  13983.1000000              0.00194267
   2098.7500000              0.0148599
    477.7050000              0.0728494
    134.3600000              0.2468300
     42.8709000              0.4872580
     14.5189000              0.3234960
SP   6   1.00
    239.6680000             -0.00292619             0.00460285
     57.4419000             -0.0374080              0.0331990
     18.2859000             -0.1144870              0.1362820
      6.5991400              0.1156350              0.3304760
      2.4904900              0.6125950              0.4491460
      0.9445400              0.3937990              0.2657040
SP   3   1.00
      1.2779000             -0.2276060             -0.0175130
      0.3975900              0.00144583             0.2445330
      0.1600950              1.0927900              0.8049340
SP   1   1.00
      0.0556577              1.0000000              1.0000000
D    1   1.00
      0.6500000              1.0000000
D    1   1.00
      0.1625000              1.0000000
F    1   1.00
      0.2500000              1.0000000
****
Si     0
S    6   1.00
  16115.9000000              0.00195948
   2425.5800000              0.01492880
    553.8670000              0.07284780
    156.3400000              0.24613000
     50.0683000              0.48591400
     17.0178000              0.32500200
SP   6   1.00
    292.7180000             -0.00278094             0.00443826
     69.8731000             -0.03571460             0.03266790
     22.3363000             -0.11498500             0.13472100
      8.1503900              0.09356340             0.32867800
      3.1345800              0.60301700             0.44964000
      1.2254300              0.41895900             0.26137200
SP   3   1.00
      1.7273800             -0.24463000            -0.01779510
      0.5729220              0.00431572             0.25353900
      0.2221920              1.09818000             0.80066900
SP   1   1.00
      0.0778369              1.00000000             1.00000000
D    1   1.00
      0.9000000              1.0000000
D    1   1.00
      0.2250000              1.0000000
F    1   1.00
      0.3200000              1.0000000
****
P     0
S    6   1.00
  19413.3000000              0.0018516
   2909.4200000              0.0142062
    661.3640000              0.0699995
    185.7590000              0.2400790
     59.1943000              0.4847620
     20.0310000              0.3352000
SP   6   1.00
    339.4780000             -0.00278217             0.00456462
     81.0101000             -0.0360499              0.03369360
     25.8780000             -0.1166310              0.13975500
      9.4522100              0.0968328              0.33936200
      3.6656600              0.6144180              0.45092100
      1.4674600              0.4037980              0.23858600
SP   3   1.00
      2.1562300             -0.2529230             -0.01776530
      0.7489970              0.0328517              0.27405800
      0.2831450              1.0812500              0.78542100
SP   1   1.00
      0.0998317              1.0000000              1.00000000
D    1   1.00
      1.1000000              1.0000000
D    1   1.00
      0.2750000              1.0000000
F    1   1.00
      0.4500000              1.0000000
****
S     0
S    6   1.00
  21917.1000000              0.0018690
   3301.4900000              0.0142300
    754.1460000              0.0696960
    212.7110000              0.2384870
     67.9896000              0.4833070
     23.0515000              0.3380740
SP   6   1.00
    423.7350000             -0.0023767              0.0040610
    100.7100000             -0.0316930              0.0306810
     32.1599000             -0.1133170              0.1304520
     11.8079000              0.0560900              0.3272050
      4.6311000              0.5922550              0.4528510
      1.8702500              0.4550060              0.2560420
SP   3   1.00
      2.6158400             -0.2503740             -0.0145110
      0.9221670              0.0669570              0.3102630
      0.3412870              1.0545100              0.7544830
SP   1   1.00
      0.1171670              1.0000000              1.0000000
D    1   1.00
      1.3000000              1.0000000
D    1   1.00
      0.3250000              1.0000000
F    1   1.00
      0.5500000              1.0000000
****
Cl     0
S    6   1.00
  25180.1000000              0.0018330
   3780.3500000              0.0140340
    860.4740000              0.0690970
    242.1450000              0.2374520
     77.3349000              0.4830340
     26.2470000              0.3398560
SP   6   1.00
    491.7650000             -0.0022974              0.0039894
    116.9840000             -0.0307140              0.0303180
     37.4153000             -0.1125280              0.1298800
     13.7834000              0.0450160              0.3279510
      5.4521500              0.5893530              0.4535270
      2.2258800              0.4652060              0.2521540
SP   3   1.00
      3.1864900             -0.2518300             -0.0142990
      1.1442700              0.0615890              0.3235720
      0.4203770              1.0601800              0.7435070
SP   1   1.00
      0.1426570              1.0000000              1.0000000
D    1   1.00
      1.5000000              1.0000000
D    1   1.00
      0.3750000              1.0000000
F    1   1.00
      0.7000000              1.0000000
****
}


set {
reference rhf                          
freeze_core true
e_convergence 10                       
d_convergence 10                      
dft_spherical_points 1202
dft_radial_points 99
}

e = energy('b3lyp')

print_out('Grab this energy {0}'.format(e))
--------------------------------------------------------------------------

  Memory set to  13.039 GiB by Python driver.

Scratch directory: /tmp/

*** tstart() called on n076
*** at Wed Nov 17 10:55:32 2021

   => Loading Basis Set <=

    Name: ANONYMOUS856B6740
    Role: ORBITAL
    Keyword: BASIS
    atoms 1   entry S          line   216 inputblock 6-31g_2dfp_ 
    atoms 2-5 entry C          line    48 inputblock 6-31g_2dfp_ 
    atoms 6-9 entry H          line    15 inputblock 6-31g_2dfp_ 


         ---------------------------------------------------------
                                   SCF
               by Justin Turney, Rob Parrish, Andy Simmonett
                          and Daniel G. A. Smith
                              RKS Reference
                        4 Threads,  13351 MiB Core
         ---------------------------------------------------------

  ==> Geometry <==

    Molecular point group: cs
    Full point group: Cs

    Geometry (in Bohr), charge = 0, multiplicity = 1:

       Center              X                  Y                   Z               Mass       
    ------------   -----------------  -----------------  -----------------  -----------------
         S            0.004342450215    -2.174109247558     0.000000000000    31.972071174400
         C           -2.338423145485     0.091392032542     0.000000000000    12.000000000000
         C            2.333994954015     0.093735427742     0.000000000000    12.000000000000
         C            1.346228230915     2.491753508742     0.000000000000    12.000000000000
         C           -1.351716880985     2.491631104042     0.000000000000    12.000000000000
         H           -4.307796980385    -0.458358089958     0.000000000000     1.007825032230
         H            4.294468091615    -0.461806975258     0.000000000000     1.007825032230
         H            2.494579102715     4.174230431842     0.000000000000     1.007825032230
         H           -2.500931238185     4.176421560742     0.000000000000     1.007825032230

  Running in cs symmetry.

  Rotational constants: A =      0.26812  B =      0.17922  C =      0.10742 [cm^-1]
  Rotational constants: A =   8038.01132  B =   5372.81439  C =   3220.28963 [MHz]
  Nuclear repulsion =  202.269930899193469

  Charge       = 0
  Multiplicity = 1
  Electrons    = 44
  Nalpha       = 22
  Nbeta        = 22

  ==> Algorithm <==

  SCF Algorithm Type is DF.
  DIIS enabled.
  MOM disabled.
  Fractional occupation disabled.
  Guess Type is SAD.
  Energy threshold   = 1.00e-10
  Density threshold  = 1.00e-10
  Integral threshold = 0.00e+00

  ==> Primary Basis <==

  Basis Set: ANONYMOUS856B6740
    Blend: 6-31G_2DFP_
    Number of shells: 58
    Number of basis function: 166
    Number of Cartesian functions: 191
    Spherical Harmonics?: true
    Max angular momentum: 3

  ==> DFT Potential <==

   => Composite Functional: B3LYP <= 

    B3LYP Hyb-GGA Exchange-Correlation Functional

    P. J. Stephens, F. J. Devlin, C. F. Chabalowski, and M. J. Frisch, J. Phys. Chem. 98, 11623 (1994)

    Deriv               =              1
    GGA                 =           TRUE
    Meta                =          FALSE

    Exchange Hybrid     =           TRUE
    MP2 Hybrid          =          FALSE

   => Exchange Functionals <=

    0.0800   Slater exchange
    0.7200         Becke 88

   => Exact (HF) Exchange <=

    0.2000               HF 

   => Correlation Functionals <=

    0.1900   Vosko, Wilk & Nusair (VWN5_RPA)
    0.8100   Lee, Yang & Parr

   => Molecular Quadrature <=

    Radial Scheme          =       TREUTLER
    Pruning Scheme         =           NONE
    Nuclear Scheme         =       TREUTLER

    BS radius alpha        =              1
    Pruning alpha          =              1
    Radial Points          =             99
    Spherical Points       =           1202
    Total Points           =         999241
    Total Blocks           =           6656
    Max Points             =            256
    Max Functions          =            165
    Weights Tolerance      =       1.00E-15

   => Loading Basis Set <=

    Name: (ANONYMOUS856B6740 AUX)
    Role: JKFIT
    Keyword: DF_BASIS_SCF
    atoms 1   entry S          line   903 file /opt/psi/4/master/share/psi4/basis/def2-universal-jkfit.gbs 
    atoms 2-5 entry C          line   198 file /opt/psi/4/master/share/psi4/basis/def2-universal-jkfit.gbs 
    atoms 6-9 entry H          line    18 file /opt/psi/4/master/share/psi4/basis/def2-universal-jkfit.gbs 

  ==> Integral Setup <==

  DFHelper Memory: AOs need 0.110 GiB; user supplied 5.846 GiB. Using in-core AOs.

  ==> MemDFJK: Density-Fitted J/K Matrices <==

    J tasked:                   Yes
    K tasked:                   Yes
    wK tasked:                   No
    OpenMP threads:               4
    Memory [MiB]:              5986
    Algorithm:                 Core
    Schwarz Cutoff:           1E-12
    Mask sparsity (%):       1.0597
    Fitting Condition:        1E-10

   => Auxiliary Basis Set <=

  Basis Set: (ANONYMOUS856B6740 AUX)
    Blend: DEF2-UNIVERSAL-JKFIT
    Number of shells: 162
    Number of basis function: 500
    Number of Cartesian functions: 591
    Spherical Harmonics?: true
    Max angular momentum: 4

  Cached 100.0% of DFT collocation blocks in 3.933 [GiB].

  Minimum eigenvalue in the overlap matrix is 3.0291543960E-04.
  Reciprocal condition number of the overlap matrix is 5.1174878038E-05.
    Using symmetric orthogonalization.

  ==> Pre-Iterations <==

  SCF Guess: Superposition of Atomic Densities via on-the-fly atomic UHF (no occupation information).

   -------------------------
    Irrep   Nso     Nmo    
   -------------------------
     A'       112     112 
     A"        54      54 
   -------------------------
    Total     166     166
   -------------------------

  ==> Iterations <==

                           Total Energy        Delta E     RMS |[F,P]|

   @DF-RKS iter SAD:  -552.76977323818812   -5.52770e+02   0.00000e+00 
   @DF-RKS iter   1:  -552.67297821439297    9.67950e-02   6.28629e-03 DIIS
   @DF-RKS iter   2:  -552.20208535142979    4.70893e-01   9.53718e-03 DIIS
   @DF-RKS iter   3:  -553.00129876331130   -7.99213e-01   1.31666e-03 DIIS
   @DF-RKS iter   4:  -553.01132736597515   -1.00286e-02   8.99067e-04 DIIS
   @DF-RKS iter   5:  -553.01819860369790   -6.87124e-03   1.89257e-04 DIIS
   @DF-RKS iter   6:  -553.01847548938588   -2.76886e-04   3.91042e-05 DIIS
   @DF-RKS iter   7:  -553.01848830170729   -1.28123e-05   7.27931e-06 DIIS
   @DF-RKS iter   8:  -553.01848876420695   -4.62500e-07   1.10731e-06 DIIS
   @DF-RKS iter   9:  -553.01848877369684   -9.48990e-09   6.23011e-07 DIIS
   @DF-RKS iter  10:  -553.01848877649309   -2.79624e-09   2.75005e-07 DIIS
   @DF-RKS iter  11:  -553.01848877717771   -6.84622e-10   1.94110e-08 DIIS
   @DF-RKS iter  12:  -553.01848877718146   -3.75167e-12   1.29835e-08 DIIS
   @DF-RKS iter  13:  -553.01848877718237   -9.09495e-13   2.17378e-09 DIIS
   @DF-RKS iter  14:  -553.01848877718191    4.54747e-13   3.18103e-10 DIIS
   @DF-RKS iter  15:  -553.01848877718271   -7.95808e-13   6.52149e-11 DIIS
  Energy and wave function converged.


  ==> Post-Iterations <==

    Orbital Energies [Eh]
    ---------------------

    Doubly Occupied:                                                      

       1Ap   -88.894909     2Ap   -10.203549     3Ap   -10.202955  
       4Ap   -10.183719     5Ap   -10.183288     6Ap    -7.963431  
       7Ap    -5.926844     8Ap    -5.923269     1App   -5.921266  
       9Ap    -0.871867    10Ap    -0.728500    11Ap    -0.717267  
      12Ap    -0.558653    13Ap    -0.548536    14Ap    -0.509903  
      15Ap    -0.407316    16Ap    -0.387504    17Ap    -0.382823  
       2App   -0.374866    18Ap    -0.340082     3App   -0.248345  
       4App   -0.232550  

    Virtual:                                                              

       5App   -0.008825    19Ap     0.035809     6App    0.063991  
      20Ap     0.096854    21Ap     0.107094    22Ap     0.139336  
      23Ap     0.159384    24Ap     0.161726    25Ap     0.219455  
      26Ap     0.264937    27Ap     0.270136     7App    0.314498  
      28Ap     0.349891    29Ap     0.358243    30Ap     0.390740  
      31Ap     0.415320     8App    0.420491    32Ap     0.420973  
       9App    0.421396    33Ap     0.474052    34Ap     0.478188  
      10App    0.478609    11App    0.515838    35Ap     0.576002  
      12App    0.602696    36Ap     0.608578    13App    0.626304  
      37Ap     0.628338    38Ap     0.645289    14App    0.645801  
      39Ap     0.650668    40Ap     0.690223    15App    0.696647  
      41Ap     0.730837    16App    0.738186    42Ap     0.761461  
      43Ap     0.822423    44Ap     0.826180    45Ap     0.898886  
      17App    0.907605    46Ap     0.908047    18App    0.929067  
      47Ap     0.951392    19App    0.961069    20App    1.034660  
      48Ap     1.047036    21App    1.083653    49Ap     1.084818  
      50Ap     1.103562    51Ap     1.143606    22App    1.190386  
      52Ap     1.220564    53Ap     1.230777    23App    1.304814  
      54Ap     1.309452    55Ap     1.324307    24App    1.342384  
      56Ap     1.350957    57Ap     1.385584    58Ap     1.395427  
      25App    1.452966    59Ap     1.554764    60Ap     1.589149  
      61Ap     1.617011    62Ap     1.649067    63Ap     1.686697  
      26App    1.746374    27App    1.816928    64Ap     1.824250  
      28App    1.844441    65Ap     1.901431    66Ap     1.923928  
      67Ap     2.003636    68Ap     2.027847    69Ap     2.168783  
      70Ap     2.187439    29App    2.327202    30App    2.347382  
      71Ap     2.365998    72Ap     2.388255    73Ap     2.404272  
      74Ap     2.457000    31App    2.668058    32App    2.684265  
      75Ap     2.733163    33App    2.803571    76Ap     2.832600  
      34App    2.838062    77Ap     2.857902    35App    2.899394  
      78Ap     2.930392    79Ap     3.000820    80Ap     3.050308  
      81Ap     3.115904    36App    3.120194    82Ap     3.126070  
      37App    3.205003    38App    3.223685    83Ap     3.229086  
      39App    3.230083    84Ap     3.238413    40App    3.280961  
      85Ap     3.293768    86Ap     3.299561    87Ap     3.334916  
      41App    3.335223    42App    3.338080    43App    3.393991  
      88Ap     3.467366    89Ap     3.484582    90Ap     3.530531  
      44App    3.559515    91Ap     3.565060    45App    3.619486  
      92Ap     3.684883    93Ap     3.693619    46App    3.752819  
      47App    3.765624    94Ap     3.782702    95Ap     3.826442  
      48App    3.934627    96Ap     3.938981    49App    4.041031  
      97Ap     4.056329    50App    4.095887    98Ap     4.114360  
      99Ap     4.175530    51App    4.212074   100Ap     4.268334  
      52App    4.342895   101Ap     4.375408    53App    4.434773  
     102Ap     4.495749   103Ap     4.602818    54App    4.631942  
     104Ap     4.716435   105Ap     4.765188   106Ap     4.935641  
     107Ap     5.012740   108Ap     5.111528   109Ap     5.173367  
     110Ap     5.413534   111Ap     5.546044   112Ap     5.630807  

    Final Occupation by Irrep:
             Ap   App 
    DOCC [    18,    4 ]

  @DF-RKS Final Energy:  -553.01848877718271

   => Energetics <=

    Nuclear Repulsion Energy =            202.2699308991934686
    One-Electron Energy =               -1158.9247729376666030
    Two-Electron Energy =                 443.1256048412266182
    DFT Exchange-Correlation Energy =     -39.4892515799361945
    Empirical Dispersion Energy =           0.0000000000000000
    VV10 Nonlocal Energy =                  0.0000000000000000
    Total Energy =                       -553.0184887771827107

Computation Completed


Properties will be evaluated at   0.000000,   0.000000,   0.000000 [a0]

Properties computed using the SCF density matrix

  Nuclear Dipole Moment: [e a0]
     X:    -0.0097      Y:     3.6558      Z:     0.0000

  Electronic Dipole Moment: [e a0]
     X:     0.0104      Y:    -3.4281      Z:     0.0000

  Dipole Moment: [e a0]
     X:     0.0007      Y:     0.2277      Z:     0.0000     Total:     0.2277

  Dipole Moment: [D]
     X:     0.0018      Y:     0.5788      Z:     0.0000     Total:     0.5788


*** tstop() called on n076 at Wed Nov 17 10:55:53 2021
Module time:
	user time   =      80.95 seconds =       1.35 minutes
	system time =       1.14 seconds =       0.02 minutes
	total time  =         21 seconds =       0.35 minutes
Total time:
	user time   =      80.95 seconds =       1.35 minutes
	system time =       1.14 seconds =       0.02 minutes
	total time  =         21 seconds =       0.35 minutes
Grab this energy -553.0184887771827
    Psi4 stopped on: Wednesday, 17 November 2021 10:55AM
    Psi4 wall time for execution: 0:00:21.04

*** Psi4 exiting successfully. Buy a developer a beer!
