
 Primary working directories    : /tmp/999602.288.gen6.q
 Secondary working directories  : /tmp/999602.288.gen6.q
 Wavefunction directory         : /home/vulcan/jj04645/wfu/
 Main file repository           : /tmp/999602.288.gen6.q/

 ARCHNAME  : Linux/x86_64
 FC        : /opt/intel/compilers_and_libraries_2016.1.150/linux/bin/intel64/ifort
 FCVERSION : 16.0.1
 BLASLIB   : -mkl
 id        : ccgc

 Nodes     nprocs
 n086         1
 ga_uses_ma=false, calling ma_init with nominal heap.
 GA-space will be limited to   8.0 MW (determined by -G option)

 Using customized tuning parameters: mindgm=10; mindgv=16; mindgc=4; mindgr=1; noblas=0; mincuda=1000; minvec=7
 default implementation of scratch files=df  

 ***,Optimization of 1,3-difluorobenzene
 memory,1000,m
 gthresh,energy=1.0d-12,orbital=1.0d-10,oneint=1.0d-16,twoint=1.0d-16,optgrad=1.0d-6,compress=1.0d-13
 geomtyp=xyz
 
 bohr
 geometry = {
  F    0.0000000000    4.4313585525   -1.7612295371
  C    0.0000000000    2.2396251264   -0.4820387970
  C   -0.0000000000   -2.2959401815    2.1466853489
  C    0.0000000000   -0.0021673623   -1.8519987652
  C    0.0000000000    2.2959790033    2.1491836060
  C   -0.0000000000    0.0021850997    3.4447863915
  C    0.0000000000   -2.2396273934   -0.4845379528
  H    0.0000000000   -0.0022168962   -3.9033947575
  H    0.0000000000    4.0895408083    3.1262124211
  H   -0.0000000000    0.0021676381    5.4898042805
  F    0.0000000000   -4.4314016943   -1.7636586565
  H   -0.0000000000   -4.0895027004    3.1237128536
 }
 
 basis=VDZ
 {rhf;maxit,200}
 {ccsd(t);maxit,200}

 Variables initialized (661), CPU time= 0.01 sec
 Commands  initialized (458), CPU time= 0.00 sec, 486 directives.
 Default parameters read. Elapsed time= 0.04 sec

 Checking input...
 Passed
1


                                         ***  PROGRAM SYSTEM MOLPRO  ***
                         Copyright, University College Cardiff Consultants Limited, 2008

                                    Version 2010.1 linked May 16 2016 07:17:05


 **********************************************************************************************************************************
 LABEL *   Optimization of 1,3-difluorobenzene                                           
 Linux-4.4.3/n086(x86_64) 64 bit mpp version                                             DATE: 07-Feb-24          TIME: 13:59:51  
 **********************************************************************************************************************************

 SHA1:             9e8077add272b0f3cad6f7df79ec5211205f459d
 **********************************************************************************************************************************

 THRESHOLDS:

 ZERO    =  1.00D-12  ONEINT  =  1.00D-16  TWOINT  =  1.00D-16  PREFAC  =  1.00D-14  LOCALI  =  1.00D-09  EORDER  =  1.00D-04
 ENERGY  =  1.00D-12  ETEST   =  0.00D+00  EDENS   =  0.00D+00  THRDEDEF=  1.00D-06  GRADIENT=  1.00D-02  STEP    =  1.00D-03
 ORBITAL =  1.00D-10  CIVEC   =  1.00D-05  COEFF   =  1.00D-04  PRINTCI =  5.00D-02  PUNCHCI =  9.90D+01  OPTGRAD =  1.00D-06
 OPTENERG=  1.00D-06  OPTSTEP =  3.00D-04  THRGRAD =  1.00D-10  COMPRESS=  1.00D-13  VARMIN  =  1.00D-07  VARMAX  =  1.00D-03
 THRDOUB =  0.00D+00  THRDIV  =  1.00D-05  THRRED  =  1.00D-07  THRPSP  =  1.00D+00  THRDC   =  1.00D-10  THRCS   =  1.00D-10
 THRNRM  =  1.00D-08  THREQ   =  0.00D+00  THRDE   =  1.00D+00  THRREF  =  1.00D-05  SPARFAC =  1.00D+00  THRDLP  =  1.00D-07
 THRDIA  =  1.00D-10  THRDLS  =  1.00D-07  THRGPS  =  0.00D+00  THRKEX  =  0.00D+00  THRDIS  =  2.00D-01  THRVAR  =  1.00D-10
 THRLOC  =  1.00D-06  THRGAP  =  1.00D-06  THRLOCT = -1.00D+00  THRGAPT = -1.00D+00  THRORB  =  1.00D-06  THRMLTP =  0.00D+00
 THRCPQCI=  1.00D-10  KEXTA   =  0.00D+00  THRCOARS=  0.00D+00  SYMTOL  =  1.00D-06  GRADTOL =  1.00D-06  THROVL  =  1.00D-08
 THRORTH =  1.00D-08  GRID    =  1.00D-06  GRIDMAX =  1.00D-03  DTMAX   =  0.00D+00

 SETTING GEOMTYP        =    XYZ
 ZUNIT=BOHR
 

 Variable memory set to 1000000000 words,  buffer space   230000 words

 SETTING BASIS          =    VDZ


 Recomputing integrals since basis changed


 Using spherical harmonics

 Library entry F      S cc-pVDZ              selected for orbital group  1
 Library entry F      P cc-pVDZ              selected for orbital group  1
 Library entry F      D cc-pVDZ              selected for orbital group  1
 Library entry C      S cc-pVDZ              selected for orbital group  2
 Library entry C      P cc-pVDZ              selected for orbital group  2
 Library entry C      D cc-pVDZ              selected for orbital group  2
 Library entry H      S cc-pVDZ              selected for orbital group  3
 Library entry H      P cc-pVDZ              selected for orbital group  3

1PROGRAM * SEWARD (Integral evaluation for generally contracted gaussian basis sets)     Author: Roland Lindh, 1990

 Geometry written to block  1 of record 700


 Point group  Cs  



 ATOMIC COORDINATES

 NR  ATOM    CHARGE       X              Y              Z

   1  F       9.00    0.000000000    4.431358552   -1.761229537
   2  C       6.00    0.000000000    2.239625126   -0.482038797
   3  C       6.00    0.000000000   -2.295940181    2.146685349
   4  C       6.00    0.000000000   -0.002167362   -1.851998765
   5  C       6.00    0.000000000    2.295979003    2.149183606
   6  C       6.00    0.000000000    0.002185100    3.444786392
   7  C       6.00    0.000000000   -2.239627393   -0.484537953
   8  H       1.00    0.000000000   -0.002216896   -3.903394758
   9  H       1.00    0.000000000    4.089540808    3.126212421
  10  H       1.00    0.000000000    0.002167638    5.489804280
  11  F       9.00    0.000000000   -4.431401694   -1.763658657
  12  H       1.00    0.000000000   -4.089502700    3.123712854

 Bond lengths in Bohr (Angstrom)

 1-2  2.537720308  2-4  2.627246444  2-5  2.631825810  3-6  2.639402608  3-7  2.631825829
     ( 1.342903750)     ( 1.390278941)     ( 1.392702237)     ( 1.396711705)     ( 1.392702247)

  3-12  2.042412606   4- 7  2.622246454   4- 8  2.051395993   5- 6  2.634402598   5- 9  2.042412606
       ( 1.080798203)       ( 1.387633060)       ( 1.085552006)       ( 1.394065814)       ( 1.080798203)

  6-10  2.045017889   7-11  2.537720308
       ( 1.082176859)       ( 1.342903750)

 Bond angles

  1-2-4  118.30119684   1-2-5  119.04275269   2-4-7  117.13900729   2-4-8  121.43049635

  2- 5- 6  118.23211116   2- 5- 9  119.80593248   3- 6- 5  121.08092400   3- 6-10  119.45953800

  3- 7- 4  122.65792273   3- 7-11  119.04181656   4- 2- 5  122.65605048   4- 7-11  118.30026071

  5- 6-10  119.45953800   6- 3- 7  118.23398434   6- 3-12  121.96101978   6- 5- 9  121.96195637

  7- 3-12  119.80499588   7- 4- 8  121.43049636

 NUCLEAR CHARGE:                   58
 NUMBER OF PRIMITIVE AOS:         244
 NUMBER OF SYMMETRY AOS:          236
 NUMBER OF CONTRACTIONS:          132   (  96A'  +  36A"  )
 NUMBER OF CORE ORBITALS:           8   (   8A'  +   0A"  )
 NUMBER OF VALENCE ORBITALS:       36   (  28A'  +   8A"  )


 NUCLEAR REPULSION ENERGY  342.34125775


 Eigenvalues of metric

         1 0.394E-03 0.121E-02 0.169E-02 0.263E-02 0.306E-02 0.315E-02 0.125E-01 0.130E-01
         2 0.413E-01 0.908E-01 0.100E+00 0.162E+00 0.166E+00 0.185E+00 0.190E+00 0.214E+00


 Contracted 2-electron integrals neglected if value below      1.0D-16
 AO integral compression algorithm  1   Integral accuracy      1.0D-16

     155.976 MB (compressed) written to integral file ( 89.5%)

     Node minimum: 155.976 MB, node maximum: 155.976 MB


 NUMBER OF SORTED TWO-ELECTRON INTEGRALS:   20366295.     BUFFER LENGTH:  32768
 NUMBER OF SEGMENTS:   2  SEGMENT LENGTH:   15994311      RECORD LENGTH: 524288

 Memory used in sort:      16.55 MW

 SORT1 READ    21748192. AND WROTE    19839963. INTEGRALS IN     57 RECORDS. CPU TIME:     0.25 SEC, REAL TIME:     0.37 SEC
 SORT2 READ    19839963. AND WROTE    20366295. INTEGRALS IN    595 RECORDS. CPU TIME:     0.20 SEC, REAL TIME:     0.27 SEC

 FILE SIZES:   FILE 1:   148.2 MBYTE,  FILE 4:   239.1 MBYTE,   TOTAL:    387.3 MBYTE

 OPERATOR DM      FOR CENTER  0  COORDINATES:    0.000000    0.000000    0.000000


 **********************************************************************************************************************************
 DATASETS  * FILE   NREC   LENGTH (MB)   RECORD NAMES
              1      19      148.27       500      610      700      900      950      970     1000      129      960     1100   
                                          VAR    BASINP    GEOM    SYMINP    ZMAT    AOBASIS   BASIS     P2S    ABASIS      S 
                                         1400     1410     1200     1210     1080     1600     1650     1300     1700   
                                           T        V       H0       H01     AOSYM     SMH    MOLCAS    ERIS     OPER   

 PROGRAMS   *        TOTAL       INT
 CPU TIMES  *         3.57      3.53
 REAL TIME  *         4.07 SEC
 DISK USED  *       544.11 MB      
 GA USED    *         0.00 MB       (max)       0.00 MB       (current)
 **********************************************************************************************************************************

1PROGRAM * RHF-SCF (CLOSED SHELL)       Authors: W. Meyer, H.-J. Werner


 NUMBER OF ELECTRONS:      29+   29-
 CONVERGENCE THRESHOLDS:    1.00E-10 (Density)    1.00E-13 (Energy)
 MAX. NUMBER OF ITERATIONS:      200
 INTERPOLATION TYPE:            DIIS
 INTERPOLATION STEPS:              2 (START)      1 (STEP)
 LEVEL SHIFTS:                  0.00 (CLOSED)  0.00 (OPEN) 



 Orbital guess generated from atomic densities. Full valence occupancy:   36   8

 Molecular orbital dump at record        2100.2

 Initial alpha occupancy:  24   5
 Initial beta  occupancy:  24   5
 Wave function symmetry:    1

 ITERATION    DDIFF          GRAD             ENERGY        2-EL.EN.            DIPOLE MOMENTS         DIIS
    1      0.000D+00      0.000D+00      -428.34368231    993.022698    0.00000    0.00639    0.46094    0
    2      0.000D+00      0.779D-02      -428.41782903    992.559334    0.00000   -0.00014    0.92562    1
    3      0.160D-01      0.355D-02      -428.43183419    992.889926    0.00000    0.00270    0.61670    2
    4      0.509D-02      0.938D-03      -428.43339892    992.949227    0.00000    0.00166    0.73174    3
    5      0.190D-02      0.284D-03      -428.43353455    992.912834    0.00000    0.00189    0.69851    4
    6      0.480D-03      0.592D-04      -428.43354227    992.922214    0.00000    0.00186    0.70285    5
    7      0.126D-03      0.179D-04      -428.43354332    992.925522    0.00000    0.00186    0.70125    6
    8      0.427D-04      0.635D-05      -428.43354345    992.924847    0.00000    0.00186    0.70166    7
    9      0.142D-04      0.289D-05      -428.43354348    992.925245    0.00000    0.00186    0.70139    8
   10      0.765D-05      0.111D-05      -428.43354349    992.925804    0.00000    0.00185    0.70146    8
   11      0.346D-05      0.624D-06      -428.43354349    992.925717    0.00000    0.00185    0.70143    8
   12      0.212D-05      0.247D-06      -428.43354349    992.925814    0.00000    0.00185    0.70144    8
   13      0.122D-05      0.415D-07      -428.43354349    992.925841    0.00000    0.00185    0.70144    8
   14      0.136D-06      0.158D-07      -428.43354349    992.925835    0.00000    0.00185    0.70144    9
   15      0.537D-07      0.370D-08      -428.43354349    992.925835    0.00000    0.00185    0.70144    9
   16      0.112D-07      0.142D-08      -428.43354349    992.925836    0.00000    0.00185    0.70144    9
   17      0.445D-08      0.536D-09      -428.43354349    992.925836    0.00000    0.00185    0.70144    8
   18      0.158D-08      0.110D-09      -428.43354349    992.925836    0.00000    0.00185    0.70144    7
   19      0.284D-09      0.377D-10      -428.43354349    992.925836    0.00000    0.00185    0.70144    7
   20      0.100D-09      0.134D-10      -428.43354349    992.925836    0.00000    0.00185    0.70144    8
   21      0.252D-10      0.307D-11      -428.43354349    992.925836    0.00000    0.00185    0.70144    8
   22      0.669D-11      0.115D-11      -428.43354349    992.925836    0.00000    0.00185    0.70144    8
   23      0.335D-11      0.496D-12      -428.43354349    992.925836    0.00000    0.00185    0.70144    8
   24      0.213D-11      0.156D-12      -428.43354349    992.925836    0.00000    0.00185    0.70144    8
   25      0.129D-11      0.818D-13      -428.43354349    992.925836    0.00000    0.00185    0.70144    8
   26      0.666D-12      0.616D-13      -428.43354349    992.925836    0.00000    0.00185    0.70144    0

 Final occupancy:  24   5

 !RHF STATE 1.1 Energy               -428.433543491574
 Nuclear energy                       342.34125775
 One-electron energy                -1267.23771914
 Two-electron energy                  496.46291791
 Virial quotient                       -1.00061987
 !RHF STATE 1.1 Dipole moment           0.00000000     0.00185297     0.70143590
 Dipole moment /Debye                   0.00000000     0.00470947     1.78275544

 Orbital energies:

         1.1          2.1          3.1          4.1          5.1          6.1          7.1          8.1          9.1         10.1
    -26.321030   -26.320893   -11.349920   -11.349545   -11.272501   -11.259144   -11.256029   -11.255889    -1.639558    -1.638949

        11.1         12.1         13.1         14.1         15.1         16.1         17.1         18.1         19.1         20.1
     -1.178971    -1.047409    -1.036127    -0.874344    -0.865480    -0.774635    -0.741063    -0.702319    -0.684834    -0.668360

        21.1         22.1         23.1         24.1         25.1         26.1
     -0.622812    -0.586310    -0.555211    -0.532246     0.179778     0.220696

         1.2          2.2          3.2          4.2          5.2          6.2          7.2
     -0.703926    -0.695882    -0.513814    -0.361001    -0.347739     0.114412     0.131291


 **********************************************************************************************************************************
 DATASETS  * FILE   NREC   LENGTH (MB)   RECORD NAMES
              1      19      148.27       500      610      700      900      950      970     1000      129      960     1100   
                                          VAR    BASINP    GEOM    SYMINP    ZMAT    AOBASIS   BASIS     P2S    ABASIS      S 
                                         1400     1410     1200     1210     1080     1600     1650     1300     1700   
                                           T        V       H0       H01     AOSYM     SMH    MOLCAS    ERIS     OPER   

              2       3        0.68       700     1000     2100   
                                         GEOM     BASIS     RHF  

 PROGRAMS   *        TOTAL       RHF       INT
 CPU TIMES  *         6.40      2.83      3.53
 REAL TIME  *         7.26 SEC
 DISK USED  *       544.11 MB      
 GA USED    *         0.00 MB       (max)       0.00 MB       (current)
 **********************************************************************************************************************************


1PROGRAM * CCSD (Closed-shell coupled cluster)     Authors: C. Hampel, H.-J. Werner, 1991, M. Deegan, P.J. Knowles, 1992


 Convergence thresholds:  THRVAR = 1.00D-08  THRDEN = 1.00D-12

 CCSD(T)     terms to be evaluated (factor= 1.000)


 Number of core orbitals:           8 (   8   0 )
 Number of closed-shell orbitals:  21 (  16   5 )
 Number of external orbitals:     103 (  72  31 )

 Molecular orbitals read from record     2100.2  Type=RHF/CANONICAL (state 1.1)

 Number of N-1 electron functions:              21
 Number of N-2 electron functions:             231
 Number of singly external CSFs:              1307
 Number of doubly external CSFs:           1221574
 Total number of CSFs:                     1222882

 Length of J-op  integral file:               0.00 MB
 Length of K-op  integral file:               0.76 MB
 Length of 3-ext integral record:             0.00 MB

 Memory could be reduced to 16.61 Mwords without degradation in triples

 Integral transformation finished. Total CPU:   0.79 sec, npass=  1  Memory used:   9.88 MW

 Reference energy:                   -428.43354349

 MP2 singlet pair energy:              -0.67272030
 MP2 triplet pair energy:              -0.46575813
 MP2 correlation energy:               -1.13847843
 MP2 total energy:                   -429.57202193

 SCS-MP2 correlation energy:           -1.09706942   (PS=  1.200000  PT=  0.333333)
 SCS-MP2 total energy:               -429.53061291

 ITER.      SQ.NORM     CORR.ENERGY   TOTAL ENERGY   ENERGY CHANGE        DEN1      VAR(S)    VAR(P)  DIIS     TIME
   1      1.36220826    -1.16822011  -429.60176361    -0.02974168     0.00050947  0.67D-02  0.73D-02  1  1     3.42
   2      1.38869042    -1.17175395  -429.60529744    -0.00353384    -0.02701046  0.13D-03  0.11D-02  2  2     6.09
   3      1.39949408    -1.17235612  -429.60589961    -0.00060217    -0.00538576  0.86D-04  0.10D-03  3  3     8.78
   4      1.40352467    -1.17228157  -429.60582506     0.00007455    -0.00142437  0.48D-05  0.20D-04  4  4    11.47
   5      1.40536469    -1.17231214  -429.60585563    -0.00003056    -0.00045118  0.90D-06  0.22D-05  5  5    14.17
   6      1.40584049    -1.17231793  -429.60586142    -0.00000579    -0.00006809  0.12D-06  0.24D-06  6  6    16.86
   7      1.40592748    -1.17231289  -429.60585638     0.00000503     0.00000028  0.28D-07  0.22D-07  6  1    19.54
   8      1.40595240    -1.17231401  -429.60585751    -0.00000112    -0.00000756  0.60D-08  0.30D-08  6  2    22.24
   9      1.40595369    -1.17231468  -429.60585817    -0.00000066     0.00000229  0.17D-08  0.34D-09  6  3    24.93
  10      1.40595604    -1.17231445  -429.60585794     0.00000023    -0.00000121  0.38D-09  0.75D-10  6  4    27.64
  11      1.40595610    -1.17231469  -429.60585818    -0.00000024     0.00000032  0.45D-10  0.20D-10  6  5    30.33
  12      1.40595630    -1.17231467  -429.60585816     0.00000002    -0.00000007  0.11D-10  0.24D-11  6  6    33.02
  13      1.40595630    -1.17231469  -429.60585818    -0.00000002     0.00000005  0.57D-12  0.56D-12  6  1    35.71
  14      1.40595629    -1.17231470  -429.60585819    -0.00000001     0.00000002  0.15D-12  0.87D-13  6  2    38.40
  15      1.40595628    -1.17231470  -429.60585819     0.00000000     0.00000000  0.40D-13  0.14D-13  6  3    41.10
  16      1.40595629    -1.17231470  -429.60585819    -0.00000000     0.00000000  0.63D-14  0.42D-14  6  4    43.78
  17      1.40595629    -1.17231470  -429.60585819    -0.00000000    -0.00000000  0.16D-14  0.72D-15  6  5    46.47
  18      1.40595629    -1.17231470  -429.60585819    -0.00000000    -0.00000000  0.21D-15  0.10D-15  6  6    49.17
  19      1.40595629    -1.17231470  -429.60585819    -0.00000000    -0.00000000  0.31D-16  0.23D-16  6  1    51.87
  20      1.40595629    -1.17231470  -429.60585819     0.00000000    -0.00000000  0.13D-16  0.29D-17  6  2    54.56
  21      1.40595629    -1.17231470  -429.60585819    -0.00000000    -0.00000000  0.14D-17  0.67D-18  6  3    57.25
  22      1.40595629    -1.17231470  -429.60585819    -0.00000000    -0.00000000  0.44D-18  0.14D-18  6  4    59.94
  23      1.40595629    -1.17231470  -429.60585819     0.00000000    -0.00000000  0.88D-19  0.23D-19  6  5    62.65
  24      1.40595629    -1.17231470  -429.60585819    -0.00000000    -0.00000000  0.80D-20  0.51D-20  6  6    65.33
  25      1.40595629    -1.17231470  -429.60585819    -0.00000000     0.00000000  0.21D-20  0.12D-20  6  1    68.02

 Norm of t1 vector:      0.10828828      S-energy:     0.00000000      T1 diagnostic:  0.01181522
                                                                       D1 diagnostic:  0.03174184

 Doubles amplitudes (print threshold =  0.500E-01):

         I         J         SYM. A    SYM. B    A         B      T(IJ, AB)

        20        20         2         2         1         1     -0.08616556
        21        20         2         2         1         2      0.05122513
        21        21         2         2         2         2     -0.08429103


 Total CPU time for triples:     44.70 sec


 RESULTS
 =======

  Reference energy                   -428.433543491573
  CCSD singlet pair energy             -0.756826156948
  CCSD triplet pair energy             -0.415488541531
  CCSD correlation energy              -1.172314698479

  Triples (T) contribution             -0.043080203377
  Total correlation energy             -1.215394901856

  CCSD total energy                  -429.605858190052
  CCSD[T] energy                     -429.650939453325
  CCSD-T energy                      -429.648213586055
 !CCSD(T) total energy               -429.648938393430

 Timing summary (sec):

 STEP                 CPU(USER)    SYS     CPU(TOT)    WALL
 Transformation          0.83      0.10      0.93      0.93
 CCSD iterations        67.19      1.74     68.93     69.01
 Triples                44.70      1.33     46.03     46.03

 Program statistics:

 Available memory in ccsd:               999998136
 Min. memory needed in ccsd:               3240252
 Max. memory used in ccsd:                 4334402
 Max. memory used in cckext:               4782293 (25 integral passes)



 **********************************************************************************************************************************
 DATASETS  * FILE   NREC   LENGTH (MB)   RECORD NAMES
              1      20      222.52       500      610      700      900      950      970     1000      129      960     1100   
                                          VAR    BASINP    GEOM    SYMINP    ZMAT    AOBASIS   BASIS     P2S    ABASIS      S 
                                         1400     1410     1200     1210     1080     1600     1650     1300     1700     1380   
                                           T        V       H0       H01     AOSYM     SMH    MOLCAS    ERIS     OPER     JKOP   

              2       3        0.68       700     1000     2100   
                                         GEOM     BASIS     RHF  

 PROGRAMS   *        TOTAL   CCSD(T)       RHF       INT
 CPU TIMES  *       119.14    112.73      2.83      3.53
 REAL TIME  *       123.28 SEC
 DISK USED  *       591.50 MB      
 GA USED    *         0.00 MB       (max)       0.00 MB       (current)
 **********************************************************************************************************************************

        CCSD(T)         RHF-SCF 
   -429.64893839   -428.43354349
 **********************************************************************************************************************************
 Variable memory released
