
 Primary working directories    : /tmp/984874.284.gen6.q
 Secondary working directories  : /tmp/984874.284.gen6.q
 Wavefunction directory         : /home/vulcan/mel64643/wfu/
 Main file repository           : /tmp/984874.284.gen6.q/

 ARCHNAME  : Linux/x86_64
 FC        : /opt/intel/compilers_and_libraries_2016.1.150/linux/bin/intel64/ifort
 FCVERSION : 16.0.1
 BLASLIB   : -mkl
 id        : ccgc

 Nodes     nprocs
 n088         1
 ga_uses_ma=false, calling ma_init with nominal heap.
 GA-space will be limited to   8.0 MW (determined by -G option)

 Using customized tuning parameters: mindgm=10; mindgv=16; mindgc=4; mindgr=1; noblas=0; mincuda=1000; minvec=7
 default implementation of scratch files=df  

 ***,Optimization of formic acid
 memory,1000,m
 gthresh,energy=1.0d-12,orbital=1.0d-10,oneint=1.0d-16,twoint=1.0d-16,optgrad=1.0d-6,compress=1.0d-13
 geomtyp=xyz
 
 
 
 bohr
 geometry = {
  C   -3.5005947235   -0.8307944220    0.0010892119
  O   -3.0943425525    1.6226587073    0.0050909374
  O   -1.8853702992   -2.4812426045    0.0021775911
  H   -5.5267364565   -1.2749207789   -0.0035438330
  H   -1.2422005171    1.9540368272   -0.0033088660
  C    3.5005947235    0.8307944220   -0.0010892119
  O    3.0943425525   -1.6226587073   -0.0050909374
  O    1.8853702992    2.4812426045   -0.0021775911
  H    5.5267364565    1.2749207789    0.0035438330
  H    1.2422005171   -1.9540368272    0.0033088660
 }
 
 basis=VTZ
 {rhf;maxit,200}
 {ccsd(t);maxit,200}

 Variables initialized (661), CPU time= 0.00 sec
 Commands  initialized (458), CPU time= 0.00 sec, 486 directives.
 Default parameters read. Elapsed time= 0.05 sec

 Checking input...
 Passed
1


                                         ***  PROGRAM SYSTEM MOLPRO  ***
                         Copyright, University College Cardiff Consultants Limited, 2008

                                    Version 2010.1 linked May 16 2016 07:17:05


 **********************************************************************************************************************************
 LABEL *   Optimization of formic acid                                                   
 Linux-4.4.3/n088(x86_64) 64 bit mpp version                                             DATE: 24-Jan-24          TIME: 14:09:30  
 **********************************************************************************************************************************

 SHA1:             9e8077add272b0f3cad6f7df79ec5211205f459d
 **********************************************************************************************************************************

 THRESHOLDS:

 ZERO    =  1.00D-12  ONEINT  =  1.00D-16  TWOINT  =  1.00D-16  PREFAC  =  1.00D-14  LOCALI  =  1.00D-09  EORDER  =  1.00D-04
 ENERGY  =  1.00D-12  ETEST   =  0.00D+00  EDENS   =  0.00D+00  THRDEDEF=  1.00D-06  GRADIENT=  1.00D-02  STEP    =  1.00D-03
 ORBITAL =  1.00D-10  CIVEC   =  1.00D-05  COEFF   =  1.00D-04  PRINTCI =  5.00D-02  PUNCHCI =  9.90D+01  OPTGRAD =  1.00D-06
 OPTENERG=  1.00D-06  OPTSTEP =  3.00D-04  THRGRAD =  1.00D-10  COMPRESS=  1.00D-13  VARMIN  =  1.00D-07  VARMAX  =  1.00D-03
 THRDOUB =  0.00D+00  THRDIV  =  1.00D-05  THRRED  =  1.00D-07  THRPSP  =  1.00D+00  THRDC   =  1.00D-10  THRCS   =  1.00D-10
 THRNRM  =  1.00D-08  THREQ   =  0.00D+00  THRDE   =  1.00D+00  THRREF  =  1.00D-05  SPARFAC =  1.00D+00  THRDLP  =  1.00D-07
 THRDIA  =  1.00D-10  THRDLS  =  1.00D-07  THRGPS  =  0.00D+00  THRKEX  =  0.00D+00  THRDIS  =  2.00D-01  THRVAR  =  1.00D-10
 THRLOC  =  1.00D-06  THRGAP  =  1.00D-06  THRLOCT = -1.00D+00  THRGAPT = -1.00D+00  THRORB  =  1.00D-06  THRMLTP =  0.00D+00
 THRCPQCI=  1.00D-10  KEXTA   =  0.00D+00  THRCOARS=  0.00D+00  SYMTOL  =  1.00D-06  GRADTOL =  1.00D-06  THROVL  =  1.00D-08
 THRORTH =  1.00D-08  GRID    =  1.00D-06  GRIDMAX =  1.00D-03  DTMAX   =  0.00D+00

 SETTING GEOMTYP        =    XYZ
 ZUNIT=BOHR
 

 Variable memory set to 1000000000 words,  buffer space   230000 words

 SETTING BASIS          =    VTZ


 Recomputing integrals since basis changed


 Using spherical harmonics

 Library entry C      S cc-pVTZ              selected for orbital group  1
 Library entry C      P cc-pVTZ              selected for orbital group  1
 Library entry C      D cc-pVTZ              selected for orbital group  1
 Library entry C      F cc-pVTZ              selected for orbital group  1
 Library entry O      S cc-pVTZ              selected for orbital group  2
 Library entry O      P cc-pVTZ              selected for orbital group  2
 Library entry O      D cc-pVTZ              selected for orbital group  2
 Library entry O      F cc-pVTZ              selected for orbital group  2
 Library entry H      S cc-pVTZ              selected for orbital group  3
 Library entry H      P cc-pVTZ              selected for orbital group  3
 Library entry H      D cc-pVTZ              selected for orbital group  3

1PROGRAM * SEWARD (Integral evaluation for generally contracted gaussian basis sets)     Author: Roland Lindh, 1990

 Geometry written to block  1 of record 700


 Point group  Ci  



 ATOMIC COORDINATES

 NR  ATOM    CHARGE       X              Y              Z

   1  C       6.00   -3.500594723   -0.830794422    0.001089212
   2  C       6.00    3.500594723    0.830794422   -0.001089212
   3  O       8.00   -3.094342553    1.622658707    0.005090937
   4  O       8.00    3.094342553   -1.622658707   -0.005090937
   5  O       8.00   -1.885370299   -2.481242604    0.002177591
   6  O       8.00    1.885370299    2.481242604   -0.002177591
   7  H       1.00   -5.526736457   -1.274920779   -0.003543833
   8  H       1.00    5.526736457    1.274920779    0.003543833
   9  H       1.00   -1.242200517    1.954036827   -0.003308866
  10  H       1.00    1.242200517   -1.954036827    0.003308866

 Bond lengths in Bohr (Angstrom)

 1-3  2.486863305  1-5  2.309313822  1-7  2.074251674  2-4  2.486863305  2-6  2.309313822
     ( 1.315991383)     ( 1.222036243)     ( 1.097646712)     ( 1.315991383)     ( 1.222036243)

  2- 8  2.074251674   3- 9  1.881571719   4-10  1.881571719
       ( 1.097646712)       ( 0.995684871)       ( 0.995684871)

 Bond angles

  1- 3- 9  109.54509197   2- 4-10  109.54509197   3- 1- 5  126.21591263   3- 1- 7  111.76566676

  4-2-6  126.21591263   4-2-8  111.76566676   5-1-7  122.01842061   6-2-8  122.01842061

 NUCLEAR CHARGE:                   48
 NUMBER OF PRIMITIVE AOS:         350
 NUMBER OF SYMMETRY AOS:          316
 NUMBER OF CONTRACTIONS:          236   ( 118Ag  + 118Au  )
 NUMBER OF CORE ORBITALS:           6   (   3Ag  +   3Au  )
 NUMBER OF VALENCE ORBITALS:       28   (  14Ag  +  14Au  )


 NUCLEAR REPULSION ENERGY  235.49314922


 Eigenvalues of metric

         1 0.143E-02 0.159E-02 0.224E-02 0.353E-02 0.402E-02 0.539E-02 0.574E-02 0.901E-02
         2 0.133E-02 0.160E-02 0.268E-02 0.361E-02 0.393E-02 0.553E-02 0.646E-02 0.761E-02


 Contracted 2-electron integrals neglected if value below      1.0D-16
 AO integral compression algorithm  1   Integral accuracy      1.0D-16

     1704.722 MB (compressed) written to integral file ( 90.7%)

     Node minimum: 1704.722 MB, node maximum: 1704.722 MB


 NUMBER OF SORTED TWO-ELECTRON INTEGRALS:  197184785.     BUFFER LENGTH:  32768
 NUMBER OF SEGMENTS:  13  SEGMENT LENGTH:   15997996      RECORD LENGTH: 524288

 Memory used in sort:      16.56 MW

 SORT1 READ   234824792. AND WROTE   197161831. INTEGRALS IN    568 RECORDS. CPU TIME:     2.40 SEC, REAL TIME:     3.97 SEC
 SORT2 READ   197161831. AND WROTE   197184785. INTEGRALS IN   6503 RECORDS. CPU TIME:     1.97 SEC, REAL TIME:     2.71 SEC

 FILE SIZES:   FILE 1:  1482.1 MBYTE,  FILE 4:  2382.4 MBYTE,   TOTAL:   3864.5 MBYTE

 OPERATOR DM      FOR CENTER  0  COORDINATES:    0.000000    0.000000    0.000000


 **********************************************************************************************************************************
 DATASETS  * FILE   NREC   LENGTH (MB)   RECORD NAMES
              1      19     1482.41       500      610      700      900      950      970     1000      129      960     1100   
                                          VAR    BASINP    GEOM    SYMINP    ZMAT    AOBASIS   BASIS     P2S    ABASIS      S 
                                         1400     1410     1200     1210     1080     1600     1650     1300     1700   
                                           T        V       H0       H01     AOSYM     SMH    MOLCAS    ERIS     OPER   

 PROGRAMS   *        TOTAL       INT
 CPU TIMES  *        14.66     14.62
 REAL TIME  *        17.91 SEC
 DISK USED  *         5.57 GB      
 GA USED    *         0.00 MB       (max)       0.00 MB       (current)
 **********************************************************************************************************************************

1PROGRAM * RHF-SCF (CLOSED SHELL)       Authors: W. Meyer, H.-J. Werner


 NUMBER OF ELECTRONS:      24+   24-
 CONVERGENCE THRESHOLDS:    1.00E-10 (Density)    1.00E-13 (Energy)
 MAX. NUMBER OF ITERATIONS:      200
 INTERPOLATION TYPE:            DIIS
 INTERPOLATION STEPS:              2 (START)      1 (STEP)
 LEVEL SHIFTS:                  0.00 (CLOSED)  0.00 (OPEN) 



 Orbital guess generated from atomic densities. Full valence occupancy:   17  17

 Molecular orbital dump at record        2100.2

 Initial alpha occupancy:  12  12
 Initial beta  occupancy:  12  12
 Wave function symmetry:    1

 ITERATION    DDIFF          GRAD             ENERGY        2-EL.EN.            DIPOLE MOMENTS         DIIS
    1      0.000D+00      0.000D+00      -377.56145535    747.183534    0.00000    0.00000    0.00000    0
    2      0.000D+00      0.710D-02      -377.64913762    744.121134    0.00000    0.00000    0.00000    1
    3      0.114D-01      0.463D-02      -377.69882861    746.445926    0.00000    0.00000    0.00000    2
    4      0.451D-02      0.617D-03      -377.70036682    746.131025    0.00000    0.00000    0.00000    3
    5      0.849D-03      0.271D-03      -377.70064420    746.169409    0.00000    0.00000    0.00000    4
    6      0.353D-03      0.784D-04      -377.70069202    746.213802    0.00000    0.00000    0.00000    5
    7      0.135D-03      0.339D-04      -377.70070312    746.196237    0.00000    0.00000    0.00000    6
    8      0.747D-04      0.110D-04      -377.70070444    746.202069    0.00000    0.00000    0.00000    7
    9      0.286D-04      0.350D-05      -377.70070455    746.200577    0.00000    0.00000    0.00000    8
   10      0.852D-05      0.105D-05      -377.70070457    746.200776    0.00000    0.00000    0.00000    7
   11      0.285D-05      0.313D-06      -377.70070457    746.200725    0.00000    0.00000    0.00000    8
   12      0.869D-06      0.522D-07      -377.70070457    746.200727    0.00000    0.00000    0.00000    8
   13      0.137D-06      0.127D-07      -377.70070457    746.200726    0.00000    0.00000    0.00000    7
   14      0.309D-07      0.312D-08      -377.70070457    746.200727    0.00000    0.00000    0.00000    7
   15      0.782D-08      0.840D-09      -377.70070457    746.200726    0.00000    0.00000    0.00000    7
   16      0.151D-08      0.349D-09      -377.70070457    746.200726    0.00000    0.00000    0.00000    7
   17      0.617D-09      0.101D-09      -377.70070457    746.200726    0.00000    0.00000    0.00000    7
   18      0.162D-09      0.268D-10      -377.70070457    746.200726    0.00000    0.00000    0.00000    7
   19      0.479D-10      0.107D-10      -377.70070457    746.200726    0.00000    0.00000    0.00000    7
   20      0.182D-10      0.281D-11      -377.70070457    746.200726    0.00000    0.00000    0.00000    8
   21      0.536D-11      0.116D-11      -377.70070457    746.200726    0.00000    0.00000    0.00000    8
   22      0.217D-11      0.311D-12      -377.70070457    746.200726    0.00000    0.00000    0.00000    8
   23      0.687D-12      0.115D-12      -377.70070457    746.200726    0.00000    0.00000    0.00000    8
   24      0.312D-12      0.572D-13      -377.70070457    746.200726    0.00000    0.00000    0.00000    8
   25      0.191D-12      0.419D-13      -377.70070457    746.200726    0.00000    0.00000    0.00000    0

 Final occupancy:  12  12

 !RHF STATE 1.1 Energy               -377.700704566114
 Nuclear energy                       235.49314922
 One-electron energy                 -986.29421697
 Two-electron energy                  373.10036318
 Virial quotient                       -1.00170780
 !RHF STATE 1.1 Dipole moment           0.00000000     0.00000000     0.00000000
 Dipole moment /Debye                   0.00000000     0.00000000     0.00000000

 Orbital energies:

         1.1          2.1          3.1          4.1          5.1          6.1          7.1          8.1          9.1         10.1
    -20.613791   -20.573442   -11.406608    -1.482745    -1.370685    -0.916586    -0.731020    -0.692885    -0.633054    -0.618979

        11.1         12.1         13.1         14.1
     -0.504794    -0.495686     0.154198     0.163690

         1.2          2.2          3.2          4.2          5.2          6.2          7.2          8.2          9.2         10.2
    -20.613790   -20.573443   -11.406608    -1.469963    -1.384728    -0.880778    -0.766596    -0.722229    -0.643271    -0.578649

        11.2         12.2         13.2         14.2
     -0.493418    -0.472997     0.147024     0.164648


 **********************************************************************************************************************************
 DATASETS  * FILE   NREC   LENGTH (MB)   RECORD NAMES
              1      19     1482.41       500      610      700      900      950      970     1000      129      960     1100   
                                          VAR    BASINP    GEOM    SYMINP    ZMAT    AOBASIS   BASIS     P2S    ABASIS      S 
                                         1400     1410     1200     1210     1080     1600     1650     1300     1700   
                                           T        V       H0       H01     AOSYM     SMH    MOLCAS    ERIS     OPER   

              2       3        1.01       700     1000     2100   
                                         GEOM     BASIS     RHF  

 PROGRAMS   *        TOTAL       RHF       INT
 CPU TIMES  *        38.26     23.60     14.62
 REAL TIME  *        44.97 SEC
 DISK USED  *         5.57 GB      
 GA USED    *         0.00 MB       (max)       0.00 MB       (current)
 **********************************************************************************************************************************


1PROGRAM * CCSD (Closed-shell coupled cluster)     Authors: C. Hampel, H.-J. Werner, 1991, M. Deegan, P.J. Knowles, 1992


 Convergence thresholds:  THRVAR = 1.00D-08  THRDEN = 1.00D-12

 CCSD(T)     terms to be evaluated (factor= 1.000)


 Number of core orbitals:           6 (   3   3 )
 Number of closed-shell orbitals:  18 (   9   9 )
 Number of external orbitals:     212 ( 106 106 )

 Molecular orbitals read from record     2100.2  Type=RHF/CANONICAL (state 1.1)

 Number of N-1 electron functions:              18
 Number of N-2 electron functions:             171
 Number of singly external CSFs:              1908
 Number of doubly external CSFs:           3642372
 Total number of CSFs:                     3644281

 Length of J-op  integral file:               0.00 MB
 Length of K-op  integral file:               1.96 MB
 Length of 3-ext integral record:             0.00 MB

 Memory could be reduced to 106.93 Mwords without degradation in triples

 Integral transformation finished. Total CPU:  10.14 sec, npass=  1  Memory used:  52.09 MW

 Reference energy:                   -377.70070457

 MP2 singlet pair energy:              -0.77632730
 MP2 triplet pair energy:              -0.49234811
 MP2 correlation energy:               -1.26867541
 MP2 total energy:                   -378.96937998

 SCS-MP2 correlation energy:           -1.23794270   (PS=  1.200000  PT=  0.333333)
 SCS-MP2 total energy:               -378.93864726

 ITER.      SQ.NORM     CORR.ENERGY   TOTAL ENERGY   ENERGY CHANGE        DEN1      VAR(S)    VAR(P)  DIIS     TIME
   1      1.30964728    -1.27606451  -378.97676908    -0.00738910     0.02989781  0.10D-01  0.65D-02  1  1    20.09
   2      1.33277382    -1.27538512  -378.97608969     0.00067939    -0.02910882  0.23D-03  0.94D-03  2  2    30.59
   3      1.34397934    -1.27596338  -378.97666795    -0.00057826    -0.00515687  0.24D-03  0.46D-04  3  3    41.08
   4      1.34924950    -1.27571225  -378.97641682     0.00025113    -0.00196240  0.24D-04  0.88D-05  4  4    51.59
   5      1.35165219    -1.27566121  -378.97636577     0.00005104    -0.00054284  0.25D-05  0.83D-06  5  5    62.09
   6      1.35223642    -1.27561172  -378.97631628     0.00004949    -0.00005472  0.14D-06  0.80D-07  6  6    72.62
   7      1.35232805    -1.27560682  -378.97631139     0.00000490    -0.00000881  0.12D-07  0.12D-07  6  2    83.16
   8      1.35232407    -1.27560805  -378.97631261    -0.00000123     0.00000753  0.27D-08  0.13D-08  6  3    93.68
   9      1.35233334    -1.27560667  -378.97631124     0.00000138    -0.00000278  0.24D-09  0.13D-09  6  1   104.21
  10      1.35233271    -1.27560678  -378.97631135    -0.00000011     0.00000021  0.57D-10  0.25D-10  6  5   114.72
  11      1.35233289    -1.27560681  -378.97631138    -0.00000003     0.00000005  0.13D-10  0.43D-11  6  4   125.24
  12      1.35233262    -1.27560683  -378.97631140    -0.00000002     0.00000010  0.28D-11  0.72D-12  6  6   135.78
  13      1.35233242    -1.27560686  -378.97631143    -0.00000003     0.00000009  0.64D-12  0.16D-12  6  2   146.29
  14      1.35233234    -1.27560686  -378.97631143    -0.00000000     0.00000001  0.86D-13  0.41D-13  6  3   156.80
  15      1.35233230    -1.27560687  -378.97631143    -0.00000000     0.00000000  0.11D-13  0.47D-14  6  1   167.32
  16      1.35233229    -1.27560687  -378.97631143    -0.00000000     0.00000000  0.18D-14  0.89D-15  6  4   177.85
  17      1.35233229    -1.27560687  -378.97631143    -0.00000000    -0.00000000  0.30D-15  0.17D-15  6  5   188.34
  18      1.35233229    -1.27560687  -378.97631143    -0.00000000     0.00000000  0.43D-16  0.21D-16  6  6   198.86
  19      1.35233229    -1.27560687  -378.97631143    -0.00000000    -0.00000000  0.80D-17  0.44D-17  6  2   209.37
  20      1.35233229    -1.27560687  -378.97631143     0.00000000    -0.00000000  0.11D-17  0.62D-18  6  3   219.86
  21      1.35233229    -1.27560687  -378.97631143    -0.00000000     0.00000000  0.19D-18  0.90D-19  6  1   230.36
  22      1.35233229    -1.27560687  -378.97631143     0.00000000    -0.00000000  0.33D-19  0.14D-19  6  4   240.87
  23      1.35233229    -1.27560687  -378.97631143     0.00000000     0.00000000  0.68D-20  0.27D-20  6  2   251.36
  24      1.35233229    -1.27560687  -378.97631143     0.00000000    -0.00000000  0.20D-20  0.43D-21  6  5   261.86

 Norm of t1 vector:      0.14433780      S-energy:     0.00000000      T1 diagnostic:  0.01701037
                                                                       D1 diagnostic:  0.06089448

 Singles amplitudes (print threshold =  0.500E-01):

         I         SYM. A    A   T(IA)

         6         1         1      0.05559433
        15         2         1      0.05361688


 Total CPU time for triples:    352.42 sec


 RESULTS
 =======

  Reference energy                   -377.700704566112
  CCSD singlet pair energy             -0.840722537485
  CCSD triplet pair energy             -0.434884329508
  CCSD correlation energy              -1.275606866993

  Triples (T) contribution             -0.054470516093
  Total correlation energy             -1.330077383086

  CCSD total energy                  -378.976311433105
  CCSD[T] energy                     -379.034197963752
  CCSD-T energy                      -379.029408394973
 !CCSD(T) total energy               -379.030781949198

 Timing summary (sec):

 STEP                 CPU(USER)    SYS     CPU(TOT)    WALL
 Transformation         10.25      0.58     10.83     10.84
 CCSD iterations       251.62      7.59    259.21    260.53
 Triples               352.42      6.59    359.01    359.07

 Program statistics:

 Available memory in ccsd:               999998604
 Min. memory needed in ccsd:               8941308
 Max. memory used in ccsd:                12316668
 Max. memory used in cckext:              11504117 (24 integral passes)



 **********************************************************************************************************************************
 DATASETS  * FILE   NREC   LENGTH (MB)   RECORD NAMES
              1      20     1886.75       500      610      700      900      950      970     1000      129      960     1100   
                                          VAR    BASINP    GEOM    SYMINP    ZMAT    AOBASIS   BASIS     P2S    ABASIS      S 
                                         1400     1410     1200     1210     1080     1600     1650     1300     1700     1380   
                                           T        V       H0       H01     AOSYM     SMH    MOLCAS    ERIS     OPER     JKOP   

              2       3        1.01       700     1000     2100   
                                         GEOM     BASIS     RHF  

 PROGRAMS   *        TOTAL   CCSD(T)       RHF       INT
 CPU TIMES  *       652.56    614.28     23.60     14.62
 REAL TIME  *       675.97 SEC
 DISK USED  *         5.57 GB      
 GA USED    *         0.00 MB       (max)       0.00 MB       (current)
 **********************************************************************************************************************************

        CCSD(T)         RHF-SCF 
   -379.03078195   -377.70070457
 **********************************************************************************************************************************
 Variable memory released
