
 Primary working directories    : /tmp/944438.779.gen4.q
 Secondary working directories  : /tmp/944438.779.gen4.q
 Wavefunction directory         : /home/vulcan/mel64643/wfu/
 Main file repository           : /tmp/944438.779.gen4.q/

 ARCHNAME  : Linux/x86_64
 FC        : /opt/intel/compilers_and_libraries_2016.1.150/linux/bin/intel64/ifort
 FCVERSION : 16.0.1
 BLASLIB   : -mkl
 id        : ccgc

 Nodes     nprocs
 n062         1
 ga_uses_ma=false, calling ma_init with nominal heap.
 GA-space will be limited to   8.0 MW (determined by -G option)

 Using customized tuning parameters: mindgm=10; mindgv=16; mindgc=4; mindgr=1; noblas=0; mincuda=1000; minvec=7
 default implementation of scratch files=df  

 ***,Optimization of min3
 memory,1000,m
 gthresh,energy=1.0d-12,orbital=1.0d-10,oneint=1.0d-16,twoint=1.0d-16,optgrad=1.0d-6,compress=1.0d-13
 geomtyp=xyz
 
 
 
  bohr
  geometry = {
  C   -0.2849550972    2.4019433113   -2.1309026220
  C    0.7656489989   -0.0005203962   -0.8923453699
  C    0.1937389094    0.0007545802    1.8357473040
  N   -0.2939687462    0.0018118052    3.9792159330
  H    2.8249824446   -0.0035268790   -1.0640794348
  C   -0.2919003532   -2.4003417341   -2.1301142551
  H   -2.3476993341   -2.4564076307   -1.9668787604
  H    0.4772280847   -4.0999759986   -1.2551615547
  H    0.2059105569   -2.4022295734   -4.1317642045
  H   -2.3401240341    2.4433536546   -1.9557898433
  H    0.2012691873    2.4087568105   -4.1353879193
  H    0.4771534129    4.1063820502   -1.2591591854
 }
 
 basis=cc-pvdz
 {rhf;maxit,200}
 {ccsd(t);maxit,200}

 Variables initialized (661), CPU time= 0.01 sec
 Commands  initialized (458), CPU time= 0.00 sec, 486 directives.
 Default parameters read. Elapsed time= 0.05 sec

 Checking input...
 Passed
1


                                         ***  PROGRAM SYSTEM MOLPRO  ***
                         Copyright, University College Cardiff Consultants Limited, 2008

                                    Version 2010.1 linked May 16 2016 07:17:05


 **********************************************************************************************************************************
 LABEL *   Optimization of min3                                                          
 Linux-4.4.3/n062(x86_64) 64 bit mpp version                                             DATE: 27-Oct-23          TIME: 11:41:48  
 **********************************************************************************************************************************

 SHA1:             9e8077add272b0f3cad6f7df79ec5211205f459d
 **********************************************************************************************************************************

 THRESHOLDS:

 ZERO    =  1.00D-12  ONEINT  =  1.00D-16  TWOINT  =  1.00D-16  PREFAC  =  1.00D-14  LOCALI  =  1.00D-09  EORDER  =  1.00D-04
 ENERGY  =  1.00D-12  ETEST   =  0.00D+00  EDENS   =  0.00D+00  THRDEDEF=  1.00D-06  GRADIENT=  1.00D-02  STEP    =  1.00D-03
 ORBITAL =  1.00D-10  CIVEC   =  1.00D-05  COEFF   =  1.00D-04  PRINTCI =  5.00D-02  PUNCHCI =  9.90D+01  OPTGRAD =  1.00D-06
 OPTENERG=  1.00D-06  OPTSTEP =  3.00D-04  THRGRAD =  1.00D-10  COMPRESS=  1.00D-13  VARMIN  =  1.00D-07  VARMAX  =  1.00D-03
 THRDOUB =  0.00D+00  THRDIV  =  1.00D-05  THRRED  =  1.00D-07  THRPSP  =  1.00D+00  THRDC   =  1.00D-10  THRCS   =  1.00D-10
 THRNRM  =  1.00D-08  THREQ   =  0.00D+00  THRDE   =  1.00D+00  THRREF  =  1.00D-05  SPARFAC =  1.00D+00  THRDLP  =  1.00D-07
 THRDIA  =  1.00D-10  THRDLS  =  1.00D-07  THRGPS  =  0.00D+00  THRKEX  =  0.00D+00  THRDIS  =  2.00D-01  THRVAR  =  1.00D-10
 THRLOC  =  1.00D-06  THRGAP  =  1.00D-06  THRLOCT = -1.00D+00  THRGAPT = -1.00D+00  THRORB  =  1.00D-06  THRMLTP =  0.00D+00
 THRCPQCI=  1.00D-10  KEXTA   =  0.00D+00  THRCOARS=  0.00D+00  SYMTOL  =  1.00D-06  GRADTOL =  1.00D-06  THROVL  =  1.00D-08
 THRORTH =  1.00D-08  GRID    =  1.00D-06  GRIDMAX =  1.00D-03  DTMAX   =  0.00D+00

 SETTING GEOMTYP        =    XYZ
 ZUNIT=BOHR
 

 Variable memory set to 1000000000 words,  buffer space   230000 words

 SETTING BASIS          =    CC-PVDZ


 Recomputing integrals since basis changed


 Using spherical harmonics

 Library entry C      S cc-pVDZ              selected for orbital group  1
 Library entry C      P cc-pVDZ              selected for orbital group  1
 Library entry C      D cc-pVDZ              selected for orbital group  1
 Library entry N      S cc-pVDZ              selected for orbital group  2
 Library entry N      P cc-pVDZ              selected for orbital group  2
 Library entry N      D cc-pVDZ              selected for orbital group  2
 Library entry H      S cc-pVDZ              selected for orbital group  3
 Library entry H      P cc-pVDZ              selected for orbital group  3

1PROGRAM * SEWARD (Integral evaluation for generally contracted gaussian basis sets)     Author: Roland Lindh, 1990

 Geometry written to block  1 of record 700


 Point group  C1  



 ATOMIC COORDINATES

 NR  ATOM    CHARGE       X              Y              Z

   1  C       6.00   -0.284955097    2.401943311   -2.130902622
   2  C       6.00    0.765648999   -0.000520396   -0.892345370
   3  C       6.00    0.193738909    0.000754580    1.835747304
   4  N       7.00   -0.293968746    0.001811805    3.979215933
   5  H       1.00    2.824982445   -0.003526879   -1.064079435
   6  C       6.00   -0.291900353   -2.400341734   -2.130114255
   7  H       1.00   -2.347699334   -2.456407631   -1.966878760
   8  H       1.00    0.477228085   -4.099975999   -1.255161555
   9  H       1.00    0.205910557   -2.402229573   -4.131764204
  10  H       1.00   -2.340124034    2.443353655   -1.955789843
  11  H       1.00    0.201269187    2.408756810   -4.135387919
  12  H       1.00    0.477153413    4.106382050   -1.259159185

 Bond lengths in Bohr (Angstrom)

  1- 2  2.899935327   1-10  2.063031425   1-11  2.062624975   1-12  2.060547843   2- 3  2.787395274
       ( 1.534579682)       ( 1.091709212)       ( 1.091494127)       ( 1.090394957)       ( 1.475026051)

 2-5  2.066483939  2-6  2.899935327  3-4  2.198253315  6-7  2.063031425  6-8  2.060547843
     ( 1.093536203)     ( 1.534579682)     ( 1.163265554)     ( 1.091709212)     ( 1.090394957)

 6-9  2.062624975
     ( 1.091494127)

 Bond angles

  1- 2- 3  110.07805271   1- 2- 5  109.07122528   1- 2- 6  111.78757135   2- 1-10  109.95495037

  2- 1-11  109.41416664   2- 1-12  111.75231518   2- 3- 4  179.02148592   2- 6- 7  110.61699541

  2-6-8  111.42196930   2-6-9  109.08382123   3-2-5  106.60693501   3-2-6  110.07805272

  5-2-6  109.07122528   7-6-8  108.41764927   7-6-9  108.49744119   8-6-9  108.73715860

 10- 1-11  108.49699039  10- 1-12  108.41719929  11- 1-12  108.73670564

 NUCLEAR CHARGE:                   38
 NUMBER OF PRIMITIVE AOS:         184
 NUMBER OF SYMMETRY AOS:          179
 NUMBER OF CONTRACTIONS:          105   ( 105A   )
 NUMBER OF CORE ORBITALS:           5   (   5A   )
 NUMBER OF VALENCE ORBITALS:       27   (  27A   )


 NUCLEAR REPULSION ENERGY  158.94433907


 Eigenvalues of metric

         1 0.197E-02 0.464E-02 0.572E-02 0.601E-02 0.167E-01 0.195E-01 0.209E-01 0.266E-01


 Contracted 2-electron integrals neglected if value below      1.0D-16
 AO integral compression algorithm  1   Integral accuracy      1.0D-16

     130.023 MB (compressed) written to integral file ( 95.0%)

     Node minimum: 130.023 MB, node maximum: 130.023 MB


 NUMBER OF SORTED TWO-ELECTRON INTEGRALS:   15487395.     BUFFER LENGTH:  32768
 NUMBER OF SEGMENTS:   1  SEGMENT LENGTH:   15487395      RECORD LENGTH: 524288

 Memory used in sort:      16.04 MW

 SORT1 READ    17101285. AND WROTE    15442464. INTEGRALS IN     45 RECORDS. CPU TIME:     0.15 SEC, REAL TIME:     0.24 SEC
 SORT2 READ    15442464. AND WROTE    15487395. INTEGRALS IN    496 RECORDS. CPU TIME:     0.14 SEC, REAL TIME:     0.22 SEC

 FILE SIZES:   FILE 1:   120.8 MBYTE,  FILE 4:   188.8 MBYTE,   TOTAL:    309.6 MBYTE

 OPERATOR DM      FOR CENTER  0  COORDINATES:    0.000000    0.000000    0.000000


 **********************************************************************************************************************************
 DATASETS  * FILE   NREC   LENGTH (MB)   RECORD NAMES
              1      19      120.91       500      610      700      900      950      970     1000      129      960     1100   
                                          VAR    BASINP    GEOM    SYMINP    ZMAT    AOBASIS   BASIS     P2S    ABASIS      S 
                                         1400     1410     1200     1210     1080     1600     1650     1300     1700   
                                           T        V       H0       H01     AOSYM     SMH    MOLCAS    ERIS     OPER   

 PROGRAMS   *        TOTAL       INT
 CPU TIMES  *         1.87      1.83
 REAL TIME  *         2.27 SEC
 DISK USED  *       440.43 MB      
 GA USED    *         0.00 MB       (max)       0.00 MB       (current)
 **********************************************************************************************************************************

1PROGRAM * RHF-SCF (CLOSED SHELL)       Authors: W. Meyer, H.-J. Werner


 NUMBER OF ELECTRONS:      19+   19-    SPACE SYMMETRY=1    SPIN SYMMETRY: Singlet 
 CONVERGENCE THRESHOLDS:    1.00E-10 (Density)    1.00E-13 (Energy)
 MAX. NUMBER OF ITERATIONS:      200
 INTERPOLATION TYPE:            DIIS
 INTERPOLATION STEPS:              2 (START)      1 (STEP)
 LEVEL SHIFTS:                  0.00 (CLOSED)  0.00 (OPEN) 



 Orbital guess generated from atomic densities. Full valence occupancy:   32

 Molecular orbital dump at record        2100.2

 ITERATION    DDIFF          GRAD             ENERGY        2-EL.EN.            DIPOLE MOMENTS         DIIS
    1      0.000D+00      0.000D+00      -209.94374969    457.114270    0.48477   -0.00235   -2.25634    0
    2      0.000D+00      0.590D-02      -209.98971624    456.668428    0.15028   -0.00075   -1.29484    1
    3      0.124D-01      0.414D-02      -210.01005226    456.352674    0.30613   -0.00116   -1.70381    2
    4      0.554D-02      0.106D-02      -210.01230035    456.680007    0.29285   -0.00106   -1.61563    3
    5      0.196D-02      0.235D-03      -210.01241826    456.520381    0.28651   -0.00102   -1.62667    4
    6      0.425D-03      0.579D-04      -210.01242764    456.539466    0.28674   -0.00102   -1.62476    5
    7      0.169D-03      0.160D-04      -210.01242820    456.537448    0.28709   -0.00102   -1.62607    6
    8      0.307D-04      0.502D-05      -210.01242825    456.537121    0.28696   -0.00102   -1.62619    7
    9      0.110D-04      0.108D-05      -210.01242825    456.537056    0.28699   -0.00102   -1.62618    7
   10      0.264D-05      0.386D-06      -210.01242825    456.537153    0.28699   -0.00102   -1.62621    7
   11      0.973D-06      0.205D-06      -210.01242826    456.537120    0.28698   -0.00102   -1.62620    7
   12      0.699D-06      0.933D-07      -210.01242826    456.537137    0.28698   -0.00102   -1.62620    7
   13      0.439D-06      0.238D-07      -210.01242826    456.537131    0.28698   -0.00102   -1.62620    8
   14      0.113D-06      0.455D-08      -210.01242826    456.537130    0.28698   -0.00102   -1.62620    8
   15      0.143D-07      0.175D-08      -210.01242826    456.537130    0.28698   -0.00102   -1.62620    8
   16      0.341D-08      0.527D-09      -210.01242826    456.537130    0.28698   -0.00102   -1.62620    8
   17      0.112D-08      0.103D-09      -210.01242826    456.537130    0.28698   -0.00102   -1.62620    8
   18      0.231D-09      0.239D-10      -210.01242826    456.537130    0.28698   -0.00102   -1.62620    7
   19      0.569D-10      0.779D-11      -210.01242826    456.537130    0.28698   -0.00102   -1.62620    7
   20      0.182D-10      0.271D-11      -210.01242826    456.537130    0.28698   -0.00102   -1.62620    7
   21      0.702D-11      0.112D-11      -210.01242826    456.537130    0.28698   -0.00102   -1.62620    7
   22      0.286D-11      0.494D-12      -210.01242826    456.537130    0.28698   -0.00102   -1.62620    0

 Final occupancy:  19

 !RHF STATE 1.1 Energy               -210.012428255428
 Nuclear energy                       158.94433907
 One-electron energy                 -597.22533247
 Two-electron energy                  228.26856515
 Virial quotient                       -1.00163708
 !RHF STATE 1.1 Dipole moment           0.28698194    -0.00101829    -1.62620310
 Dipole moment /Debye                   0.72938755    -0.00258806    -4.13312528

 Orbital energies:

         1.1          2.1          3.1          4.1          5.1          6.1          7.1          8.1          9.1         10.1
    -15.572484   -11.290198   -11.274662   -11.250254   -11.250186    -1.212545    -1.107811    -0.960684    -0.876441    -0.704234

        11.1         12.1         13.1         14.1         15.1         16.1         17.1         18.1         19.1         20.1
     -0.642880    -0.596389    -0.572379    -0.563762    -0.530156    -0.523556    -0.520984    -0.447274    -0.447220     0.155188

        21.1
      0.190462


 **********************************************************************************************************************************
 DATASETS  * FILE   NREC   LENGTH (MB)   RECORD NAMES
              1      19      120.91       500      610      700      900      950      970     1000      129      960     1100   
                                          VAR    BASINP    GEOM    SYMINP    ZMAT    AOBASIS   BASIS     P2S    ABASIS      S 
                                         1400     1410     1200     1210     1080     1600     1650     1300     1700   
                                           T        V       H0       H01     AOSYM     SMH    MOLCAS    ERIS     OPER   

              2       3        0.68       700     1000     2100   
                                         GEOM     BASIS     RHF  

 PROGRAMS   *        TOTAL       RHF       INT
 CPU TIMES  *         4.41      2.54      1.83
 REAL TIME  *         5.11 SEC
 DISK USED  *       440.43 MB      
 GA USED    *         0.00 MB       (max)       0.00 MB       (current)
 **********************************************************************************************************************************


1PROGRAM * CCSD (Closed-shell coupled cluster)     Authors: C. Hampel, H.-J. Werner, 1991, M. Deegan, P.J. Knowles, 1992


 Convergence thresholds:  THRVAR = 1.00D-08  THRDEN = 1.00D-12

 CCSD(T)     terms to be evaluated (factor= 1.000)


 Number of core orbitals:           5 (   5 )
 Number of closed-shell orbitals:  14 (  14 )
 Number of external orbitals:      86 (  86 )

 Molecular orbitals read from record     2100.2  Type=RHF/CANONICAL (state 1.1)

 Number of N-1 electron functions:              14
 Number of N-2 electron functions:             105
 Number of singly external CSFs:              1204
 Number of doubly external CSFs:            725410
 Total number of CSFs:                      726615

 Length of J-op  integral file:               0.00 MB
 Length of K-op  integral file:               0.79 MB
 Length of 3-ext integral record:             0.00 MB

 Memory could be reduced to 12.72 Mwords without degradation in triples

 Integral transformation finished. Total CPU:   0.73 sec, npass=  1  Memory used:  10.92 MW

 Reference energy:                   -210.01242826

 MP2 singlet pair energy:              -0.45162950
 MP2 triplet pair energy:              -0.25976311
 MP2 correlation energy:               -0.71139262
 MP2 total energy:                   -210.72382087

 SCS-MP2 correlation energy:           -0.70358579   (PS=  1.200000  PT=  0.333333)
 SCS-MP2 total energy:               -210.71601404

 ITER.      SQ.NORM     CORR.ENERGY   TOTAL ENERGY   ENERGY CHANGE        DEN1      VAR(S)    VAR(P)  DIIS     TIME
   1      1.27015747    -0.75346690  -210.76589516    -0.04207429    -0.01887854  0.35D-02  0.56D-02  1  1     2.58
   2      1.29281680    -0.75712437  -210.76955263    -0.00365747    -0.02204404  0.58D-04  0.76D-03  2  2     4.47
   3      1.30019925    -0.75750102  -210.76992928    -0.00037665    -0.00407708  0.27D-04  0.55D-04  3  3     6.37
   4      1.30276415    -0.75759770  -210.77002595    -0.00009667    -0.00100779  0.13D-05  0.65D-05  4  4     8.26
   5      1.30333140    -0.75760627  -210.77003452    -0.00000857    -0.00016818  0.16D-06  0.78D-06  5  5    10.17
   6      1.30345389    -0.75760070  -210.77002896     0.00000556    -0.00003119  0.97D-08  0.53D-07  6  6    12.06
   7      1.30347199    -0.75760310  -210.77003135    -0.00000240    -0.00000402  0.15D-08  0.48D-08  6  2    13.96
   8      1.30347343    -0.75760302  -210.77003128     0.00000008    -0.00000004  0.14D-09  0.42D-09  6  1    15.86
   9      1.30347378    -0.75760301  -210.77003126     0.00000002     0.00000023  0.16D-10  0.36D-10  6  3    17.76
  10      1.30347404    -0.75760302  -210.77003128    -0.00000001    -0.00000006  0.17D-11  0.33D-11  6  4    19.66
  11      1.30347367    -0.75760304  -210.77003130    -0.00000002     0.00000022  0.35D-12  0.34D-12  6  6    21.55
  12      1.30347360    -0.75760305  -210.77003131    -0.00000001     0.00000004  0.44D-13  0.27D-13  6  5    23.46
  13      1.30347356    -0.75760305  -210.77003131    -0.00000000     0.00000002  0.52D-14  0.45D-14  6  2    25.36
  14      1.30347356    -0.75760305  -210.77003131     0.00000000     0.00000000  0.15D-14  0.65D-15  6  1    27.26
  15      1.30347355    -0.75760305  -210.77003131     0.00000000    -0.00000000  0.10D-15  0.10D-15  6  4    29.17
  16      1.30347356    -0.75760305  -210.77003131     0.00000000    -0.00000000  0.15D-16  0.71D-17  6  3    31.08
  17      1.30347356    -0.75760305  -210.77003131     0.00000000    -0.00000000  0.33D-17  0.15D-17  6  6    32.98
  18      1.30347356    -0.75760305  -210.77003131    -0.00000000    -0.00000000  0.53D-18  0.25D-18  6  5    34.89
  19      1.30347356    -0.75760305  -210.77003131     0.00000000     0.00000000  0.59D-19  0.41D-19  6  2    36.79
  20      1.30347356    -0.75760305  -210.77003131     0.00000000    -0.00000000  0.63D-20  0.39D-20  6  4    38.70

 Norm of t1 vector:      0.07771448      S-energy:    -0.00000000      T1 diagnostic:  0.01038503
                                                                       D1 diagnostic:  0.02937136


 Total CPU time for triples:     24.62 sec


 RESULTS
 =======

  Reference energy                   -210.012428255429
  CCSD singlet pair energy             -0.527317386146
  CCSD triplet pair energy             -0.230285666621
  CCSD correlation energy              -0.757603052768

  Triples (T) contribution             -0.026791607929
  Total correlation energy             -0.784394660697

  CCSD total energy                  -210.770031308197
  CCSD[T] energy                     -210.797832298216
  CCSD-T energy                      -210.796353102753
 !CCSD(T) total energy               -210.796822916126

 Timing summary (sec):

 STEP                 CPU(USER)    SYS     CPU(TOT)    WALL
 Transformation          0.77      0.09      0.86      0.86
 CCSD iterations        37.93      1.01     38.94     39.02
 Triples                24.62      0.50     25.12     25.13

 Program statistics:

 Available memory in ccsd:               999999116
 Min. memory needed in ccsd:               1995783
 Max. memory used in ccsd:                 2628247
 Max. memory used in cckext:               2458865 (20 integral passes)



 **********************************************************************************************************************************
 DATASETS  * FILE   NREC   LENGTH (MB)   RECORD NAMES
              1      20      171.06       500      610      700      900      950      970     1000      129      960     1100   
                                          VAR    BASINP    GEOM    SYMINP    ZMAT    AOBASIS   BASIS     P2S    ABASIS      S 
                                         1400     1410     1200     1210     1080     1600     1650     1300     1700     1380   
                                           T        V       H0       H01     AOSYM     SMH    MOLCAS    ERIS     OPER     JKOP   

              2       3        0.68       700     1000     2100   
                                         GEOM     BASIS     RHF  

 PROGRAMS   *        TOTAL   CCSD(T)       RHF       INT
 CPU TIMES  *        67.73     63.32      2.54      1.83
 REAL TIME  *        70.15 SEC
 DISK USED  *       440.43 MB      
 GA USED    *         0.00 MB       (max)       0.00 MB       (current)
 **********************************************************************************************************************************

        CCSD(T)         RHF-SCF 
   -210.79682292   -210.01242826
 **********************************************************************************************************************************
 Variable memory released
