
 Primary working directories    : /tmp/1065196.341.gen4.q
 Secondary working directories  : /tmp/1065196.341.gen4.q
 Wavefunction directory         : /home/vulcan/jj04645/wfu/
 Main file repository           : /tmp/1065196.341.gen4.q/

 ARCHNAME  : Linux/x86_64
 FC        : /opt/intel/compilers_and_libraries_2016.1.150/linux/bin/intel64/ifort
 FCVERSION : 16.0.1
 BLASLIB   : -mkl
 id        : ccgc

 Nodes     nprocs
 n062         1
 ga_uses_ma=false, calling ma_init with nominal heap.
 GA-space will be limited to   8.0 MW (determined by -G option)

 Using customized tuning parameters: mindgm=10; mindgv=16; mindgc=4; mindgr=1; noblas=0; mincuda=1000; minvec=7
 default implementation of scratch files=df  

 ***,Optimization of t-butanol
 memory,1000,m
 gthresh,energy=1.0d-12,orbital=1.0d-10,oneint=1.0d-16,twoint=1.0d-16,optgrad=1.0d-6,compress=1.0d-13
 geomtyp=xyz
 
 bohr
 geometry = {
  C    0.0061391727   -0.0580684219   -0.0001144969
  O   -0.0221761731    2.6546862245   -0.0007417352
  C   -2.7662256217   -0.8340599292   -0.0000958637
  C    1.3382612301   -1.0175645353   -2.3771723415
  C    1.3379862721   -1.0164680292    2.3775396959
  H    1.7006858680    3.2068067293   -0.0007694317
  H   -2.9435026189   -2.8901992371   -0.0044322709
  H   -3.7127002945   -0.0724418150   -1.6670487771
  H   -3.7106577228   -0.0796586275    1.6712913322
  H    1.3155852939   -3.0810334007   -2.4586395496
  H    3.3121258273   -0.4004165558   -2.3996688679
  H    0.4037058353   -0.2746823106   -4.0592110350
  H    1.3153008588   -3.0798991006    2.4599560044
  H    3.3118482707   -0.3993096867    2.3999798645
  H    0.4032363637   -0.2728101030    4.0591274724
 }
 
 basis=VDZ
 {rhf;maxit,200}
 {ccsd(t);maxit,200}

 Variables initialized (661), CPU time= 0.00 sec
 Commands  initialized (458), CPU time= 0.00 sec, 486 directives.
 Default parameters read. Elapsed time= 0.05 sec

 Checking input...
 Passed
1


                                         ***  PROGRAM SYSTEM MOLPRO  ***
                         Copyright, University College Cardiff Consultants Limited, 2008

                                    Version 2010.1 linked May 16 2016 07:17:05


 **********************************************************************************************************************************
 LABEL *   Optimization of t-butanol                                                     
 Linux-4.4.3/n062(x86_64) 64 bit mpp version                                             DATE: 20-May-24          TIME: 11:33:05  
 **********************************************************************************************************************************

 SHA1:             9e8077add272b0f3cad6f7df79ec5211205f459d
 **********************************************************************************************************************************

 THRESHOLDS:

 ZERO    =  1.00D-12  ONEINT  =  1.00D-16  TWOINT  =  1.00D-16  PREFAC  =  1.00D-14  LOCALI  =  1.00D-09  EORDER  =  1.00D-04
 ENERGY  =  1.00D-12  ETEST   =  0.00D+00  EDENS   =  0.00D+00  THRDEDEF=  1.00D-06  GRADIENT=  1.00D-02  STEP    =  1.00D-03
 ORBITAL =  1.00D-10  CIVEC   =  1.00D-05  COEFF   =  1.00D-04  PRINTCI =  5.00D-02  PUNCHCI =  9.90D+01  OPTGRAD =  1.00D-06
 OPTENERG=  1.00D-06  OPTSTEP =  3.00D-04  THRGRAD =  1.00D-10  COMPRESS=  1.00D-13  VARMIN  =  1.00D-07  VARMAX  =  1.00D-03
 THRDOUB =  0.00D+00  THRDIV  =  1.00D-05  THRRED  =  1.00D-07  THRPSP  =  1.00D+00  THRDC   =  1.00D-10  THRCS   =  1.00D-10
 THRNRM  =  1.00D-08  THREQ   =  0.00D+00  THRDE   =  1.00D+00  THRREF  =  1.00D-05  SPARFAC =  1.00D+00  THRDLP  =  1.00D-07
 THRDIA  =  1.00D-10  THRDLS  =  1.00D-07  THRGPS  =  0.00D+00  THRKEX  =  0.00D+00  THRDIS  =  2.00D-01  THRVAR  =  1.00D-10
 THRLOC  =  1.00D-06  THRGAP  =  1.00D-06  THRLOCT = -1.00D+00  THRGAPT = -1.00D+00  THRORB  =  1.00D-06  THRMLTP =  0.00D+00
 THRCPQCI=  1.00D-10  KEXTA   =  0.00D+00  THRCOARS=  0.00D+00  SYMTOL  =  1.00D-06  GRADTOL =  1.00D-06  THROVL  =  1.00D-08
 THRORTH =  1.00D-08  GRID    =  1.00D-06  GRIDMAX =  1.00D-03  DTMAX   =  0.00D+00

 SETTING GEOMTYP        =    XYZ
 ZUNIT=BOHR
 

 Variable memory set to 1000000000 words,  buffer space   230000 words

 SETTING BASIS          =    VDZ


 Recomputing integrals since basis changed


 Using spherical harmonics

 Library entry C      S cc-pVDZ              selected for orbital group  1
 Library entry C      P cc-pVDZ              selected for orbital group  1
 Library entry C      D cc-pVDZ              selected for orbital group  1
 Library entry O      S cc-pVDZ              selected for orbital group  2
 Library entry O      P cc-pVDZ              selected for orbital group  2
 Library entry O      D cc-pVDZ              selected for orbital group  2
 Library entry H      S cc-pVDZ              selected for orbital group  4
 Library entry H      P cc-pVDZ              selected for orbital group  4

1PROGRAM * SEWARD (Integral evaluation for generally contracted gaussian basis sets)     Author: Roland Lindh, 1990

 Geometry written to block  1 of record 700


 Point group  C1  



 ATOMIC COORDINATES

 NR  ATOM    CHARGE       X              Y              Z

   1  C       6.00    0.006139173   -0.058068422   -0.000114497
   2  O       8.00   -0.022176173    2.654686224   -0.000741735
   3  C       6.00   -2.766225622   -0.834059929   -0.000095864
   4  C       6.00    1.338261230   -1.017564535   -2.377172342
   5  C       6.00    1.337986272   -1.016468029    2.377539696
   6  H       1.00    1.700685868    3.206806729   -0.000769432
   7  H       1.00   -2.943502619   -2.890199237   -0.004432271
   8  H       1.00   -3.712700294   -0.072441815   -1.667048777
   9  H       1.00   -3.710657723   -0.079658627    1.671291332
  10  H       1.00    1.315585294   -3.081033401   -2.458639550
  11  H       1.00    3.312125827   -0.400416556   -2.399668868
  12  H       1.00    0.403705835   -0.274682311   -4.059211035
  13  H       1.00    1.315300859   -3.079899101    2.459956004
  14  H       1.00    3.311848271   -0.399309687    2.399979865
  15  H       1.00    0.403236364   -0.272810103    4.059127472

 Bond lengths in Bohr (Angstrom)

 1-2  2.712902491  1-3  2.878918091  1-4  2.888872784  1-5  2.888872784  2-6  1.809168501
     ( 1.435606168)     ( 1.523457840)     ( 1.528725637)     ( 1.528725637)     ( 0.957370738)

  3- 7  2.063771982   3- 8  2.062670229   3- 9  2.062670230   4-10  2.065200925   4-11  2.068216423
       ( 1.092101097)       ( 1.091518075)       ( 1.091518075)       ( 1.092857262)       ( 1.094452994)

  4-12  2.062649256   5-13  2.065200925   5-14  2.068216423   5-15  2.062649256
       ( 1.091506976)       ( 1.092857262)       ( 1.094452994)       ( 1.091506976)

 Bond angles

  1-2-6  107.17091859   1-3-7  110.56477448   1-3-8  110.01980520   1-3-9  110.01980145

  1- 4-10  111.05427787   1- 4-11  110.48289357   1- 4-12  110.02622484   1- 5-13  111.05427787

  1- 5-14  110.48289357   1- 5-15  110.02622484   2- 1- 3  105.03903603   2- 1- 4  109.67835923

  2-1-5  109.67835923   3-1-4  110.76498583   3-1-5  110.76498583   4-1-5  110.75948302

  7- 3- 8  109.07220579   7- 3- 9  109.07220195   8- 3- 9  108.04150258  10- 4-11  107.95054620

 10- 4-12  108.82712327  11- 4-12  108.42572227  13- 5-14  107.95054620  13- 5-15  108.82712326

 14- 5-15  108.42572227

 NUCLEAR CHARGE:                   42
 NUMBER OF PRIMITIVE AOS:         205
 NUMBER OF SYMMETRY AOS:          200
 NUMBER OF CONTRACTIONS:          120   ( 120A   )
 NUMBER OF CORE ORBITALS:           5   (   5A   )
 NUMBER OF VALENCE ORBITALS:       30   (  30A   )


 NUCLEAR REPULSION ENERGY  199.68286458


 Eigenvalues of metric

         1 0.260E-02 0.488E-02 0.490E-02 0.834E-02 0.169E-01 0.191E-01 0.192E-01 0.240E-01


 Contracted 2-electron integrals neglected if value below      1.0D-16
 AO integral compression algorithm  1   Integral accuracy      1.0D-16

     221.250 MB (compressed) written to integral file ( 96.7%)

     Node minimum: 221.250 MB, node maximum: 221.250 MB


 NUMBER OF SORTED TWO-ELECTRON INTEGRALS:   26357430.     BUFFER LENGTH:  32768
 NUMBER OF SEGMENTS:   2  SEGMENT LENGTH:   15997996      RECORD LENGTH: 524288

 Memory used in sort:      16.56 MW

 SORT1 READ    28587749. AND WROTE    26318119. INTEGRALS IN     76 RECORDS. CPU TIME:     0.27 SEC, REAL TIME:     0.43 SEC
 SORT2 READ    26318119. AND WROTE    26357430. INTEGRALS IN    844 RECORDS. CPU TIME:     0.22 SEC, REAL TIME:     0.34 SEC

 FILE SIZES:   FILE 1:   206.5 MBYTE,  FILE 4:   318.8 MBYTE,   TOTAL:    525.3 MBYTE

 OPERATOR DM      FOR CENTER  0  COORDINATES:    0.000000    0.000000    0.000000


 **********************************************************************************************************************************
 DATASETS  * FILE   NREC   LENGTH (MB)   RECORD NAMES
              1      19      206.64       500      610      700      900      950      970     1000      129      960     1100   
                                          VAR    BASINP    GEOM    SYMINP    ZMAT    AOBASIS   BASIS     P2S    ABASIS      S 
                                         1400     1410     1200     1210     1080     1600     1650     1300     1700   
                                           T        V       H0       H01     AOSYM     SMH    MOLCAS    ERIS     OPER   

 PROGRAMS   *        TOTAL       INT
 CPU TIMES  *         3.09      3.05
 REAL TIME  *         3.64 SEC
 DISK USED  *       747.48 MB      
 GA USED    *         0.01 MB       (max)       0.00 MB       (current)
 **********************************************************************************************************************************

1PROGRAM * RHF-SCF (CLOSED SHELL)       Authors: W. Meyer, H.-J. Werner


 NUMBER OF ELECTRONS:      21+   21-    SPACE SYMMETRY=1    SPIN SYMMETRY: Singlet 
 CONVERGENCE THRESHOLDS:    1.00E-10 (Density)    1.00E-13 (Energy)
 MAX. NUMBER OF ITERATIONS:      200
 INTERPOLATION TYPE:            DIIS
 INTERPOLATION STEPS:              2 (START)      1 (STEP)
 LEVEL SHIFTS:                  0.00 (CLOSED)  0.00 (OPEN) 



 Orbital guess generated from atomic densities. Full valence occupancy:   35

 Molecular orbital dump at record        2100.2

 ITERATION    DDIFF          GRAD             ENERGY        2-EL.EN.            DIPOLE MOMENTS         DIIS
    1      0.000D+00      0.000D+00      -232.08704064    561.160878    0.88359   -0.62619    0.00019    0
    2      0.000D+00      0.616D-02      -232.16325890    555.954511    0.40840   -0.32484    0.00009    1
    3      0.122D-01      0.265D-02      -232.17390574    557.942191    0.52825   -0.43012    0.00012    2
    4      0.389D-02      0.732D-03      -232.17519959    557.717120    0.50185   -0.39386    0.00011    3
    5      0.141D-02      0.191D-03      -232.17527578    557.653634    0.50117   -0.40595    0.00011    4
    6      0.305D-03      0.356D-04      -232.17527878    557.673722    0.50056   -0.40424    0.00011    5
    7      0.895D-04      0.646D-05      -232.17527891    557.668140    0.50050   -0.40439    0.00011    6
    8      0.183D-04      0.205D-05      -232.17527892    557.669689    0.50050   -0.40448    0.00011    7
    9      0.388D-05      0.653D-06      -232.17527892    557.669353    0.50047   -0.40448    0.00011    7
   10      0.148D-05      0.182D-06      -232.17527892    557.669405    0.50048   -0.40450    0.00011    7
   11      0.475D-06      0.374D-07      -232.17527892    557.669394    0.50048   -0.40450    0.00011    7
   12      0.118D-06      0.115D-07      -232.17527892    557.669402    0.50048   -0.40450    0.00011    7
   13      0.231D-07      0.497D-08      -232.17527892    557.669399    0.50048   -0.40450    0.00011    7
   14      0.975D-08      0.163D-08      -232.17527892    557.669399    0.50048   -0.40450    0.00011    8
   15      0.290D-08      0.424D-09      -232.17527892    557.669399    0.50048   -0.40450    0.00011    8
   16      0.102D-08      0.106D-09      -232.17527892    557.669399    0.50048   -0.40450    0.00011    7
   17      0.249D-09      0.293D-10      -232.17527892    557.669399    0.50048   -0.40450    0.00011    7
   18      0.764D-10      0.828D-11      -232.17527892    557.669399    0.50048   -0.40450    0.00011    8
   19      0.169D-10      0.221D-11      -232.17527892    557.669399    0.50048   -0.40450    0.00011    8
   20      0.607D-11      0.725D-12      -232.17527892    557.669399    0.50048   -0.40450    0.00011    7
   21      0.175D-11      0.252D-12      -232.17527892    557.669399    0.50048   -0.40450    0.00011    7
   22      0.603D-12      0.939D-13      -232.17527892    557.669399    0.50048   -0.40450    0.00011    7
   23      0.383D-12      0.509D-13      -232.17527892    557.669399    0.50048   -0.40450    0.00011    8
   24      0.213D-12      0.321D-13      -232.17527892    557.669399    0.50048   -0.40450    0.00011    9
   25      0.126D-12      0.253D-13      -232.17527892    557.669399    0.50048   -0.40450    0.00011    9
   26      0.904D-13      0.237D-13      -232.17527892    557.669399    0.50048   -0.40450    0.00011    9
   27      0.662D-13      0.260D-13      -232.17527892    557.669399    0.50048   -0.40450    0.00011    9
   28      0.483D-13      0.260D-13      -232.17527892    557.669399    0.50048   -0.40450    0.00011    9
   29      0.247D-13      0.223D-13      -232.17527892    557.669399    0.50048   -0.40450    0.00011    0

 Final occupancy:  21

 !RHF STATE 1.1 Energy               -232.175278922536
 Nuclear energy                       199.68286458
 One-electron energy                 -710.69284311
 Two-electron energy                  278.83469961
 Virial quotient                       -1.00084696
 !RHF STATE 1.1 Dipole moment           0.50047675    -0.40450380     0.00011374
 Dipole moment /Debye                   1.27200169    -1.02807877     0.00028908

 Orbital energies:

         1.1          2.1          3.1          4.1          5.1          6.1          7.1          8.1          9.1         10.1
    -20.544672   -11.282133   -11.220487   -11.220468   -11.214372    -1.353347    -1.064537    -0.939980    -0.938177    -0.767277

        11.1         12.1         13.1         14.1         15.1         16.1         17.1         18.1         19.1         20.1
     -0.666268    -0.620941    -0.618025    -0.573642    -0.553828    -0.528609    -0.514226    -0.505443    -0.500042    -0.458303

        21.1         22.1         23.1
     -0.426945     0.167036     0.220497


 **********************************************************************************************************************************
 DATASETS  * FILE   NREC   LENGTH (MB)   RECORD NAMES
              1      19      206.64       500      610      700      900      950      970     1000      129      960     1100   
                                          VAR    BASINP    GEOM    SYMINP    ZMAT    AOBASIS   BASIS     P2S    ABASIS      S 
                                         1400     1410     1200     1210     1080     1600     1650     1300     1700   
                                           T        V       H0       H01     AOSYM     SMH    MOLCAS    ERIS     OPER   

              2       3        0.80       700     1000     2100   
                                         GEOM     BASIS     RHF  

 PROGRAMS   *        TOTAL       RHF       INT
 CPU TIMES  *         8.82      5.72      3.05
 REAL TIME  *        10.00 SEC
 DISK USED  *       747.48 MB      
 GA USED    *         0.01 MB       (max)       0.00 MB       (current)
 **********************************************************************************************************************************


1PROGRAM * CCSD (Closed-shell coupled cluster)     Authors: C. Hampel, H.-J. Werner, 1991, M. Deegan, P.J. Knowles, 1992


 Convergence thresholds:  THRVAR = 1.00D-08  THRDEN = 1.00D-12

 CCSD(T)     terms to be evaluated (factor= 1.000)


 Number of core orbitals:           5 (   5 )
 Number of closed-shell orbitals:  16 (  16 )
 Number of external orbitals:      99 (  99 )

 Molecular orbitals read from record     2100.2  Type=RHF/CANONICAL (state 1.1)

 Number of N-1 electron functions:              16
 Number of N-2 electron functions:             136
 Number of singly external CSFs:              1584
 Number of doubly external CSFs:           1255320
 Total number of CSFs:                     1256905

 Length of J-op  integral file:               0.00 MB
 Length of K-op  integral file:               1.03 MB
 Length of 3-ext integral record:             0.00 MB

 Memory could be reduced to 21.47 Mwords without degradation in triples

 Integral transformation finished. Total CPU:   1.40 sec, npass=  1  Memory used:  18.35 MW

 Reference energy:                   -232.17527892

 MP2 singlet pair energy:              -0.49744113
 MP2 triplet pair energy:              -0.27467306
 MP2 correlation energy:               -0.77211420
 MP2 total energy:                   -232.94739312

 SCS-MP2 correlation energy:           -0.76783704   (PS=  1.200000  PT=  0.333333)
 SCS-MP2 total energy:               -232.94311597

 ITER.      SQ.NORM     CORR.ENERGY   TOTAL ENERGY   ENERGY CHANGE        DEN1      VAR(S)    VAR(P)  DIIS     TIME
   1      1.27346984    -0.82933653  -233.00461546    -0.05722234    -0.03610866  0.25D-02  0.44D-02  1  1     5.34
   2      1.29462743    -0.83365144  -233.00893036    -0.00431491    -0.02218407  0.67D-04  0.42D-03  2  2     9.32
   3      1.29913818    -0.83386121  -233.00914013    -0.00020977    -0.00276852  0.24D-04  0.24D-04  3  3    13.32
   4      1.30040197    -0.83386696  -233.00914588    -0.00000574    -0.00060157  0.63D-06  0.21D-05  4  4    17.31
   5      1.30063238    -0.83387588  -233.00915481    -0.00000893    -0.00008077  0.18D-06  0.15D-06  5  5    21.32
   6      1.30067321    -0.83387264  -233.00915157     0.00000324    -0.00001314  0.25D-07  0.14D-07  6  6    25.33
   7      1.30068003    -0.83387143  -233.00915035     0.00000121    -0.00000071  0.37D-08  0.17D-08  6  1    29.34
   8      1.30068353    -0.83387145  -233.00915037    -0.00000001    -0.00000041  0.66D-09  0.21D-09  6  2    33.35
   9      1.30068409    -0.83387138  -233.00915030     0.00000006     0.00000056  0.62D-10  0.38D-10  6  4    37.36
  10      1.30068467    -0.83387137  -233.00915029     0.00000001    -0.00000001  0.49D-11  0.37D-11  6  3    41.37
  11      1.30068465    -0.83387137  -233.00915029    -0.00000000     0.00000005  0.75D-12  0.45D-12  6  5    45.38
  12      1.30068459    -0.83387137  -233.00915030    -0.00000000     0.00000003  0.14D-12  0.64D-13  6  6    49.39
  13      1.30068453    -0.83387138  -233.00915030    -0.00000000     0.00000003  0.11D-13  0.98D-14  6  2    53.41
  14      1.30068452    -0.83387138  -233.00915030    -0.00000000     0.00000001  0.17D-14  0.59D-15  6  1    57.41
  15      1.30068452    -0.83387138  -233.00915030    -0.00000000     0.00000000  0.22D-15  0.13D-15  6  4    61.42
  16      1.30068452    -0.83387138  -233.00915030     0.00000000    -0.00000000  0.34D-16  0.20D-16  6  3    65.43
  17      1.30068452    -0.83387138  -233.00915030     0.00000000    -0.00000000  0.32D-17  0.25D-17  6  5    69.46
  18      1.30068452    -0.83387138  -233.00915030    -0.00000000    -0.00000000  0.84D-18  0.34D-18  6  6    73.47
  19      1.30068452    -0.83387138  -233.00915030    -0.00000000    -0.00000000  0.21D-18  0.61D-19  6  2    77.49
  20      1.30068452    -0.83387138  -233.00915030    -0.00000000     0.00000000  0.31D-19  0.12D-19  6  1    81.50
  21      1.30068452    -0.83387138  -233.00915030    -0.00000000     0.00000000  0.38D-20  0.20D-20  6  4    85.53
  22      1.30068452    -0.83387138  -233.00915030     0.00000000    -0.00000000  0.65D-21  0.30D-21  6  3    89.54

 Norm of t1 vector:      0.06594127      S-energy:    -0.00000000      T1 diagnostic:  0.00824266
                                                                       D1 diagnostic:  0.02155644


 Total CPU time for triples:     60.23 sec


 RESULTS
 =======

  Reference energy                   -232.175278922536
  CCSD singlet pair energy             -0.580832239655
  CCSD triplet pair energy             -0.253039137554
  CCSD correlation energy              -0.833871377209

  Triples (T) contribution             -0.023238703685
  Total correlation energy             -0.857110080894

  CCSD total energy                  -233.009150299744
  CCSD[T] energy                     -233.033084383713
  CCSD-T energy                      -233.032053671060
 !CCSD(T) total energy               -233.032389003429

 Timing summary (sec):

 STEP                 CPU(USER)    SYS     CPU(TOT)    WALL
 Transformation          1.46      0.14      1.60      1.60
 CCSD iterations        88.08      1.87     89.95     90.00
 Triples                60.23      1.21     61.44     61.46

 Program statistics:

 Available memory in ccsd:               999998876
 Min. memory needed in ccsd:               3310297
 Max. memory used in ccsd:                 4412497
 Max. memory used in cckext:               4149679 (22 integral passes)



 **********************************************************************************************************************************
 DATASETS  * FILE   NREC   LENGTH (MB)   RECORD NAMES
              1      20      293.30       500      610      700      900      950      970     1000      129      960     1100   
                                          VAR    BASINP    GEOM    SYMINP    ZMAT    AOBASIS   BASIS     P2S    ABASIS      S 
                                         1400     1410     1200     1210     1080     1600     1650     1300     1700     1380   
                                           T        V       H0       H01     AOSYM     SMH    MOLCAS    ERIS     OPER     JKOP   

              2       3        0.80       700     1000     2100   
                                         GEOM     BASIS     RHF  

 PROGRAMS   *        TOTAL   CCSD(T)       RHF       INT
 CPU TIMES  *       158.60    149.78      5.72      3.05
 REAL TIME  *       163.10 SEC
 DISK USED  *       747.48 MB      
 GA USED    *         0.01 MB       (max)       0.00 MB       (current)
 **********************************************************************************************************************************

        CCSD(T)         RHF-SCF 
   -233.03238900   -232.17527892
 **********************************************************************************************************************************
 Variable memory released
