
 Primary working directories    : /tmp/1011018.17.gen4.q
 Secondary working directories  : /tmp/1011018.17.gen4.q
 Wavefunction directory         : /home/vulcan/mel64643/wfu/
 Main file repository           : /tmp/1011018.17.gen4.q/

 ARCHNAME  : Linux/x86_64
 FC        : /opt/intel/compilers_and_libraries_2016.1.150/linux/bin/intel64/ifort
 FCVERSION : 16.0.1
 BLASLIB   : -mkl
 id        : ccgc

 Nodes     nprocs
 n049         1
 ga_uses_ma=false, calling ma_init with nominal heap.
 GA-space will be limited to   8.0 MW (determined by -G option)

 Using customized tuning parameters: mindgm=10; mindgv=16; mindgc=4; mindgr=1; noblas=0; mincuda=1000; minvec=7
 default implementation of scratch files=df  

 ***,Optimization of ethene_ethyne
 memory,1000,m
 gthresh,energy=1.0d-12,orbital=1.0d-10,oneint=1.0d-16,twoint=1.0d-16,optgrad=1.0d-6,compress=1.0d-13
 geomtyp=xyz
 
 
 
 bohr
 geometry = {
  C   -0.0000000000   -1.2598809110   -3.9732631532
  C    0.0000000000    1.2598809110   -3.9732631532
  H    1.7478767550   -2.3283222860   -3.9749312221
  H   -1.7478767550   -2.3283222860   -3.9749312221
  H   -1.7478767550    2.3283222860   -3.9749312221
  H    1.7478767550    2.3283222860   -3.9749312221
  C   -0.0000000000    0.0000000000    5.4060789866
  C    0.0000000000    0.0000000000    3.1176866106
  H    0.0000000000    0.0000000000    1.0952370708
  H   -0.0000000000   -0.0000000000    7.4101999778
  X    2.0000000000    0.0000000000    5.4004221540
  X    0.0000000000    2.0000000000    5.4004221540
  X    2.0000000000    0.0000000000    3.1120297780
  X    0.0000000000    2.0000000000    3.1120297780
 }
 
 basis=aug-cc-pvdz, H=cc-pvdz
 {rhf;maxit,200}
 {mp2}

 Variables initialized (661), CPU time= 0.00 sec
 Commands  initialized (458), CPU time= 0.01 sec, 486 directives.
 Default parameters read. Elapsed time= 0.05 sec

 Checking input...
 Passed
1


                                         ***  PROGRAM SYSTEM MOLPRO  ***
                         Copyright, University College Cardiff Consultants Limited, 2008

                                    Version 2010.1 linked May 16 2016 07:17:05


 **********************************************************************************************************************************
 LABEL *   Optimization of ethene_ethyne                                                 
 Linux-4.4.3/n049(x86_64) 64 bit mpp version                                             DATE: 25-Feb-24          TIME: 03:03:52  
 **********************************************************************************************************************************

 SHA1:             9e8077add272b0f3cad6f7df79ec5211205f459d
 **********************************************************************************************************************************

 THRESHOLDS:

 ZERO    =  1.00D-12  ONEINT  =  1.00D-16  TWOINT  =  1.00D-16  PREFAC  =  1.00D-14  LOCALI  =  1.00D-09  EORDER  =  1.00D-04
 ENERGY  =  1.00D-12  ETEST   =  0.00D+00  EDENS   =  0.00D+00  THRDEDEF=  1.00D-06  GRADIENT=  1.00D-02  STEP    =  1.00D-03
 ORBITAL =  1.00D-10  CIVEC   =  1.00D-05  COEFF   =  1.00D-04  PRINTCI =  5.00D-02  PUNCHCI =  9.90D+01  OPTGRAD =  1.00D-06
 OPTENERG=  1.00D-06  OPTSTEP =  3.00D-04  THRGRAD =  1.00D-10  COMPRESS=  1.00D-13  VARMIN  =  1.00D-07  VARMAX  =  1.00D-03
 THRDOUB =  0.00D+00  THRDIV  =  1.00D-05  THRRED  =  1.00D-07  THRPSP  =  1.00D+00  THRDC   =  1.00D-10  THRCS   =  1.00D-10
 THRNRM  =  1.00D-08  THREQ   =  0.00D+00  THRDE   =  1.00D+00  THRREF  =  1.00D-05  SPARFAC =  1.00D+00  THRDLP  =  1.00D-07
 THRDIA  =  1.00D-10  THRDLS  =  1.00D-07  THRGPS  =  0.00D+00  THRKEX  =  0.00D+00  THRDIS  =  2.00D-01  THRVAR  =  1.00D-10
 THRLOC  =  1.00D-06  THRGAP  =  1.00D-06  THRLOCT = -1.00D+00  THRGAPT = -1.00D+00  THRORB  =  1.00D-06  THRMLTP =  0.00D+00
 THRCPQCI=  1.00D-10  KEXTA   =  0.00D+00  THRCOARS=  0.00D+00  SYMTOL  =  1.00D-06  GRADTOL =  1.00D-06  THROVL  =  1.00D-08
 THRORTH =  1.00D-08  GRID    =  1.00D-06  GRIDMAX =  1.00D-03  DTMAX   =  0.00D+00

 SETTING GEOMTYP        =    XYZ
 ZUNIT=BOHR
 

 Variable memory set to 1000000000 words,  buffer space   230000 words

 SETTING BASIS          =    AUG-CC-PVDZ,H=CC-PVDZ


 Recomputing integrals since basis changed


 Using spherical harmonics

 Library entry C      S aug-cc-pVDZ          selected for orbital group  1
 Library entry C      P aug-cc-pVDZ          selected for orbital group  1
 Library entry C      D aug-cc-pVDZ          selected for orbital group  1
 Library entry H      S cc-pVDZ              selected for orbital group  2
 Library entry H      P cc-pVDZ              selected for orbital group  2

1PROGRAM * SEWARD (Integral evaluation for generally contracted gaussian basis sets)     Author: Roland Lindh, 1990

 Geometry written to block  1 of record 700


 Point group  C2v 



 ATOMIC COORDINATES

 NR  ATOM    CHARGE       X              Y              Z

   1  C       6.00    0.000000000   -1.259880911   -3.973263153
   2  C       6.00    0.000000000    1.259880911   -3.973263153
   3  H       1.00    1.747876755   -2.328322286   -3.974931222
   4  H       1.00   -1.747876755   -2.328322286   -3.974931222
   5  H       1.00   -1.747876755    2.328322286   -3.974931222
   6  H       1.00    1.747876755    2.328322286   -3.974931222
   7  C       6.00    0.000000000    0.000000000    5.406078987
   8  C       6.00    0.000000000    0.000000000    3.117686611
   9  H       1.00    0.000000000    0.000000000    1.095237071
  10  H       1.00    0.000000000    0.000000000    7.410199978

 Bond lengths in Bohr (Angstrom)

 1-2  2.519761822  1-3  2.048570942  1-4  2.048570942  2-5  2.048570942  2-6  2.048570942
     ( 1.333400528)     ( 1.084057054)     ( 1.084057054)     ( 1.084057054)     ( 1.084057054)

  7- 8  2.288392376   7-10  2.004120991   8- 9  2.022449540
       ( 1.210965091)       ( 1.060535153)       ( 1.070234203)

 Bond angles

  1-2-5  121.43658156   1-2-6  121.43658156   2-1-3  121.43658156   2-1-4  121.43658156

  3- 1- 4  117.12675152   5- 2- 6  117.12675152   7- 8- 9  179.99999879   8- 7-10  180.00000000

 NUCLEAR CHARGE:                   30
 NUMBER OF PRIMITIVE AOS:         190
 NUMBER OF SYMMETRY AOS:          182
 NUMBER OF CONTRACTIONS:          122   (  49A1  +  24B1  +  33B2  +  16A2  )
 NUMBER OF CORE ORBITALS:           4   (   3A1  +   0B1  +   1B2  +   0A2  )
 NUMBER OF VALENCE ORBITALS:       22   (  10A1  +   4B1  +   6B2  +   2A2  )


 NUCLEAR REPULSION ENERGY   85.54984818


 Eigenvalues of metric

         1 0.820E-04 0.226E-03 0.294E-02 0.483E-02 0.661E-02 0.102E-01 0.127E-01 0.141E-01
         2 0.575E-02 0.962E-02 0.382E-01 0.447E-01 0.894E-01 0.144E+00 0.155E+00 0.284E+00
         3 0.168E-03 0.266E-03 0.499E-02 0.850E-02 0.110E-01 0.182E-01 0.334E-01 0.499E-01
         4 0.671E-02 0.840E-02 0.271E-01 0.623E-01 0.159E+00 0.199E+00 0.236E+00 0.247E+00


 Contracted 2-electron integrals neglected if value below      1.0D-16
 AO integral compression algorithm  1   Integral accuracy      1.0D-16

     62.915 MB (compressed) written to integral file ( 86.7%)

     Node minimum: 62.915 MB, node maximum: 62.915 MB


 NUMBER OF SORTED TWO-ELECTRON INTEGRALS:    7345979.     BUFFER LENGTH:  32768
 NUMBER OF SEGMENTS:   1  SEGMENT LENGTH:    7345979      RECORD LENGTH: 524288

 Memory used in sort:       7.90 MW

 SORT1 READ     9079163. AND WROTE     7053850. INTEGRALS IN     21 RECORDS. CPU TIME:     0.15 SEC, REAL TIME:     0.19 SEC
 SORT2 READ     7053850. AND WROTE     7345979. INTEGRALS IN    240 RECORDS. CPU TIME:     0.10 SEC, REAL TIME:     0.15 SEC

 FILE SIZES:   FILE 1:    55.4 MBYTE,  FILE 4:    88.1 MBYTE,   TOTAL:    143.5 MBYTE

 OPERATOR DM      FOR CENTER  0  COORDINATES:    0.000000    0.000000    0.000000


 **********************************************************************************************************************************
 DATASETS  * FILE   NREC   LENGTH (MB)   RECORD NAMES
              1      19       55.41       500      610      700      900      950      970     1000      129      960     1100   
                                          VAR    BASINP    GEOM    SYMINP    ZMAT    AOBASIS   BASIS     P2S    ABASIS      S 
                                         1400     1410     1200     1210     1080     1600     1650     1300     1700   
                                           T        V       H0       H01     AOSYM     SMH    MOLCAS    ERIS     OPER   

 PROGRAMS   *        TOTAL       INT
 CPU TIMES  *         1.08      1.04
 REAL TIME  *         1.37 SEC
 DISK USED  *       207.31 MB      
 GA USED    *         0.00 MB       (max)       0.00 MB       (current)
 **********************************************************************************************************************************

1PROGRAM * RHF-SCF (CLOSED SHELL)       Authors: W. Meyer, H.-J. Werner


 NUMBER OF ELECTRONS:      15+   15-
 CONVERGENCE THRESHOLDS:    1.00E-10 (Density)    1.00E-13 (Energy)
 MAX. NUMBER OF ITERATIONS:      200
 INTERPOLATION TYPE:            DIIS
 INTERPOLATION STEPS:              2 (START)      1 (STEP)
 LEVEL SHIFTS:                  0.00 (CLOSED)  0.00 (OPEN) 



 Orbital guess generated from atomic densities. Full valence occupancy:   13   4   7   2

 Molecular orbital dump at record        2100.2

 Initial alpha occupancy:   9   2   3   1
 Initial beta  occupancy:   9   2   3   1
 Wave function symmetry:    1

 ITERATION    DDIFF          GRAD             ENERGY        2-EL.EN.            DIPOLE MOMENTS         DIIS
    1      0.000D+00      0.000D+00      -154.83515630    273.504617    0.00000    0.00000   -0.07078    0
    2      0.000D+00      0.638D-02      -154.86729726    271.131037    0.00000    0.00000   -0.14721    1
    3      0.157D-01      0.199D-02      -154.87024702    272.034513    0.00000    0.00000   -0.12890    2
    4      0.390D-02      0.571D-03      -154.87063829    271.824310    0.00000    0.00000   -0.14419    3
    5      0.163D-02      0.106D-03      -154.87064969    271.841749    0.00000    0.00000   -0.13972    4
    6      0.277D-03      0.428D-04      -154.87065106    271.841183    0.00000    0.00000   -0.14396    5
    7      0.774D-04      0.123D-04      -154.87065120    271.840846    0.00000    0.00000   -0.14348    6
    8      0.274D-04      0.278D-05      -154.87065121    271.840726    0.00000    0.00000   -0.14372    7
    9      0.720D-05      0.656D-06      -154.87065121    271.840766    0.00000    0.00000   -0.14376    7
   10      0.225D-05      0.936D-07      -154.87065121    271.840764    0.00000    0.00000   -0.14377    7
   11      0.396D-06      0.225D-07      -154.87065121    271.840767    0.00000    0.00000   -0.14377    6
   12      0.788D-07      0.977D-08      -154.87065121    271.840765    0.00000    0.00000   -0.14377    6
   13      0.291D-07      0.544D-08      -154.87065121    271.840766    0.00000    0.00000   -0.14377    6
   14      0.236D-07      0.225D-08      -154.87065121    271.840766    0.00000    0.00000   -0.14377    7
   15      0.105D-07      0.764D-09      -154.87065121    271.840766    0.00000    0.00000   -0.14377    8
   16      0.277D-08      0.177D-09      -154.87065121    271.840766    0.00000    0.00000   -0.14377    8
   17      0.450D-09      0.329D-10      -154.87065121    271.840766    0.00000    0.00000   -0.14377    8
   18      0.114D-09      0.960D-11      -154.87065121    271.840766    0.00000    0.00000   -0.14377    8
   19      0.330D-10      0.201D-11      -154.87065121    271.840766    0.00000    0.00000   -0.14377    8
   20      0.938D-11      0.577D-12      -154.87065121    271.840766    0.00000    0.00000   -0.14377    7
   21      0.329D-11      0.184D-12      -154.87065121    271.840766    0.00000    0.00000   -0.14377    7
   22      0.273D-11      0.759D-13      -154.87065121    271.840766    0.00000    0.00000   -0.14377    7
   23      0.369D-11      0.826D-13      -154.87065121    271.840766    0.00000    0.00000   -0.14377    0

 Final occupancy:   9   2   3   1

 !RHF STATE 1.1 Energy               -154.870651214283
 Nuclear energy                        85.54984818
 One-electron energy                 -376.34088247
 Two-electron energy                  135.92038307
 Virial quotient                       -1.00209288
 !RHF STATE 1.1 Dipole moment           0.00000000     0.00000000    -0.14376984
 Dipole moment /Debye                   0.00000000     0.00000000    -0.36540254

 Orbital energies:

         1.1          2.1          3.1          4.1          5.1          6.1          7.1          8.1          9.1         10.1
    -11.249493   -11.248283   -11.244743    -1.046182    -1.024332    -0.760551    -0.671709    -0.595865    -0.387762     0.065130

        11.1
      0.080469

         1.2          2.2          3.2          4.2
     -0.652062    -0.402077     0.092437     0.115839

         1.3          2.3          3.3          4.3          5.3
    -11.247833    -0.802086    -0.402079     0.065116     0.094134

         1.4          2.4          3.4
     -0.515001     0.122346     0.400906


 **********************************************************************************************************************************
 DATASETS  * FILE   NREC   LENGTH (MB)   RECORD NAMES
              1      19       55.41       500      610      700      900      950      970     1000      129      960     1100   
                                          VAR    BASINP    GEOM    SYMINP    ZMAT    AOBASIS   BASIS     P2S    ABASIS      S 
                                         1400     1410     1200     1210     1080     1600     1650     1300     1700   
                                           T        V       H0       H01     AOSYM     SMH    MOLCAS    ERIS     OPER   

              2       3        0.58       700     1000     2100   
                                         GEOM     BASIS     RHF  

 PROGRAMS   *        TOTAL       RHF       INT
 CPU TIMES  *         1.74      0.66      1.04
 REAL TIME  *         2.16 SEC
 DISK USED  *       207.31 MB      
 GA USED    *         0.00 MB       (max)       0.00 MB       (current)
 **********************************************************************************************************************************


1PROGRAM * MP2 (Closed-shell)     Authors: C. Hampel, H.-J. Werner, 1991, M. Deegan, P.J. Knowles, 1992


 Convergence thresholds:  THRVAR = 1.00D-08  THRDEN = 1.00D-12

 Number of core orbitals:           4 (   3   0   1   0 )
 Number of closed-shell orbitals:  11 (   6   2   2   1 )
 Number of external orbitals:     107 (  40  22  30  15 )

 Molecular orbitals read from record     2100.2  Type=RHF/CANONICAL (state 1.1)

 Number of N-1 electron functions:              11
 Number of N-2 electron functions:              66
 Number of singly external CSFs:               359
 Number of doubly external CSFs:            178071
 Total number of CSFs:                      178431

 Length of J-op  integral file:               0.00 MB
 Length of K-op  integral file:               0.33 MB

 Integral transformation finished. Total CPU:   0.08 sec, npass=  1  Memory used:   0.33 MW

 Memory needed for MP2:                      0.02 MW

 SCS-MP2 correlation energy:           -0.547678379993   (PS=  1.200000  PT=  0.333333)
 SCS-MP2 total energy:               -155.418329594276


  Reference energy                   -154.870651214283
  MP2 singlet pair energy              -0.357594136673
  MP2 triplet pair energy              -0.190551561405
  MP2 correlation energy               -0.548145698078

 !MP2 total energy                   -155.418796912361


 **********************************************************************************************************************************
 DATASETS  * FILE   NREC   LENGTH (MB)   RECORD NAMES
              1      20       58.64       500      610      700      900      950      970     1000      129      960     1100   
                                          VAR    BASINP    GEOM    SYMINP    ZMAT    AOBASIS   BASIS     P2S    ABASIS      S 
                                         1400     1410     1200     1210     1080     1600     1650     1300     1700     1380   
                                           T        V       H0       H01     AOSYM     SMH    MOLCAS    ERIS     OPER     JKOP   

              2       3        0.58       700     1000     2100   
                                         GEOM     BASIS     RHF  

 PROGRAMS   *        TOTAL       MP2       RHF       INT
 CPU TIMES  *         1.84      0.09      0.66      1.04
 REAL TIME  *         2.29 SEC
 DISK USED  *       207.31 MB      
 GA USED    *         0.00 MB       (max)       0.00 MB       (current)
 **********************************************************************************************************************************

        MP2             RHF-SCF 
   -155.41879691   -154.87065121
 **********************************************************************************************************************************
 Variable memory released
