
 Primary working directories    : /tmp/943217.3.gen6.q
 Secondary working directories  : /tmp/943217.3.gen6.q
 Wavefunction directory         : /home/vulcan/mel64643/wfu/
 Main file repository           : /tmp/943217.3.gen6.q/

 ARCHNAME  : Linux/x86_64
 FC        : /opt/intel/compilers_and_libraries_2016.1.150/linux/bin/intel64/ifort
 FCVERSION : 16.0.1
 BLASLIB   : -mkl
 id        : ccgc

 Nodes     nprocs
 n088         1
 ga_uses_ma=false, calling ma_init with nominal heap.
 GA-space will be limited to   8.0 MW (determined by -G option)

 Using customized tuning parameters: mindgm=10; mindgv=16; mindgc=4; mindgr=1; noblas=0; mincuda=1000; minvec=7
 default implementation of scratch files=df  

 ***,Optimization of formic acid
 memory,1000,m
 gthresh,energy=1.0d-12,orbital=1.0d-10,oneint=1.0d-16,twoint=1.0d-16,optgrad=1.0d-6,compress=1.0d-13
 geomtyp=xyz
 
 bohr
 geometry = {
  C   -3.4972232149   -0.8293171149    0.0000000000
  O   -3.0914493137    1.6242184240   -0.0000000000
  O   -1.8816733493   -2.4794470983    0.0000000000
  H   -5.5163754701   -1.2723293394    0.0000000000
  H   -1.2463099807    1.9546931335   -0.0000000000
  C    3.4972232149    0.8293171149    0.0000000000
  O    3.0914493137   -1.6242184240   -0.0000000000
  O    1.8816733493    2.4794470983    0.0000000000
  H    5.5163754701    1.2723293394    0.0000000000
  H    1.2463099807   -1.9546931335   -0.0000000000
 }
 
 basis=VDZ
 {rhf;maxit,200}
 {ccsd(t);maxit,200}

 Variables initialized (661), CPU time= 0.00 sec
 Commands  initialized (458), CPU time= 0.01 sec, 486 directives.
 Default parameters read. Elapsed time= 0.08 sec

 Checking input...
 Passed
1


                                         ***  PROGRAM SYSTEM MOLPRO  ***
                         Copyright, University College Cardiff Consultants Limited, 2008

                                    Version 2010.1 linked May 16 2016 07:17:05


 **********************************************************************************************************************************
 LABEL *   Optimization of formic acid                                                   
 Linux-4.4.3/n088(x86_64) 64 bit mpp version                                             DATE: 24-Oct-23          TIME: 10:27:07  
 **********************************************************************************************************************************

 SHA1:             9e8077add272b0f3cad6f7df79ec5211205f459d
 **********************************************************************************************************************************

 THRESHOLDS:

 ZERO    =  1.00D-12  ONEINT  =  1.00D-16  TWOINT  =  1.00D-16  PREFAC  =  1.00D-14  LOCALI  =  1.00D-09  EORDER  =  1.00D-04
 ENERGY  =  1.00D-12  ETEST   =  0.00D+00  EDENS   =  0.00D+00  THRDEDEF=  1.00D-06  GRADIENT=  1.00D-02  STEP    =  1.00D-03
 ORBITAL =  1.00D-10  CIVEC   =  1.00D-05  COEFF   =  1.00D-04  PRINTCI =  5.00D-02  PUNCHCI =  9.90D+01  OPTGRAD =  1.00D-06
 OPTENERG=  1.00D-06  OPTSTEP =  3.00D-04  THRGRAD =  1.00D-10  COMPRESS=  1.00D-13  VARMIN  =  1.00D-07  VARMAX  =  1.00D-03
 THRDOUB =  0.00D+00  THRDIV  =  1.00D-05  THRRED  =  1.00D-07  THRPSP  =  1.00D+00  THRDC   =  1.00D-10  THRCS   =  1.00D-10
 THRNRM  =  1.00D-08  THREQ   =  0.00D+00  THRDE   =  1.00D+00  THRREF  =  1.00D-05  SPARFAC =  1.00D+00  THRDLP  =  1.00D-07
 THRDIA  =  1.00D-10  THRDLS  =  1.00D-07  THRGPS  =  0.00D+00  THRKEX  =  0.00D+00  THRDIS  =  2.00D-01  THRVAR  =  1.00D-10
 THRLOC  =  1.00D-06  THRGAP  =  1.00D-06  THRLOCT = -1.00D+00  THRGAPT = -1.00D+00  THRORB  =  1.00D-06  THRMLTP =  0.00D+00
 THRCPQCI=  1.00D-10  KEXTA   =  0.00D+00  THRCOARS=  0.00D+00  SYMTOL  =  1.00D-06  GRADTOL =  1.00D-06  THROVL  =  1.00D-08
 THRORTH =  1.00D-08  GRID    =  1.00D-06  GRIDMAX =  1.00D-03  DTMAX   =  0.00D+00

 SETTING GEOMTYP        =    XYZ
 ZUNIT=BOHR
 

 Variable memory set to 1000000000 words,  buffer space   230000 words

 SETTING BASIS          =    VDZ


 Recomputing integrals since basis changed


 Using spherical harmonics

 Library entry C      S cc-pVDZ              selected for orbital group  1
 Library entry C      P cc-pVDZ              selected for orbital group  1
 Library entry C      D cc-pVDZ              selected for orbital group  1
 Library entry O      S cc-pVDZ              selected for orbital group  2
 Library entry O      P cc-pVDZ              selected for orbital group  2
 Library entry O      D cc-pVDZ              selected for orbital group  2
 Library entry H      S cc-pVDZ              selected for orbital group  3
 Library entry H      P cc-pVDZ              selected for orbital group  3

1PROGRAM * SEWARD (Integral evaluation for generally contracted gaussian basis sets)     Author: Roland Lindh, 1990

 Geometry written to block  1 of record 700


 Point group  C2h 



 ATOMIC COORDINATES

 NR  ATOM    CHARGE       X              Y              Z

   1  C       6.00   -3.497223215   -0.829317115    0.000000000
   2  C       6.00    3.497223215    0.829317115    0.000000000
   3  O       8.00   -3.091449314    1.624218424    0.000000000
   4  O       8.00    3.091449314   -1.624218424    0.000000000
   5  O       8.00   -1.881673349   -2.479447098    0.000000000
   6  O       8.00    1.881673349    2.479447098    0.000000000
   7  H       1.00   -5.516375470   -1.272329339    0.000000000
   8  H       1.00    5.516375470    1.272329339    0.000000000
   9  H       1.00   -1.246309981    1.954693133    0.000000000
  10  H       1.00    1.246309981   -1.954693133    0.000000000

 Bond lengths in Bohr (Angstrom)

 1-3  2.486863305  1-5  2.309313822  1-7  2.067180607  2-4  2.486863305  2-6  2.309313822
     ( 1.315991383)     ( 1.222036243)     ( 1.093904864)     ( 1.315991383)     ( 1.222036243)

  2- 8  2.067180607   3- 9  1.874500651   4-10  1.874500651
       ( 1.093904864)       ( 0.991943023)       ( 0.991943023)

 Bond angles

  1- 3- 9  109.54509195   2- 4-10  109.54509195   3- 1- 5  126.21591402   3- 1- 7  111.76566607

  4-2-6  126.21591402   4-2-8  111.76566607   5-1-7  122.01841991   6-2-8  122.01841991

 NUCLEAR CHARGE:                   48
 NUMBER OF PRIMITIVE AOS:         190
 NUMBER OF SYMMETRY AOS:          184
 NUMBER OF CONTRACTIONS:          104   (  38Ag  +  14Au  +  38Bu  +  14Bg  )
 NUMBER OF CORE ORBITALS:           6   (   3Ag  +   0Au  +   3Bu  +   0Bg  )
 NUMBER OF VALENCE ORBITALS:       28   (  11Ag  +   3Au  +  11Bu  +   3Bg  )


 NUCLEAR REPULSION ENERGY  235.66093992


 Eigenvalues of metric

         1 0.817E-02 0.138E-01 0.166E-01 0.298E-01 0.374E-01 0.441E-01 0.554E-01 0.933E-01
         2 0.115E+00 0.174E+00 0.194E+00 0.420E+00 0.480E+00 0.555E+00 0.673E+00 0.999E+00
         3 0.870E-02 0.140E-01 0.165E-01 0.306E-01 0.353E-01 0.439E-01 0.528E-01 0.962E-01
         4 0.116E+00 0.175E+00 0.191E+00 0.420E+00 0.478E+00 0.569E+00 0.651E+00 0.999E+00


 Contracted 2-electron integrals neglected if value below      1.0D-16
 AO integral compression algorithm  1   Integral accuracy      1.0D-16

     40.632 MB (compressed) written to integral file (100.0%)

     Node minimum: 40.632 MB, node maximum: 40.632 MB


 NUMBER OF SORTED TWO-ELECTRON INTEGRALS:    4024002.     BUFFER LENGTH:  32768
 NUMBER OF SEGMENTS:   1  SEGMENT LENGTH:    4024002      RECORD LENGTH: 524288

 Memory used in sort:       4.58 MW

 SORT1 READ     4964096. AND WROTE     4024002. INTEGRALS IN     12 RECORDS. CPU TIME:     0.06 SEC, REAL TIME:     0.10 SEC
 SORT2 READ     4024002. AND WROTE     4024002. INTEGRALS IN    155 RECORDS. CPU TIME:     0.06 SEC, REAL TIME:     0.09 SEC

 FILE SIZES:   FILE 1:    35.7 MBYTE,  FILE 4:    50.4 MBYTE,   TOTAL:     86.0 MBYTE

 OPERATOR DM      FOR CENTER  0  COORDINATES:    0.000000    0.000000    0.000000


 **********************************************************************************************************************************
 DATASETS  * FILE   NREC   LENGTH (MB)   RECORD NAMES
              1      19       35.70       500      610      700      900      950      970     1000      129      960     1100   
                                          VAR    BASINP    GEOM    SYMINP    ZMAT    AOBASIS   BASIS     P2S    ABASIS      S 
                                         1400     1410     1200     1210     1080     1600     1650     1300     1700   
                                           T        V       H0       H01     AOSYM     SMH    MOLCAS    ERIS     OPER   

 PROGRAMS   *        TOTAL       INT
 CPU TIMES  *         0.95      0.91
 REAL TIME  *         1.59 SEC
 DISK USED  *       127.44 MB      
 GA USED    *         0.00 MB       (max)       0.00 MB       (current)
 **********************************************************************************************************************************

1PROGRAM * RHF-SCF (CLOSED SHELL)       Authors: W. Meyer, H.-J. Werner


 NUMBER OF ELECTRONS:      24+   24-
 CONVERGENCE THRESHOLDS:    1.00E-10 (Density)    1.00E-13 (Energy)
 MAX. NUMBER OF ITERATIONS:      200
 INTERPOLATION TYPE:            DIIS
 INTERPOLATION STEPS:              2 (START)      1 (STEP)
 LEVEL SHIFTS:                  0.00 (CLOSED)  0.00 (OPEN) 



 Orbital guess generated from atomic densities. Full valence occupancy:   14   3  14   3

 Molecular orbital dump at record        2100.2

 Initial alpha occupancy:  10   2  10   2
 Initial beta  occupancy:  10   2  10   2
 Wave function symmetry:    1

 ITERATION    DDIFF          GRAD             ENERGY        2-EL.EN.            DIPOLE MOMENTS         DIIS
    1      0.000D+00      0.000D+00      -377.44993324    747.305957    0.00000    0.00000    0.00000    0
    2      0.000D+00      0.199D-01      -377.53775304    744.454556    0.00000    0.00000    0.00000    1
    3      0.392D-01      0.123D-01      -377.58450309    746.704464    0.00000    0.00000    0.00000    2
    4      0.143D-01      0.174D-02      -377.58599342    746.424110    0.00000    0.00000    0.00000    3
    5      0.278D-02      0.723D-03      -377.58625369    746.450053    0.00000    0.00000    0.00000    4
    6      0.114D-02      0.206D-03      -377.58629960    746.494247    0.00000    0.00000    0.00000    5
    7      0.395D-03      0.943D-04      -377.58631086    746.479127    0.00000    0.00000    0.00000    6
    8      0.236D-03      0.280D-04      -377.58631186    746.484312    0.00000    0.00000    0.00000    7
    9      0.738D-04      0.948D-05      -377.58631196    746.482867    0.00000    0.00000    0.00000    8
   10      0.256D-04      0.259D-05      -377.58631197    746.483035    0.00000    0.00000    0.00000    7
   11      0.722D-05      0.634D-06      -377.58631197    746.482980    0.00000    0.00000    0.00000    8
   12      0.169D-05      0.178D-06      -377.58631197    746.483001    0.00000    0.00000    0.00000    7
   13      0.465D-06      0.715D-07      -377.58631197    746.482990    0.00000    0.00000    0.00000    8
   14      0.135D-06      0.217D-07      -377.58631197    746.482992    0.00000    0.00000    0.00000    7
   15      0.555D-07      0.648D-08      -377.58631197    746.482992    0.00000    0.00000    0.00000    7
   16      0.115D-07      0.179D-08      -377.58631197    746.482992    0.00000    0.00000    0.00000    7
   17      0.365D-08      0.698D-09      -377.58631197    746.482992    0.00000    0.00000    0.00000    7
   18      0.138D-08      0.208D-09      -377.58631197    746.482992    0.00000    0.00000    0.00000    8
   19      0.506D-09      0.678D-10      -377.58631197    746.482992    0.00000    0.00000    0.00000    8
   20      0.168D-09      0.151D-10      -377.58631197    746.482992    0.00000    0.00000    0.00000    7
   21      0.403D-10      0.280D-11      -377.58631197    746.482992    0.00000    0.00000    0.00000    0

 Final occupancy:  10   2  10   2

 !RHF STATE 1.1 Energy               -377.586311970435
 Nuclear energy                       235.66093992
 One-electron energy                 -986.48874777
 Two-electron energy                  373.24149588
 Virial quotient                       -1.00119428
 !RHF STATE 1.1 Dipole moment           0.00000000     0.00000000     0.00000000
 Dipole moment /Debye                   0.00000000     0.00000000     0.00000000

 Orbital energies:

         1.1          2.1          3.1          4.1          5.1          6.1          7.1          8.1          9.1         10.1
    -20.613673   -20.575394   -11.412048    -1.482510    -1.369838    -0.915065    -0.728162    -0.689100    -0.615364    -0.489563

        11.1         12.1
      0.204251     0.291129

         1.2          2.2          3.2          4.2
     -0.638528    -0.487738     0.160888     0.631850

         1.3          2.3          3.3          4.3          5.3          6.3          7.3          8.3          9.3         10.3
    -20.613672   -20.575395   -11.412049    -1.469714    -1.383919    -0.879164    -0.763565    -0.719322    -0.573972    -0.467756

        11.3         12.3
      0.209778     0.316427

         1.4          2.4          3.4          4.4
     -0.628889    -0.498479     0.165988     0.658426


 **********************************************************************************************************************************
 DATASETS  * FILE   NREC   LENGTH (MB)   RECORD NAMES
              1      19       35.70       500      610      700      900      950      970     1000      129      960     1100   
                                          VAR    BASINP    GEOM    SYMINP    ZMAT    AOBASIS   BASIS     P2S    ABASIS      S 
                                         1400     1410     1200     1210     1080     1600     1650     1300     1700   
                                           T        V       H0       H01     AOSYM     SMH    MOLCAS    ERIS     OPER   

              2       3        0.49       700     1000     2100   
                                         GEOM     BASIS     RHF  

 PROGRAMS   *        TOTAL       RHF       INT
 CPU TIMES  *         1.19      0.24      0.91
 REAL TIME  *         1.91 SEC
 DISK USED  *       127.44 MB      
 GA USED    *         0.00 MB       (max)       0.00 MB       (current)
 **********************************************************************************************************************************


1PROGRAM * CCSD (Closed-shell coupled cluster)     Authors: C. Hampel, H.-J. Werner, 1991, M. Deegan, P.J. Knowles, 1992


 Convergence thresholds:  THRVAR = 1.00D-08  THRDEN = 1.00D-12

 CCSD(T)     terms to be evaluated (factor= 1.000)


 Number of core orbitals:           6 (   3   0   3   0 )
 Number of closed-shell orbitals:  18 (   7   2   7   2 )
 Number of external orbitals:      80 (  28  12  28  12 )

 Molecular orbitals read from record     2100.2  Type=RHF/CANONICAL (state 1.1)

 Number of N-1 electron functions:              18
 Number of N-2 electron functions:             171
 Number of singly external CSFs:               440
 Number of doubly external CSFs:            272720
 Total number of CSFs:                      273161

 Length of J-op  integral file:               0.00 MB
 Length of K-op  integral file:               0.26 MB
 Length of 3-ext integral record:             0.00 MB

 Memory could be reduced to 3.82 Mwords without degradation in triples

 Integral transformation finished. Total CPU:   0.10 sec, npass=  1  Memory used:   1.67 MW

 Reference energy:                   -377.58631197

 MP2 singlet pair energy:              -0.59888702
 MP2 triplet pair energy:              -0.40677961
 MP2 correlation energy:               -1.00566663
 MP2 total energy:                   -378.59197860

 SCS-MP2 correlation energy:           -0.97177173   (PS=  1.200000  PT=  0.333333)
 SCS-MP2 total energy:               -378.55808371

 ITER.      SQ.NORM     CORR.ENERGY   TOTAL ENERGY   ENERGY CHANGE        DEN1      VAR(S)    VAR(P)  DIIS     TIME
   1      1.28140462    -1.02596150  -378.61227347    -0.02029487     0.01042100  0.10D-01  0.55D-02  1  1     0.37
   2      1.30504103    -1.02783917  -378.61415114    -0.00187767    -0.02502684  0.25D-03  0.10D-02  2  2     0.66
   3      1.31803426    -1.02878620  -378.61509817    -0.00094703    -0.00594081  0.20D-03  0.42D-04  3  3     0.95
   4      1.32336567    -1.02855268  -378.61486465     0.00023353    -0.00174789  0.18D-04  0.71D-05  4  4     1.24
   5      1.32542593    -1.02846311  -378.61477508     0.00008956    -0.00045737  0.11D-05  0.68D-06  5  5     1.53
   6      1.32576866    -1.02844275  -378.61475472     0.00002037    -0.00001555  0.10D-06  0.60D-07  6  6     1.82
   7      1.32583710    -1.02843516  -378.61474713     0.00000759    -0.00000446  0.78D-08  0.88D-08  6  2     2.12
   8      1.32584029    -1.02843601  -378.61474798    -0.00000085     0.00000208  0.15D-08  0.88D-09  6  1     2.41
   9      1.32584106    -1.02843568  -378.61474765     0.00000032     0.00000091  0.32D-09  0.15D-09  6  4     2.70
  10      1.32584285    -1.02843553  -378.61474750     0.00000015    -0.00000061  0.90D-10  0.25D-10  6  3     2.99
  11      1.32584234    -1.02843565  -378.61474762    -0.00000012     0.00000025  0.20D-10  0.52D-11  6  5     3.29
  12      1.32584199    -1.02843567  -378.61474764    -0.00000001     0.00000005  0.27D-11  0.11D-11  6  6     3.58
  13      1.32584167    -1.02843571  -378.61474768    -0.00000004     0.00000013  0.30D-12  0.20D-12  6  1     3.87
  14      1.32584156    -1.02843571  -378.61474768    -0.00000000     0.00000002  0.28D-13  0.23D-13  6  2     4.16
  15      1.32584152    -1.02843572  -378.61474769    -0.00000000     0.00000001  0.58D-14  0.28D-14  6  4     4.46
  16      1.32584151    -1.02843572  -378.61474769    -0.00000000     0.00000000  0.84D-15  0.59D-15  6  5     4.75
  17      1.32584151    -1.02843572  -378.61474769    -0.00000000    -0.00000000  0.92D-16  0.52D-16  6  3     5.05
  18      1.32584151    -1.02843572  -378.61474769    -0.00000000     0.00000000  0.26D-16  0.13D-16  6  5     5.33
  19      1.32584151    -1.02843572  -378.61474769    -0.00000000     0.00000000  0.35D-17  0.17D-17  6  6     5.63
  20      1.32584151    -1.02843572  -378.61474769     0.00000000     0.00000000  0.61D-18  0.29D-18  6  1     5.92
  21      1.32584151    -1.02843572  -378.61474769    -0.00000000     0.00000000  0.15D-18  0.46D-19  6  2     6.22
  22      1.32584151    -1.02843572  -378.61474769     0.00000000    -0.00000000  0.33D-19  0.85D-20  6  4     6.52
  23      1.32584151    -1.02843572  -378.61474769     0.00000000    -0.00000000  0.52D-20  0.22D-20  6  3     6.81
  24      1.32584151    -1.02843572  -378.61474769     0.00000000    -0.00000000  0.63D-21  0.50D-21  6  6     7.10
  25      1.32584151    -1.02843572  -378.61474769     0.00000000    -0.00000000  0.10D-21  0.51D-22  6  5     7.40

 Norm of t1 vector:      0.15232745      S-energy:     0.00000000      T1 diagnostic:  0.01795196
                                                                       D1 diagnostic:  0.06491648

 Singles amplitudes (print threshold =  0.500E-01):

         I         SYM. A    A   T(IA)

         8         2         1      0.05936538
        17         4         1      0.06119887


 Total CPU time for triples:      3.93 sec


 RESULTS
 =======

  Reference energy                   -377.586311970434
  CCSD singlet pair energy             -0.670686044374
  CCSD triplet pair energy             -0.357749672626
  CCSD correlation energy              -1.028435716999

  Triples (T) contribution             -0.031875061708
  Total correlation energy             -1.060310778707

  CCSD total energy                  -378.614747687433
  CCSD[T] energy                     -378.649903712706
  CCSD-T energy                      -378.645543767956
 !CCSD(T) total energy               -378.646622749141

 Timing summary (sec):

 STEP                 CPU(USER)    SYS     CPU(TOT)    WALL
 Transformation          0.10      0.03      0.13      0.15
 CCSD iterations         7.30      0.38      7.68      7.74
 Triples                 3.93      0.11      4.04      4.05

 Program statistics:

 Available memory in ccsd:               999998604
 Min. memory needed in ccsd:                781956
 Max. memory used in ccsd:                 1028476
 Max. memory used in cckext:               1140120 (25 integral passes)



 **********************************************************************************************************************************
 DATASETS  * FILE   NREC   LENGTH (MB)   RECORD NAMES
              1      20       52.00       500      610      700      900      950      970     1000      129      960     1100   
                                          VAR    BASINP    GEOM    SYMINP    ZMAT    AOBASIS   BASIS     P2S    ABASIS      S 
                                         1400     1410     1200     1210     1080     1600     1650     1300     1700     1380   
                                           T        V       H0       H01     AOSYM     SMH    MOLCAS    ERIS     OPER     JKOP   

              2       3        0.49       700     1000     2100   
                                         GEOM     BASIS     RHF  

 PROGRAMS   *        TOTAL   CCSD(T)       RHF       INT
 CPU TIMES  *        12.53     11.34      0.24      0.91
 REAL TIME  *        13.88 SEC
 DISK USED  *       143.18 MB      
 GA USED    *         0.00 MB       (max)       0.00 MB       (current)
 **********************************************************************************************************************************

        CCSD(T)         RHF-SCF 
   -378.64662275   -377.58631197
 **********************************************************************************************************************************
 Variable memory released
