
 Primary working directories    : /tmp/862144.427.gen4.q
 Secondary working directories  : /tmp/862144.427.gen4.q
 Wavefunction directory         : /home/vulcan/lo21740/wfu/
 Main file repository           : /tmp/862144.427.gen4.q/

 ARCHNAME  : Linux/x86_64
 FC        : /opt/intel/compilers_and_libraries_2016.1.150/linux/bin/intel64/ifort
 FCVERSION : 16.0.1
 BLASLIB   : -mkl
 id        : ccgc

 Nodes     nprocs
 n029         1
 ga_uses_ma=false, calling ma_init with nominal heap.
 GA-space will be limited to   8.0 MW (determined by -G option)

 Using customized tuning parameters: mindgm=10; mindgv=16; mindgc=4; mindgr=1; noblas=0; mincuda=1000; minvec=7
 default implementation of scratch files=df  

 ***,Optimization of formic acid
 memory,1000,m
 gthresh,energy=1.0d-12,orbital=1.0d-10,oneint=1.0d-16,twoint=1.0d-16,optgrad=1.0d-6,compress=1.0d-13
 geomtyp=xyz
 
 bohr
 geometry = {
  C   -3.4996091862   -0.8288694801   -0.0000000000
  O   -3.0938819323    1.6257380947   -0.0000000000
  O   -1.8796670716   -2.4816902984    0.0000000000
  H   -5.5230437851   -1.2742878561    0.0000000000
  H   -1.2418507584    1.9512533798   -0.0000000000
  C    3.4987853459    0.8322066930    0.0000000000
  O    3.0886490098   -1.6216817592   -0.0000000000
  O    1.8844523304    2.4802908380    0.0000000000
  H    5.5232535423    1.2738575229    0.0000000000
  H    1.2429125053   -1.9568171347   -0.0000000000
 }
 
 basis=VDZ
 {rhf;maxit,200}
 {ccsd(t);maxit,200}

 Variables initialized (661), CPU time= 0.00 sec
 Commands  initialized (458), CPU time= 0.00 sec, 486 directives.
 Default parameters read. Elapsed time= 0.06 sec

 Checking input...
 Passed
1


                                         ***  PROGRAM SYSTEM MOLPRO  ***
                         Copyright, University College Cardiff Consultants Limited, 2008

                                    Version 2010.1 linked May 16 2016 07:17:05


 **********************************************************************************************************************************
 LABEL *   Optimization of formic acid                                                   
 Linux-4.4.3/n029(x86_64) 64 bit mpp version                                             DATE: 26-Apr-23          TIME: 18:29:51  
 **********************************************************************************************************************************

 SHA1:             9e8077add272b0f3cad6f7df79ec5211205f459d
 **********************************************************************************************************************************

 THRESHOLDS:

 ZERO    =  1.00D-12  ONEINT  =  1.00D-16  TWOINT  =  1.00D-16  PREFAC  =  1.00D-14  LOCALI  =  1.00D-09  EORDER  =  1.00D-04
 ENERGY  =  1.00D-12  ETEST   =  0.00D+00  EDENS   =  0.00D+00  THRDEDEF=  1.00D-06  GRADIENT=  1.00D-02  STEP    =  1.00D-03
 ORBITAL =  1.00D-10  CIVEC   =  1.00D-05  COEFF   =  1.00D-04  PRINTCI =  5.00D-02  PUNCHCI =  9.90D+01  OPTGRAD =  1.00D-06
 OPTENERG=  1.00D-06  OPTSTEP =  3.00D-04  THRGRAD =  1.00D-10  COMPRESS=  1.00D-13  VARMIN  =  1.00D-07  VARMAX  =  1.00D-03
 THRDOUB =  0.00D+00  THRDIV  =  1.00D-05  THRRED  =  1.00D-07  THRPSP  =  1.00D+00  THRDC   =  1.00D-10  THRCS   =  1.00D-10
 THRNRM  =  1.00D-08  THREQ   =  0.00D+00  THRDE   =  1.00D+00  THRREF  =  1.00D-05  SPARFAC =  1.00D+00  THRDLP  =  1.00D-07
 THRDIA  =  1.00D-10  THRDLS  =  1.00D-07  THRGPS  =  0.00D+00  THRKEX  =  0.00D+00  THRDIS  =  2.00D-01  THRVAR  =  1.00D-10
 THRLOC  =  1.00D-06  THRGAP  =  1.00D-06  THRLOCT = -1.00D+00  THRGAPT = -1.00D+00  THRORB  =  1.00D-06  THRMLTP =  0.00D+00
 THRCPQCI=  1.00D-10  KEXTA   =  0.00D+00  THRCOARS=  0.00D+00  SYMTOL  =  1.00D-06  GRADTOL =  1.00D-06  THROVL  =  1.00D-08
 THRORTH =  1.00D-08  GRID    =  1.00D-06  GRIDMAX =  1.00D-03  DTMAX   =  0.00D+00

 SETTING GEOMTYP        =    XYZ
 ZUNIT=BOHR
 

 Variable memory set to 1000000000 words,  buffer space   230000 words

 SETTING BASIS          =    VDZ


 Recomputing integrals since basis changed


 Using spherical harmonics

 Library entry C      S cc-pVDZ              selected for orbital group  1
 Library entry C      P cc-pVDZ              selected for orbital group  1
 Library entry C      D cc-pVDZ              selected for orbital group  1
 Library entry O      S cc-pVDZ              selected for orbital group  2
 Library entry O      P cc-pVDZ              selected for orbital group  2
 Library entry O      D cc-pVDZ              selected for orbital group  2
 Library entry H      S cc-pVDZ              selected for orbital group  3
 Library entry H      P cc-pVDZ              selected for orbital group  3

1PROGRAM * SEWARD (Integral evaluation for generally contracted gaussian basis sets)     Author: Roland Lindh, 1990

 Geometry written to block  1 of record 700


 Point group  Cs  



 ATOMIC COORDINATES

 NR  ATOM    CHARGE       X              Y              Z

   1  C       6.00   -3.499609186   -0.828869480    0.000000000
   2  O       8.00   -3.093881932    1.625738095    0.000000000
   3  O       8.00   -1.879667072   -2.481690298    0.000000000
   4  H       1.00   -5.523043785   -1.274287856    0.000000000
   5  H       1.00   -1.241850758    1.951253380    0.000000000
   6  C       6.00    3.498785346    0.832206693    0.000000000
   7  O       8.00    3.088649010   -1.621681759    0.000000000
   8  O       8.00    1.884452330    2.480290838    0.000000000
   9  H       1.00    5.523253542    1.273857523    0.000000000
  10  H       1.00    1.242912505   -1.956817135    0.000000000

 Bond lengths in Bohr (Angstrom)

 1-2  2.487913373  1-3  2.314309640  1-4  2.071879607  2-5  1.880420078  6-7  2.487926918
     ( 1.316547055)     ( 1.224679916)     ( 1.096391468)     ( 0.995075449)     ( 1.316554223)

  6- 8  2.307000744   6- 9  2.072082753   7-10  1.875915500
       ( 1.220812215)       ( 1.096498968)       ( 0.992691729)

 Bond angles

  1-2-5  109.35423667   2-1-3  126.18990610   2-1-4  111.80019246   3-1-4  122.00990143

  6- 7-10  109.77978909   7- 6- 8  126.10417095   7- 6- 9  111.79518707   8- 6- 9  122.10064198

 NUCLEAR CHARGE:                   48
 NUMBER OF PRIMITIVE AOS:         190
 NUMBER OF SYMMETRY AOS:          184
 NUMBER OF CONTRACTIONS:          104   (  76A'  +  28A"  )
 NUMBER OF CORE ORBITALS:           6   (   6A'  +   0A"  )
 NUMBER OF VALENCE ORBITALS:       28   (  22A'  +   6A"  )


 NUCLEAR REPULSION ENERGY  235.54862691


 Eigenvalues of metric

         1 0.818E-02 0.870E-02 0.138E-01 0.141E-01 0.165E-01 0.167E-01 0.299E-01 0.306E-01
         2 0.115E+00 0.116E+00 0.174E+00 0.175E+00 0.191E+00 0.194E+00 0.420E+00 0.423E+00


 Contracted 2-electron integrals neglected if value below      1.0D-16
 AO integral compression algorithm  1   Integral accuracy      1.0D-16

     61.604 MB (compressed) written to integral file ( 88.7%)

     Node minimum: 61.604 MB, node maximum: 61.604 MB


 NUMBER OF SORTED TWO-ELECTRON INTEGRALS:    7928690.     BUFFER LENGTH:  32768
 NUMBER OF SEGMENTS:   1  SEGMENT LENGTH:    7928690      RECORD LENGTH: 524288

 Memory used in sort:       8.49 MW

 SORT1 READ     8707281. AND WROTE     7786289. INTEGRALS IN     23 RECORDS. CPU TIME:     0.12 SEC, REAL TIME:     0.16 SEC
 SORT2 READ     7786289. AND WROTE     7928690. INTEGRALS IN    235 RECORDS. CPU TIME:     0.10 SEC, REAL TIME:     0.15 SEC

 FILE SIZES:   FILE 1:    59.0 MBYTE,  FILE 4:    96.5 MBYTE,   TOTAL:    155.5 MBYTE

 OPERATOR DM      FOR CENTER  0  COORDINATES:    0.000000    0.000000    0.000000


 **********************************************************************************************************************************
 DATASETS  * FILE   NREC   LENGTH (MB)   RECORD NAMES
              1      19       59.11       500      610      700      900      950      970     1000      129      960     1100   
                                          VAR    BASINP    GEOM    SYMINP    ZMAT    AOBASIS   BASIS     P2S    ABASIS      S 
                                         1400     1410     1200     1210     1080     1600     1650     1300     1700   
                                           T        V       H0       H01     AOSYM     SMH    MOLCAS    ERIS     OPER   

 PROGRAMS   *        TOTAL       INT
 CPU TIMES  *         2.12      2.06
 REAL TIME  *         2.47 SEC
 DISK USED  *       217.93 MB      
 GA USED    *         0.00 MB       (max)       0.00 MB       (current)
 **********************************************************************************************************************************

1PROGRAM * RHF-SCF (CLOSED SHELL)       Authors: W. Meyer, H.-J. Werner


 NUMBER OF ELECTRONS:      24+   24-
 CONVERGENCE THRESHOLDS:    1.00E-10 (Density)    1.00E-13 (Energy)
 MAX. NUMBER OF ITERATIONS:      200
 INTERPOLATION TYPE:            DIIS
 INTERPOLATION STEPS:              2 (START)      1 (STEP)
 LEVEL SHIFTS:                  0.00 (CLOSED)  0.00 (OPEN) 



 Orbital guess generated from atomic densities. Full valence occupancy:   28   6

 Molecular orbital dump at record        2100.2

 Initial alpha occupancy:  20   4
 Initial beta  occupancy:  20   4
 Wave function symmetry:    1

 ITERATION    DDIFF          GRAD             ENERGY        2-EL.EN.            DIPOLE MOMENTS         DIIS
    1      0.000D+00      0.000D+00      -377.44930252    747.100054   -0.00659    0.01085    0.00000    0
    2      0.000D+00      0.142D-01      -377.53719113    744.246395   -0.00142    0.00166    0.00000    1
    3      0.279D-01      0.878D-02      -377.58414896    746.500688   -0.00500    0.00659    0.00000    2
    4      0.102D-01      0.124D-02      -377.58564068    746.219441   -0.00379    0.00478    0.00000    3
    5      0.198D-02      0.516D-03      -377.58590190    746.245634   -0.00437    0.00555    0.00000    4
    6      0.816D-03      0.148D-03      -377.58594809    746.289944   -0.00422    0.00525    0.00000    5
    7      0.283D-03      0.674D-04      -377.58595943    746.274752   -0.00430    0.00536    0.00000    6
    8      0.169D-03      0.200D-04      -377.58596044    746.279952   -0.00426    0.00528    0.00000    7
    9      0.527D-04      0.682D-05      -377.58596054    746.278523   -0.00430    0.00536    0.00000    8
   10      0.184D-04      0.194D-05      -377.58596055    746.278657   -0.00426    0.00528    0.00000    7
   11      0.521D-05      0.707D-06      -377.58596055    746.278650   -0.00429    0.00534    0.00000    8
   12      0.125D-05      0.320D-06      -377.58596055    746.278630   -0.00428    0.00532    0.00000    9
   13      0.584D-06      0.547D-07      -377.58596055    746.278637   -0.00428    0.00532    0.00000    8
   14      0.146D-06      0.224D-07      -377.58596055    746.278633   -0.00428    0.00532    0.00000    8
   15      0.345D-07      0.802D-08      -377.58596055    746.278634   -0.00428    0.00532    0.00000    8
   16      0.182D-07      0.231D-08      -377.58596055    746.278634   -0.00428    0.00532    0.00000    8
   17      0.515D-08      0.806D-09      -377.58596055    746.278634   -0.00428    0.00532    0.00000    8
   18      0.144D-08      0.175D-09      -377.58596055    746.278634   -0.00428    0.00532    0.00000    8
   19      0.398D-09      0.767D-10      -377.58596055    746.278634   -0.00428    0.00532    0.00000    7
   20      0.173D-09      0.275D-10      -377.58596055    746.278634   -0.00428    0.00532    0.00000    8
   21      0.541D-10      0.843D-11      -377.58596055    746.278634   -0.00428    0.00532    0.00000    8
   22      0.216D-10      0.367D-11      -377.58596055    746.278634   -0.00428    0.00532    0.00000    8
   23      0.102D-10      0.113D-11      -377.58596055    746.278634   -0.00428    0.00532    0.00000    8
   24      0.198D-11      0.444D-12      -377.58596055    746.278634   -0.00428    0.00532    0.00000    8
   25      0.949D-12      0.116D-12      -377.58596055    746.278634   -0.00428    0.00532    0.00000    0

 Final occupancy:  20   4

 !RHF STATE 1.1 Energy               -377.585960548617
 Nuclear energy                       235.54862691
 One-electron energy                 -986.27390451
 Two-electron energy                  373.13931705
 Virial quotient                       -1.00125372
 !RHF STATE 1.1 Dipole moment          -0.00428262     0.00532135     0.00000000
 Dipole moment /Debye                  -0.01088462     0.01352463     0.00000000

 Orbital energies:

         1.1          2.1          3.1          4.1          5.1          6.1          7.1          8.1          9.1         10.1
    -20.614374   -20.613038   -20.575586   -20.575516   -11.412872   -11.412157    -1.481994    -1.469153    -1.383499    -1.369329

        11.1         12.1         13.1         14.1         15.1         16.1         17.1         18.1         19.1         20.1
     -0.914406    -0.878321    -0.763325    -0.727741    -0.718947    -0.688699    -0.615062    -0.573579    -0.489480    -0.467736

        21.1         22.1
      0.203798     0.209439

         1.2          2.2          3.2          4.2          5.2          6.2
     -0.638245    -0.628597    -0.498369    -0.487610     0.160458     0.165714


 **********************************************************************************************************************************
 DATASETS  * FILE   NREC   LENGTH (MB)   RECORD NAMES
              1      19       59.11       500      610      700      900      950      970     1000      129      960     1100   
                                          VAR    BASINP    GEOM    SYMINP    ZMAT    AOBASIS   BASIS     P2S    ABASIS      S 
                                         1400     1410     1200     1210     1080     1600     1650     1300     1700   
                                           T        V       H0       H01     AOSYM     SMH    MOLCAS    ERIS     OPER   

              2       3        0.56       700     1000     2100   
                                         GEOM     BASIS     RHF  

 PROGRAMS   *        TOTAL       RHF       INT
 CPU TIMES  *         3.44      1.32      2.06
 REAL TIME  *         3.98 SEC
 DISK USED  *       217.93 MB      
 GA USED    *         0.00 MB       (max)       0.00 MB       (current)
 **********************************************************************************************************************************


1PROGRAM * CCSD (Closed-shell coupled cluster)     Authors: C. Hampel, H.-J. Werner, 1991, M. Deegan, P.J. Knowles, 1992


 Convergence thresholds:  THRVAR = 1.00D-08  THRDEN = 1.00D-12

 CCSD(T)     terms to be evaluated (factor= 1.000)


 Number of core orbitals:           6 (   6   0 )
 Number of closed-shell orbitals:  18 (  14   4 )
 Number of external orbitals:      80 (  56  24 )

 Molecular orbitals read from record     2100.2  Type=RHF/CANONICAL (state 1.1)

 Number of N-1 electron functions:              18
 Number of N-2 electron functions:             171
 Number of singly external CSFs:               880
 Number of doubly external CSFs:            544720
 Total number of CSFs:                      545601

 Length of J-op  integral file:               0.00 MB
 Length of K-op  integral file:               0.49 MB
 Length of 3-ext integral record:             0.00 MB

 Memory could be reduced to 7.20 Mwords without degradation in triples

 Integral transformation finished. Total CPU:   0.39 sec, npass=  1  Memory used:   4.51 MW

 Reference energy:                   -377.58596055

 MP2 singlet pair energy:              -0.59916816
 MP2 triplet pair energy:              -0.40695514
 MP2 correlation energy:               -1.00612330
 MP2 total energy:                   -378.59208385

 SCS-MP2 correlation energy:           -0.97221832   (PS=  1.200000  PT=  0.333333)
 SCS-MP2 total energy:               -378.55817887

 ITER.      SQ.NORM     CORR.ENERGY   TOTAL ENERGY   ENERGY CHANGE        DEN1      VAR(S)    VAR(P)  DIIS     TIME
   1      1.28172657    -1.02637183  -378.61233238    -0.02024853     0.01054629  0.10D-01  0.55D-02  1  1     1.71
   2      1.30542468    -1.02824527  -378.61420582    -0.00187344    -0.02507366  0.25D-03  0.10D-02  2  2     3.05
   3      1.31848144    -1.02919779  -378.61515834    -0.00095252    -0.00596375  0.20D-03  0.42D-04  3  3     4.40
   4      1.32383818    -1.02896325  -378.61492379     0.00023454    -0.00175430  0.18D-04  0.71D-05  4  4     5.75
   5      1.32591115    -1.02887338  -378.61483393     0.00008986    -0.00045966  0.11D-05  0.69D-06  5  5     7.10
   6      1.32625661    -1.02885285  -378.61481339     0.00002054    -0.00001573  0.10D-06  0.60D-07  6  6     8.44
   7      1.32632565    -1.02884519  -378.61480573     0.00000766    -0.00000449  0.79D-08  0.89D-08  6  2     9.79
   8      1.32632888    -1.02884604  -378.61480659    -0.00000085     0.00000209  0.16D-08  0.89D-09  6  1    11.13
   9      1.32632966    -1.02884571  -378.61480626     0.00000033     0.00000091  0.32D-09  0.16D-09  6  4    12.47
  10      1.32633146    -1.02884556  -378.61480610     0.00000016    -0.00000062  0.91D-10  0.25D-10  6  3    13.81
  11      1.32633094    -1.02884568  -378.61480623    -0.00000012     0.00000025  0.21D-10  0.53D-11  6  5    15.16
  12      1.32633059    -1.02884570  -378.61480624    -0.00000002     0.00000005  0.27D-11  0.11D-11  6  6    16.50
  13      1.32633026    -1.02884574  -378.61480629    -0.00000004     0.00000013  0.30D-12  0.20D-12  6  1    17.86
  14      1.32633015    -1.02884574  -378.61480629    -0.00000000     0.00000002  0.29D-13  0.23D-13  6  2    19.20
  15      1.32633012    -1.02884574  -378.61480629    -0.00000000     0.00000001  0.59D-14  0.29D-14  6  4    20.55
  16      1.32633011    -1.02884575  -378.61480629    -0.00000000     0.00000000  0.87D-15  0.61D-15  6  5    21.90
  17      1.32633010    -1.02884575  -378.61480629    -0.00000000    -0.00000000  0.96D-16  0.54D-16  6  3    23.24
  18      1.32633010    -1.02884575  -378.61480629    -0.00000000     0.00000000  0.27D-16  0.14D-16  6  5    24.59
  19      1.32633010    -1.02884575  -378.61480629    -0.00000000     0.00000000  0.18D-17  0.17D-17  6  1    25.94
  20      1.32633010    -1.02884575  -378.61480629    -0.00000000     0.00000000  0.17D-18  0.15D-18  6  6    27.28
  21      1.32633010    -1.02884575  -378.61480629    -0.00000000     0.00000000  0.37D-19  0.17D-19  6  2    28.63
  22      1.32633010    -1.02884575  -378.61480629     0.00000000    -0.00000000  0.64D-20  0.28D-20  6  5    29.98
  23      1.32633010    -1.02884575  -378.61480629     0.00000000    -0.00000000  0.11D-20  0.43D-21  6  4    31.33
  24      1.32633010    -1.02884575  -378.61480629     0.00000000    -0.00000000  0.21D-21  0.85D-22  6  3    32.68
  25      1.32633010    -1.02884575  -378.61480629     0.00000000    -0.00000000  0.29D-22  0.12D-22  6  1    34.02

 Norm of t1 vector:      0.15265118      S-energy:     0.00000000      T1 diagnostic:  0.01799011
                                                                       D1 diagnostic:  0.06512030

 Singles amplitudes (print threshold =  0.500E-01):

         I         SYM. A    A   T(IA)

        15         2         1      0.05898482
        16         2         2     -0.06077567


 Total CPU time for triples:     15.43 sec


 RESULTS
 =======

  Reference energy                   -377.585960548617
  CCSD singlet pair energy             -0.671015854623
  CCSD triplet pair energy             -0.357829891126
  CCSD correlation energy              -1.028845745748

  Triples (T) contribution             -0.031940704468
  Total correlation energy             -1.060786450216

  CCSD total energy                  -378.614806294365
  CCSD[T] energy                     -378.650041839583
  CCSD-T energy                      -378.645664019245
 !CCSD(T) total energy               -378.646746998833

 Timing summary (sec):

 STEP                 CPU(USER)    SYS     CPU(TOT)    WALL
 Transformation          0.43      0.05      0.48      0.48
 CCSD iterations        33.60      0.88     34.48     34.79
 Triples                15.43      0.35     15.78     15.79

 Program statistics:

 Available memory in ccsd:               999998604
 Min. memory needed in ccsd:               1529844
 Max. memory used in ccsd:                 2011076
 Max. memory used in cckext:               2263698 (25 integral passes)



 **********************************************************************************************************************************
 DATASETS  * FILE   NREC   LENGTH (MB)   RECORD NAMES
              1      20       91.01       500      610      700      900      950      970     1000      129      960     1100   
                                          VAR    BASINP    GEOM    SYMINP    ZMAT    AOBASIS   BASIS     P2S    ABASIS      S 
                                         1400     1410     1200     1210     1080     1600     1650     1300     1700     1380   
                                           T        V       H0       H01     AOSYM     SMH    MOLCAS    ERIS     OPER     JKOP   

              2       3        0.56       700     1000     2100   
                                         GEOM     BASIS     RHF  

 PROGRAMS   *        TOTAL   CCSD(T)       RHF       INT
 CPU TIMES  *        52.92     49.48      1.32      2.06
 REAL TIME  *        55.07 SEC
 DISK USED  *       250.55 MB      
 GA USED    *         0.00 MB       (max)       0.00 MB       (current)
 **********************************************************************************************************************************

        CCSD(T)         RHF-SCF 
   -378.64674700   -377.58596055
 **********************************************************************************************************************************
 Variable memory released
