
    -----------------------------------------------------------------------
          Psi4: An Open-Source Ab Initio Electronic Structure Package
                               Psi4 1.4a2.dev629 

                         Git: Rev {master} 2938fc2 dirty


    D. G. A. Smith, L. A. Burns, A. C. Simmonett, R. M. Parrish,
    M. C. Schieber, R. Galvelis, P. Kraus, H. Kruse, R. Di Remigio,
    A. Alenaizan, A. M. James, S. Lehtola, J. P. Misiewicz, M. Scheurer,
    R. A. Shaw, J. B. Schriber, Y. Xie, Z. L. Glick, D. A. Sirianni,
    J. S. O'Brien, J. M. Waldrop, A. Kumar, E. G. Hohenstein,
    B. P. Pritchard, B. R. Brooks, H. F. Schaefer III, A. Yu. Sokolov,
    K. Patkowski, A. E. DePrince III, U. Bozkaya, R. A. King,
    F. A. Evangelista, J. M. Turney, T. D. Crawford, C. D. Sherrill,
    J. Chem. Phys. 152(18) 184108 (2020). https://doi.org/10.1063/5.0006002

                            Additional Code Authors
    E. T. Seidl, C. L. Janssen, E. F. Valeev, M. L. Leininger,
    J. F. Gonthier, R. M. Richard, H. R. McAlexander, M. Saitow, X. Wang,
    P. Verma, and M. H. Lechner

             Previous Authors, Complete List of Code Contributors,
                       and Citations for Specific Modules
    https://github.com/psi4/psi4/blob/master/codemeta.json
    https://github.com/psi4/psi4/graphs/contributors
    http://psicode.org/psi4manual/master/introduction.html#citing-psifour

    -----------------------------------------------------------------------


    Psi4 started on: Tuesday, 16 November 2021 09:56AM

    Process ID: 24720
    Host:       n090
    PSIDATADIR: /opt/psi/4/master/share/psi4
    Memory:     500.0 MiB
    Threads:    4
    
  ==> Input File <==

--------------------------------------------------------------------------
import os
memory 14 GB 
 
molecule {
 C    0.0000000000   -0.0059657777   -2.6767485213
 C   -0.0000000000    2.2622413046   -1.3234779536
 C    0.0000000000   -2.2651692382   -1.3300741383
 C   -0.0000000000    2.1622803901    1.3122385781
 C    0.0000000000   -2.1531115914    1.3087953496
 N   -0.0000000000    0.0003785901    2.6431832877
 H    0.0000000000   -0.0037173245   -4.7232123061
 H   -0.0000000000    4.0690616164   -2.2742912001
 H    0.0000000000   -4.0748957902   -2.2901398135
 H   -0.0000000000    3.8916159487    2.4103371406
 H   -0.0000000000   -3.8827181279    2.4107757770
units bohr
}

basis {

assign 6-31g_2dfp_

[ 6-31g_2dfp_ ]

spherical

!----------------------------------------------------------------------
! Basis Set Exchange
! Version v0.8.13
! https://www.basissetexchange.org
!----------------------------------------------------------------------
!   Basis set: 6-31G(2df,p)
! Description: 6-31G(2df,p)
!        Role: orbital
!     Version: 0  (Data from the original Basis Set Exchange)
!----------------------------------------------------------------------


****
H     0
S    3   1.00
     18.7311370              0.03349460
      2.8253937              0.23472695
      0.6401217              0.81375733
S    1   1.00
      0.1612778              1.00000000
P    1   1.00
      1.5000000              1.0000000
P    1   1.00
      0.3750000              1.0000000
****
B     0
S    6   1.00
   2068.8823000              0.0018663
    310.6495700              0.0142515
     70.6830330              0.0695516
     19.8610800              0.2325729
      6.2993048              0.4670787
      2.1270270              0.3634314
SP   3   1.00
      4.7279710             -0.1303938              0.0745976
      1.1903377             -0.1307889              0.3078467
      0.3594117              1.1309444              0.7434568
SP   1   1.00
      0.1267512              1.0000000              1.0000000
D    1   1.00
      0.8020000              1.0000000
D    1   1.00
      0.2005000              1.0000000
F    1   1.00
      0.5000000              1.0000000
****
C     0
S    6   1.00
   3047.5249000              0.0018347
    457.3695100              0.0140373
    103.9486900              0.0688426
     29.2101550              0.2321844
      9.2866630              0.4679413
      3.1639270              0.3623120
SP   3   1.00
      7.8682724             -0.1193324              0.0689991
      1.8812885             -0.1608542              0.3164240
      0.5442493              1.1434564              0.7443083
SP   1   1.00
      0.1687144              1.0000000              1.0000000
D    1   1.00
      1.2520000              1.0000000
D    1   1.00
      0.3130000              1.0000000
F    1   1.00
      0.8000000              1.0000000
****
N     0
S    6   1.00
   4173.5110000              0.0018348
    627.4579000              0.0139950
    142.9021000              0.0685870
     40.2343300              0.2322410
     12.8202100              0.4690700
      4.3904370              0.3604550
SP   3   1.00
     11.6263580             -0.1149610              0.0675800
      2.7162800             -0.1691180              0.3239070
      0.7722180              1.1458520              0.7408950
SP   1   1.00
      0.2120313              1.0000000              1.0000000
D    1   1.00
      1.8260000              1.0000000
D    1   1.00
      0.4565000              1.0000000
F    1   1.00
      1.0000000              1.0000000
****
O     0
S    6   1.00
   5484.6717000              0.0018311
    825.2349500              0.0139501
    188.0469600              0.0684451
     52.9645000              0.2327143
     16.8975700              0.4701930
      5.7996353              0.3585209
SP   3   1.00
     15.5396160             -0.1107775              0.0708743
      3.5999336             -0.1480263              0.3397528
      1.0137618              1.1307670              0.7271586
SP   1   1.00
      0.2700058              1.0000000              1.0000000
D    1   1.00
      2.5840000              1.0000000
D    1   1.00
      0.6460000              1.0000000
F    1   1.00
      1.4000000              1.0000000
****
F     0
S    6   1.00
   7001.7130900              0.0018196169
   1051.3660900              0.0139160796
    239.2856900              0.0684053245
     67.3974453              0.233185760
     21.5199573              0.471267439
      7.40310130             0.356618546
SP   3   1.00
     20.8479528             -0.108506975            0.0716287243
      4.80830834            -0.146451658            0.3459121030
      1.34406986             1.128688580            0.7224699570
SP   1   1.00
      0.358151393            1.0000000              1.0000000
D    1   1.00
      3.5000000              1.0000000
D    1   1.00
      0.8750000              1.0000000
F    1   1.00
      1.8500000              1.0000000
****
Al     0
S    6   1.00
  13983.1000000              0.00194267
   2098.7500000              0.0148599
    477.7050000              0.0728494
    134.3600000              0.2468300
     42.8709000              0.4872580
     14.5189000              0.3234960
SP   6   1.00
    239.6680000             -0.00292619             0.00460285
     57.4419000             -0.0374080              0.0331990
     18.2859000             -0.1144870              0.1362820
      6.5991400              0.1156350              0.3304760
      2.4904900              0.6125950              0.4491460
      0.9445400              0.3937990              0.2657040
SP   3   1.00
      1.2779000             -0.2276060             -0.0175130
      0.3975900              0.00144583             0.2445330
      0.1600950              1.0927900              0.8049340
SP   1   1.00
      0.0556577              1.0000000              1.0000000
D    1   1.00
      0.6500000              1.0000000
D    1   1.00
      0.1625000              1.0000000
F    1   1.00
      0.2500000              1.0000000
****
Si     0
S    6   1.00
  16115.9000000              0.00195948
   2425.5800000              0.01492880
    553.8670000              0.07284780
    156.3400000              0.24613000
     50.0683000              0.48591400
     17.0178000              0.32500200
SP   6   1.00
    292.7180000             -0.00278094             0.00443826
     69.8731000             -0.03571460             0.03266790
     22.3363000             -0.11498500             0.13472100
      8.1503900              0.09356340             0.32867800
      3.1345800              0.60301700             0.44964000
      1.2254300              0.41895900             0.26137200
SP   3   1.00
      1.7273800             -0.24463000            -0.01779510
      0.5729220              0.00431572             0.25353900
      0.2221920              1.09818000             0.80066900
SP   1   1.00
      0.0778369              1.00000000             1.00000000
D    1   1.00
      0.9000000              1.0000000
D    1   1.00
      0.2250000              1.0000000
F    1   1.00
      0.3200000              1.0000000
****
P     0
S    6   1.00
  19413.3000000              0.0018516
   2909.4200000              0.0142062
    661.3640000              0.0699995
    185.7590000              0.2400790
     59.1943000              0.4847620
     20.0310000              0.3352000
SP   6   1.00
    339.4780000             -0.00278217             0.00456462
     81.0101000             -0.0360499              0.03369360
     25.8780000             -0.1166310              0.13975500
      9.4522100              0.0968328              0.33936200
      3.6656600              0.6144180              0.45092100
      1.4674600              0.4037980              0.23858600
SP   3   1.00
      2.1562300             -0.2529230             -0.01776530
      0.7489970              0.0328517              0.27405800
      0.2831450              1.0812500              0.78542100
SP   1   1.00
      0.0998317              1.0000000              1.00000000
D    1   1.00
      1.1000000              1.0000000
D    1   1.00
      0.2750000              1.0000000
F    1   1.00
      0.4500000              1.0000000
****
S     0
S    6   1.00
  21917.1000000              0.0018690
   3301.4900000              0.0142300
    754.1460000              0.0696960
    212.7110000              0.2384870
     67.9896000              0.4833070
     23.0515000              0.3380740
SP   6   1.00
    423.7350000             -0.0023767              0.0040610
    100.7100000             -0.0316930              0.0306810
     32.1599000             -0.1133170              0.1304520
     11.8079000              0.0560900              0.3272050
      4.6311000              0.5922550              0.4528510
      1.8702500              0.4550060              0.2560420
SP   3   1.00
      2.6158400             -0.2503740             -0.0145110
      0.9221670              0.0669570              0.3102630
      0.3412870              1.0545100              0.7544830
SP   1   1.00
      0.1171670              1.0000000              1.0000000
D    1   1.00
      1.3000000              1.0000000
D    1   1.00
      0.3250000              1.0000000
F    1   1.00
      0.5500000              1.0000000
****
Cl     0
S    6   1.00
  25180.1000000              0.0018330
   3780.3500000              0.0140340
    860.4740000              0.0690970
    242.1450000              0.2374520
     77.3349000              0.4830340
     26.2470000              0.3398560
SP   6   1.00
    491.7650000             -0.0022974              0.0039894
    116.9840000             -0.0307140              0.0303180
     37.4153000             -0.1125280              0.1298800
     13.7834000              0.0450160              0.3279510
      5.4521500              0.5893530              0.4535270
      2.2258800              0.4652060              0.2521540
SP   3   1.00
      3.1864900             -0.2518300             -0.0142990
      1.1442700              0.0615890              0.3235720
      0.4203770              1.0601800              0.7435070
SP   1   1.00
      0.1426570              1.0000000              1.0000000
D    1   1.00
      1.5000000              1.0000000
D    1   1.00
      0.3750000              1.0000000
F    1   1.00
      0.7000000              1.0000000
****
}


set {
reference rhf                          
freeze_core true
e_convergence 10                       
d_convergence 10                      
dft_spherical_points 1202
dft_radial_points 99
}

e = energy('b3lyp')

print_out('Grab this energy {0}'.format(e))
--------------------------------------------------------------------------

  Memory set to  13.039 GiB by Python driver.

Scratch directory: /tmp/

*** tstart() called on n090
*** at Tue Nov 16 09:56:17 2021

   => Loading Basis Set <=

    Name: ANONYMOUS191A1E7C
    Role: ORBITAL
    Keyword: BASIS
    atoms 1-5  entry C          line    48 inputblock 6-31g_2dfp_ 
    atoms 6    entry N          line    69 inputblock 6-31g_2dfp_ 
    atoms 7-11 entry H          line    15 inputblock 6-31g_2dfp_ 


         ---------------------------------------------------------
                                   SCF
               by Justin Turney, Rob Parrish, Andy Simmonett
                          and Daniel G. A. Smith
                              RKS Reference
                        4 Threads,  13351 MiB Core
         ---------------------------------------------------------

  ==> Geometry <==

    Molecular point group: cs
    Full point group: Cs

    Geometry (in Bohr), charge = 0, multiplicity = 1:

       Center              X                  Y                   Z               Mass       
    ------------   -----------------  -----------------  -----------------  -----------------
         C            0.006066276946     2.676748645442     0.000000000000    12.000000000000
         C           -2.262140805354     1.323478077742     0.000000000000    12.000000000000
         C            2.265269737446     1.330074262442     0.000000000000    12.000000000000
         C           -2.162179890854    -1.312238453958     0.000000000000    12.000000000000
         C            2.153212090646    -1.308795225458     0.000000000000    12.000000000000
         N           -0.000278090854    -2.643183163558     0.000000000000    14.003074004430
         H            0.003817823746     4.723212430242     0.000000000000     1.007825032230
         H           -4.068961117154     2.274291324242     0.000000000000     1.007825032230
         H            4.074996289446     2.290139937642     0.000000000000     1.007825032230
         H           -3.891515449454    -2.410337016458     0.000000000000     1.007825032230
         H            3.882818627146    -2.410775652858     0.000000000000     1.007825032230

  Running in cs symmetry.

  Rotational constants: A =      0.20164  B =      0.19294  C =      0.09860 [cm^-1]
  Rotational constants: A =   6044.93926  B =   5784.08781  C =   2955.81871 [MHz]
  Nuclear repulsion =  205.780538304511424

  Charge       = 0
  Multiplicity = 1
  Electrons    = 42
  Nalpha       = 21
  Nbeta        = 21

  ==> Algorithm <==

  SCF Algorithm Type is DF.
  DIIS enabled.
  MOM disabled.
  Fractional occupation disabled.
  Guess Type is SAD.
  Energy threshold   = 1.00e-10
  Density threshold  = 1.00e-10
  Integral threshold = 0.00e+00

  ==> Primary Basis <==

  Basis Set: ANONYMOUS191A1E7C
    Blend: 6-31G_2DFP_
    Number of shells: 68
    Number of basis function: 196
    Number of Cartesian functions: 226
    Spherical Harmonics?: true
    Max angular momentum: 3

  ==> DFT Potential <==

   => Composite Functional: B3LYP <= 

    B3LYP Hyb-GGA Exchange-Correlation Functional

    P. J. Stephens, F. J. Devlin, C. F. Chabalowski, and M. J. Frisch, J. Phys. Chem. 98, 11623 (1994)

    Deriv               =              1
    GGA                 =           TRUE
    Meta                =          FALSE

    Exchange Hybrid     =           TRUE
    MP2 Hybrid          =          FALSE

   => Exchange Functionals <=

    0.0800   Slater exchange
    0.7200         Becke 88

   => Exact (HF) Exchange <=

    0.2000               HF 

   => Correlation Functionals <=

    0.1900   Vosko, Wilk & Nusair (VWN5_RPA)
    0.8100   Lee, Yang & Parr

   => Molecular Quadrature <=

    Radial Scheme          =       TREUTLER
    Pruning Scheme         =           NONE
    Nuclear Scheme         =       TREUTLER

    BS radius alpha        =              1
    Pruning alpha          =              1
    Radial Points          =             99
    Spherical Points       =           1202
    Total Points           =        1210687
    Total Blocks           =           8090
    Max Points             =            256
    Max Functions          =            193
    Weights Tolerance      =       1.00E-15

   => Loading Basis Set <=

    Name: (ANONYMOUS191A1E7C AUX)
    Role: JKFIT
    Keyword: DF_BASIS_SCF
    atoms 1-5  entry C          line   198 file /opt/psi/4/master/share/psi4/basis/def2-universal-jkfit.gbs 
    atoms 6    entry N          line   258 file /opt/psi/4/master/share/psi4/basis/def2-universal-jkfit.gbs 
    atoms 7-11 entry H          line    18 file /opt/psi/4/master/share/psi4/basis/def2-universal-jkfit.gbs 

  ==> Integral Setup <==

  DFHelper Memory: AOs need 0.164 GiB; user supplied 4.356 GiB. Using in-core AOs.

  ==> MemDFJK: Density-Fitted J/K Matrices <==

    J tasked:                   Yes
    K tasked:                   Yes
    wK tasked:                   No
    OpenMP threads:               4
    Memory [MiB]:              4460
    Algorithm:                 Core
    Schwarz Cutoff:           1E-12
    Mask sparsity (%):       1.3744
    Fitting Condition:        1E-10

   => Auxiliary Basis Set <=

  Basis Set: (ANONYMOUS191A1E7C AUX)
    Blend: DEF2-UNIVERSAL-JKFIT
    Number of shells: 180
    Number of basis function: 542
    Number of Cartesian functions: 638
    Spherical Harmonics?: true
    Max angular momentum: 4

  Cached 100.0% of DFT collocation blocks in 5.423 [GiB].

  Minimum eigenvalue in the overlap matrix is 1.6207703717E-04.
  Reciprocal condition number of the overlap matrix is 2.6952225984E-05.
    Using symmetric orthogonalization.

  ==> Pre-Iterations <==

  SCF Guess: Superposition of Atomic Densities via on-the-fly atomic UHF (no occupation information).

   -------------------------
    Irrep   Nso     Nmo    
   -------------------------
     A'       132     132 
     A"        64      64 
   -------------------------
    Total     196     196
   -------------------------

  ==> Iterations <==

                           Total Energy        Delta E     RMS |[F,P]|

   @DF-RKS iter SAD:  -247.80470040842505   -2.47805e+02   0.00000e+00 
   @DF-RKS iter   1:  -248.01815853646866   -2.13458e-01   4.80814e-03 DIIS
   @DF-RKS iter   2:  -247.95782172203673    6.03368e-02   5.47559e-03 DIIS
   @DF-RKS iter   3:  -248.29143390505232   -3.33612e-01   8.36871e-04 DIIS
   @DF-RKS iter   4:  -248.29616484334554   -4.73094e-03   4.58379e-04 DIIS
   @DF-RKS iter   5:  -248.29822823750075   -2.06339e-03   1.00019e-04 DIIS
   @DF-RKS iter   6:  -248.29831657807208   -8.83406e-05   5.01161e-05 DIIS
   @DF-RKS iter   7:  -248.29834632116757   -2.97431e-05   2.98522e-06 DIIS
   @DF-RKS iter   8:  -248.29834640662779   -8.54602e-08   1.12830e-06 DIIS
   @DF-RKS iter   9:  -248.29834641882729   -1.21995e-08   2.42220e-07 DIIS
   @DF-RKS iter  10:  -248.29834641947147   -6.44178e-10   6.39485e-08 DIIS
   @DF-RKS iter  11:  -248.29834641949344   -2.19700e-11   4.42682e-08 DIIS
   @DF-RKS iter  12:  -248.29834641951700   -2.35616e-11   4.44657e-09 DIIS
   @DF-RKS iter  13:  -248.29834641951655    4.54747e-13   7.31430e-10 DIIS
   @DF-RKS iter  14:  -248.29834641951666   -1.13687e-13   3.68623e-10 DIIS
   @DF-RKS iter  15:  -248.29834641951703   -3.69482e-13   7.54152e-11 DIIS
  Energy and wave function converged.


  ==> Post-Iterations <==

    Orbital Energies [Eh]
    ---------------------

    Doubly Occupied:                                                      

       1Ap   -14.326762     2Ap   -10.215568     3Ap   -10.215430  
       4Ap   -10.202655     5Ap   -10.192347     6Ap   -10.192139  
       7Ap    -0.934861     8Ap    -0.801377     9Ap    -0.757800  
      10Ap    -0.626141    11Ap    -0.625750    12Ap    -0.525941  
      13Ap    -0.475245    14Ap    -0.469602    15Ap    -0.425865  
      16Ap    -0.401770     1App   -0.394312    17Ap    -0.361373  
       2App   -0.286059     3App   -0.261391    18Ap    -0.253618  

    Virtual:                                                              

       4App   -0.024688     5App   -0.010769    19Ap     0.087572  
      20Ap     0.124821    21Ap     0.139300     6App    0.142040  
      22Ap     0.160827    23Ap     0.166580    24Ap     0.224959  
      25Ap     0.278559    26Ap     0.301251    27Ap     0.302725  
      28Ap     0.354673    29Ap     0.406445     7App    0.422104  
      30Ap     0.430767    31Ap     0.453624    32Ap     0.459305  
      33Ap     0.461033     8App    0.489744    34Ap     0.499267  
       9App    0.508901    10App    0.521982    35Ap     0.523790  
      36Ap     0.565241    37Ap     0.596687    11App    0.602581  
      12App    0.629925    38Ap     0.631272    39Ap     0.655120  
      13App    0.655950    40Ap     0.681693    41Ap     0.701969  
      14App    0.703510    15App    0.713205    42Ap     0.722352  
      43Ap     0.738932    44Ap     0.758163    16App    0.785312  
      17App    0.807051    18App    0.831046    45Ap     0.866986  
      46Ap     0.894451    47Ap     0.915293    48Ap     0.950082  
      19App    0.966330    49Ap     0.988509    50Ap     1.037434  
      20App    1.048763    21App    1.054138    51Ap     1.073784  
      52Ap     1.105672    22App    1.113110    23App    1.137970  
      53Ap     1.179406    54Ap     1.191328    55Ap     1.221005  
      56Ap     1.272832    24App    1.281201    57Ap     1.315559  
      58Ap     1.347034    25App    1.364968    59Ap     1.375196  
      26App    1.384679    60Ap     1.392099    27App    1.400288  
      61Ap     1.425345    62Ap     1.432688    63Ap     1.499969  
      64Ap     1.525767    65Ap     1.547793    66Ap     1.617894  
      67Ap     1.629001    28App    1.676920    68Ap     1.715210  
      29App    1.751556    69Ap     1.757656    70Ap     1.858787  
      71Ap     1.977938    72Ap     2.024248    73Ap     2.168817  
      74Ap     2.250256    75Ap     2.325393    76Ap     2.355281  
      77Ap     2.366301    78Ap     2.404808    30App    2.512854  
      79Ap     2.618567    31App    2.646383    80Ap     2.762599  
      81Ap     2.763274    32App    2.796912    33App    2.809953  
      34App    2.837315    35App    2.860849    82Ap     2.887422  
      36App    2.902927    83Ap     2.928705    84Ap     2.963871  
      85Ap     3.026592    37App    3.047713    38App    3.070304  
      86Ap     3.070396    39App    3.108159    87Ap     3.147083  
      40App    3.153466    88Ap     3.168927    41App    3.181292  
      89Ap     3.192226    90Ap     3.216845    42App    3.234639  
      91Ap     3.270725    43App    3.280953    92Ap     3.302175  
      93Ap     3.324095    94Ap     3.355578    44App    3.356181  
      45App    3.358273    95Ap     3.389105    46App    3.412667  
      96Ap     3.474423    97Ap     3.532392    98Ap     3.557100  
      99Ap     3.583390    47App    3.630590    48App    3.649376  
     100Ap     3.656535   101Ap     3.687698    49App    3.718158  
      50App    3.725625   102Ap     3.760046   103Ap     3.779981  
      51App    3.927208   104Ap     3.929548   105Ap     3.936404  
      52App    3.947976    53App    3.967054   106Ap     4.018744  
      54App    4.058251   107Ap     4.086234    55App    4.093906  
     108Ap     4.094587    56App    4.107733   109Ap     4.159865  
     110Ap     4.177595   111Ap     4.237451    57App    4.349667  
      58App    4.358726   112Ap     4.422484    59App    4.430065  
     113Ap     4.437044   114Ap     4.454366   115Ap     4.495391  
      60App    4.529841   116Ap     4.666368   117Ap     4.799831  
      61App    4.836727   118Ap     4.840779   119Ap     4.851335  
     120Ap     4.905874    62App    4.976937   121Ap     4.996306  
     122Ap     5.068345   123Ap     5.117509    63App    5.174536  
      64App    5.203575   124Ap     5.224951   125Ap     5.384507  
     126Ap     5.435262   127Ap     5.451125   128Ap     5.642650  
     129Ap     5.672448   130Ap     5.928498   131Ap     5.949013  
     132Ap     6.214788  

    Final Occupation by Irrep:
             Ap   App 
    DOCC [    18,    3 ]

  @DF-RKS Final Energy:  -248.29834641951703

   => Energetics <=

    Nuclear Repulsion Energy =            205.7805383045114240
    One-Electron Energy =                -741.3663812195081846
    Two-Electron Energy =                 316.3508288562605912
    DFT Exchange-Correlation Energy =     -29.0633323607808585
    Empirical Dispersion Energy =           0.0000000000000000
    VV10 Nonlocal Energy =                  0.0000000000000000
    Total Energy =                       -248.2983464195170313

Computation Completed


Properties will be evaluated at   0.000000,   0.000000,   0.000000 [a0]

Properties computed using the SCF density matrix

  Nuclear Dipole Moment: [e a0]
     X:     0.0006      Y:     2.2199      Z:     0.0000

  Electronic Dipole Moment: [e a0]
     X:    -0.0019      Y:    -1.3809      Z:     0.0000

  Dipole Moment: [e a0]
     X:    -0.0013      Y:     0.8389      Z:     0.0000     Total:     0.8389

  Dipole Moment: [D]
     X:    -0.0033      Y:     2.1323      Z:     0.0000     Total:     2.1323


*** tstop() called on n090 at Tue Nov 16 09:56:53 2021
Module time:
	user time   =     138.35 seconds =       2.31 minutes
	system time =       1.75 seconds =       0.03 minutes
	total time  =         36 seconds =       0.60 minutes
Total time:
	user time   =     138.35 seconds =       2.31 minutes
	system time =       1.75 seconds =       0.03 minutes
	total time  =         36 seconds =       0.60 minutes
Grab this energy -248.29834641951703
    Psi4 stopped on: Tuesday, 16 November 2021 09:56AM
    Psi4 wall time for execution: 0:00:35.65

*** Psi4 exiting successfully. Buy a developer a beer!
