
    -----------------------------------------------------------------------
          Psi4: An Open-Source Ab Initio Electronic Structure Package
                               Psi4 1.4a2.dev629 

                         Git: Rev {master} 2938fc2 dirty


    D. G. A. Smith, L. A. Burns, A. C. Simmonett, R. M. Parrish,
    M. C. Schieber, R. Galvelis, P. Kraus, H. Kruse, R. Di Remigio,
    A. Alenaizan, A. M. James, S. Lehtola, J. P. Misiewicz, M. Scheurer,
    R. A. Shaw, J. B. Schriber, Y. Xie, Z. L. Glick, D. A. Sirianni,
    J. S. O'Brien, J. M. Waldrop, A. Kumar, E. G. Hohenstein,
    B. P. Pritchard, B. R. Brooks, H. F. Schaefer III, A. Yu. Sokolov,
    K. Patkowski, A. E. DePrince III, U. Bozkaya, R. A. King,
    F. A. Evangelista, J. M. Turney, T. D. Crawford, C. D. Sherrill,
    J. Chem. Phys. 152(18) 184108 (2020). https://doi.org/10.1063/5.0006002

                            Additional Code Authors
    E. T. Seidl, C. L. Janssen, E. F. Valeev, M. L. Leininger,
    J. F. Gonthier, R. M. Richard, H. R. McAlexander, M. Saitow, X. Wang,
    P. Verma, and M. H. Lechner

             Previous Authors, Complete List of Code Contributors,
                       and Citations for Specific Modules
    https://github.com/psi4/psi4/blob/master/codemeta.json
    https://github.com/psi4/psi4/graphs/contributors
    http://psicode.org/psi4manual/master/introduction.html#citing-psifour

    -----------------------------------------------------------------------


    Psi4 started on: Tuesday, 16 November 2021 09:47AM

    Process ID: 275955
    Host:       n070
    PSIDATADIR: /opt/psi/4/master/share/psi4
    Memory:     500.0 MiB
    Threads:    4
    
  ==> Input File <==

--------------------------------------------------------------------------
import os
memory 14 GB 
 
molecule {
 C    0.0000000000   -0.0000000000   -2.6767717583
 C   -0.0000000000    2.2657155948   -1.3265061967
 C    0.0000000000   -2.2657155948   -1.3265061967
 C   -0.0000000000    2.1569316853    1.3084054180
 C    0.0000000000   -2.1569316853    1.3084054180
 N    0.0000000000    0.0000000000    2.6367452879
 H    0.0000000000    0.0000000000   -4.7239797374
 H   -0.0000000000    4.0678957562   -2.2797437439
 H    0.0000000000   -4.0678957562   -2.2797437439
 H   -0.0000000000    3.8900002978    2.4135407265
 H    0.0000000000   -3.8900002978    2.4135407265
units bohr
}

basis {

assign 6-31g_2dfp_

[ 6-31g_2dfp_ ]

spherical

!----------------------------------------------------------------------
! Basis Set Exchange
! Version v0.8.13
! https://www.basissetexchange.org
!----------------------------------------------------------------------
!   Basis set: 6-31G(2df,p)
! Description: 6-31G(2df,p)
!        Role: orbital
!     Version: 0  (Data from the original Basis Set Exchange)
!----------------------------------------------------------------------


****
H     0
S    3   1.00
     18.7311370              0.03349460
      2.8253937              0.23472695
      0.6401217              0.81375733
S    1   1.00
      0.1612778              1.00000000
P    1   1.00
      1.5000000              1.0000000
P    1   1.00
      0.3750000              1.0000000
****
B     0
S    6   1.00
   2068.8823000              0.0018663
    310.6495700              0.0142515
     70.6830330              0.0695516
     19.8610800              0.2325729
      6.2993048              0.4670787
      2.1270270              0.3634314
SP   3   1.00
      4.7279710             -0.1303938              0.0745976
      1.1903377             -0.1307889              0.3078467
      0.3594117              1.1309444              0.7434568
SP   1   1.00
      0.1267512              1.0000000              1.0000000
D    1   1.00
      0.8020000              1.0000000
D    1   1.00
      0.2005000              1.0000000
F    1   1.00
      0.5000000              1.0000000
****
C     0
S    6   1.00
   3047.5249000              0.0018347
    457.3695100              0.0140373
    103.9486900              0.0688426
     29.2101550              0.2321844
      9.2866630              0.4679413
      3.1639270              0.3623120
SP   3   1.00
      7.8682724             -0.1193324              0.0689991
      1.8812885             -0.1608542              0.3164240
      0.5442493              1.1434564              0.7443083
SP   1   1.00
      0.1687144              1.0000000              1.0000000
D    1   1.00
      1.2520000              1.0000000
D    1   1.00
      0.3130000              1.0000000
F    1   1.00
      0.8000000              1.0000000
****
N     0
S    6   1.00
   4173.5110000              0.0018348
    627.4579000              0.0139950
    142.9021000              0.0685870
     40.2343300              0.2322410
     12.8202100              0.4690700
      4.3904370              0.3604550
SP   3   1.00
     11.6263580             -0.1149610              0.0675800
      2.7162800             -0.1691180              0.3239070
      0.7722180              1.1458520              0.7408950
SP   1   1.00
      0.2120313              1.0000000              1.0000000
D    1   1.00
      1.8260000              1.0000000
D    1   1.00
      0.4565000              1.0000000
F    1   1.00
      1.0000000              1.0000000
****
O     0
S    6   1.00
   5484.6717000              0.0018311
    825.2349500              0.0139501
    188.0469600              0.0684451
     52.9645000              0.2327143
     16.8975700              0.4701930
      5.7996353              0.3585209
SP   3   1.00
     15.5396160             -0.1107775              0.0708743
      3.5999336             -0.1480263              0.3397528
      1.0137618              1.1307670              0.7271586
SP   1   1.00
      0.2700058              1.0000000              1.0000000
D    1   1.00
      2.5840000              1.0000000
D    1   1.00
      0.6460000              1.0000000
F    1   1.00
      1.4000000              1.0000000
****
F     0
S    6   1.00
   7001.7130900              0.0018196169
   1051.3660900              0.0139160796
    239.2856900              0.0684053245
     67.3974453              0.233185760
     21.5199573              0.471267439
      7.40310130             0.356618546
SP   3   1.00
     20.8479528             -0.108506975            0.0716287243
      4.80830834            -0.146451658            0.3459121030
      1.34406986             1.128688580            0.7224699570
SP   1   1.00
      0.358151393            1.0000000              1.0000000
D    1   1.00
      3.5000000              1.0000000
D    1   1.00
      0.8750000              1.0000000
F    1   1.00
      1.8500000              1.0000000
****
Al     0
S    6   1.00
  13983.1000000              0.00194267
   2098.7500000              0.0148599
    477.7050000              0.0728494
    134.3600000              0.2468300
     42.8709000              0.4872580
     14.5189000              0.3234960
SP   6   1.00
    239.6680000             -0.00292619             0.00460285
     57.4419000             -0.0374080              0.0331990
     18.2859000             -0.1144870              0.1362820
      6.5991400              0.1156350              0.3304760
      2.4904900              0.6125950              0.4491460
      0.9445400              0.3937990              0.2657040
SP   3   1.00
      1.2779000             -0.2276060             -0.0175130
      0.3975900              0.00144583             0.2445330
      0.1600950              1.0927900              0.8049340
SP   1   1.00
      0.0556577              1.0000000              1.0000000
D    1   1.00
      0.6500000              1.0000000
D    1   1.00
      0.1625000              1.0000000
F    1   1.00
      0.2500000              1.0000000
****
Si     0
S    6   1.00
  16115.9000000              0.00195948
   2425.5800000              0.01492880
    553.8670000              0.07284780
    156.3400000              0.24613000
     50.0683000              0.48591400
     17.0178000              0.32500200
SP   6   1.00
    292.7180000             -0.00278094             0.00443826
     69.8731000             -0.03571460             0.03266790
     22.3363000             -0.11498500             0.13472100
      8.1503900              0.09356340             0.32867800
      3.1345800              0.60301700             0.44964000
      1.2254300              0.41895900             0.26137200
SP   3   1.00
      1.7273800             -0.24463000            -0.01779510
      0.5729220              0.00431572             0.25353900
      0.2221920              1.09818000             0.80066900
SP   1   1.00
      0.0778369              1.00000000             1.00000000
D    1   1.00
      0.9000000              1.0000000
D    1   1.00
      0.2250000              1.0000000
F    1   1.00
      0.3200000              1.0000000
****
P     0
S    6   1.00
  19413.3000000              0.0018516
   2909.4200000              0.0142062
    661.3640000              0.0699995
    185.7590000              0.2400790
     59.1943000              0.4847620
     20.0310000              0.3352000
SP   6   1.00
    339.4780000             -0.00278217             0.00456462
     81.0101000             -0.0360499              0.03369360
     25.8780000             -0.1166310              0.13975500
      9.4522100              0.0968328              0.33936200
      3.6656600              0.6144180              0.45092100
      1.4674600              0.4037980              0.23858600
SP   3   1.00
      2.1562300             -0.2529230             -0.01776530
      0.7489970              0.0328517              0.27405800
      0.2831450              1.0812500              0.78542100
SP   1   1.00
      0.0998317              1.0000000              1.00000000
D    1   1.00
      1.1000000              1.0000000
D    1   1.00
      0.2750000              1.0000000
F    1   1.00
      0.4500000              1.0000000
****
S     0
S    6   1.00
  21917.1000000              0.0018690
   3301.4900000              0.0142300
    754.1460000              0.0696960
    212.7110000              0.2384870
     67.9896000              0.4833070
     23.0515000              0.3380740
SP   6   1.00
    423.7350000             -0.0023767              0.0040610
    100.7100000             -0.0316930              0.0306810
     32.1599000             -0.1133170              0.1304520
     11.8079000              0.0560900              0.3272050
      4.6311000              0.5922550              0.4528510
      1.8702500              0.4550060              0.2560420
SP   3   1.00
      2.6158400             -0.2503740             -0.0145110
      0.9221670              0.0669570              0.3102630
      0.3412870              1.0545100              0.7544830
SP   1   1.00
      0.1171670              1.0000000              1.0000000
D    1   1.00
      1.3000000              1.0000000
D    1   1.00
      0.3250000              1.0000000
F    1   1.00
      0.5500000              1.0000000
****
Cl     0
S    6   1.00
  25180.1000000              0.0018330
   3780.3500000              0.0140340
    860.4740000              0.0690970
    242.1450000              0.2374520
     77.3349000              0.4830340
     26.2470000              0.3398560
SP   6   1.00
    491.7650000             -0.0022974              0.0039894
    116.9840000             -0.0307140              0.0303180
     37.4153000             -0.1125280              0.1298800
     13.7834000              0.0450160              0.3279510
      5.4521500              0.5893530              0.4535270
      2.2258800              0.4652060              0.2521540
SP   3   1.00
      3.1864900             -0.2518300             -0.0142990
      1.1442700              0.0615890              0.3235720
      0.4203770              1.0601800              0.7435070
SP   1   1.00
      0.1426570              1.0000000              1.0000000
D    1   1.00
      1.5000000              1.0000000
D    1   1.00
      0.3750000              1.0000000
F    1   1.00
      0.7000000              1.0000000
****
}


set {
reference rhf                          
freeze_core true
e_convergence 10                       
d_convergence 10                      
dft_spherical_points 1202
dft_radial_points 99
}

e = energy('b3lyp')

print_out('Grab this energy {0}'.format(e))
--------------------------------------------------------------------------

  Memory set to  13.039 GiB by Python driver.

Scratch directory: /tmp/

*** tstart() called on n070
*** at Tue Nov 16 09:47:51 2021

   => Loading Basis Set <=

    Name: ANONYMOUSDE2BF003
    Role: ORBITAL
    Keyword: BASIS
    atoms 1-5  entry C          line    48 inputblock 6-31g_2dfp_ 
    atoms 6    entry N          line    69 inputblock 6-31g_2dfp_ 
    atoms 7-11 entry H          line    15 inputblock 6-31g_2dfp_ 


         ---------------------------------------------------------
                                   SCF
               by Justin Turney, Rob Parrish, Andy Simmonett
                          and Daniel G. A. Smith
                              RKS Reference
                        4 Threads,  13351 MiB Core
         ---------------------------------------------------------

  ==> Geometry <==

    Molecular point group: c2v
    Full point group: C2v

    Geometry (in Bohr), charge = 0, multiplicity = 1:

       Center              X                  Y                   Z               Mass       
    ------------   -----------------  -----------------  -----------------  -----------------
         C            0.000000000000     0.000000000000    -2.675197946755    12.000000000000
         C           -0.000000000000     2.265715594800    -1.324932385155    12.000000000000
         C            0.000000000000    -2.265715594800    -1.324932385155    12.000000000000
         C           -0.000000000000     2.156931685300     1.309979229545    12.000000000000
         C            0.000000000000    -2.156931685300     1.309979229545    12.000000000000
         N            0.000000000000     0.000000000000     2.638319099445    14.003074004430
         H            0.000000000000     0.000000000000    -4.722405925855     1.007825032230
         H           -0.000000000000     4.067895756200    -2.278169932355     1.007825032230
         H            0.000000000000    -4.067895756200    -2.278169932355     1.007825032230
         H           -0.000000000000     3.890000297800     2.415114538045     1.007825032230
         H            0.000000000000    -3.890000297800     2.415114538045     1.007825032230

  Running in c2v symmetry.

  Rotational constants: A =      0.20153  B =      0.19334  C =      0.09868 [cm^-1]
  Rotational constants: A =   6041.67723  B =   5796.29089  C =   2958.22039 [MHz]
  Nuclear repulsion =  205.861070383333356

  Charge       = 0
  Multiplicity = 1
  Electrons    = 42
  Nalpha       = 21
  Nbeta        = 21

  ==> Algorithm <==

  SCF Algorithm Type is DF.
  DIIS enabled.
  MOM disabled.
  Fractional occupation disabled.
  Guess Type is SAD.
  Energy threshold   = 1.00e-10
  Density threshold  = 1.00e-10
  Integral threshold = 0.00e+00

  ==> Primary Basis <==

  Basis Set: ANONYMOUSDE2BF003
    Blend: 6-31G_2DFP_
    Number of shells: 68
    Number of basis function: 196
    Number of Cartesian functions: 226
    Spherical Harmonics?: true
    Max angular momentum: 3

  ==> DFT Potential <==

   => Composite Functional: B3LYP <= 

    B3LYP Hyb-GGA Exchange-Correlation Functional

    P. J. Stephens, F. J. Devlin, C. F. Chabalowski, and M. J. Frisch, J. Phys. Chem. 98, 11623 (1994)

    Deriv               =              1
    GGA                 =           TRUE
    Meta                =          FALSE

    Exchange Hybrid     =           TRUE
    MP2 Hybrid          =          FALSE

   => Exchange Functionals <=

    0.0800   Slater exchange
    0.7200         Becke 88

   => Exact (HF) Exchange <=

    0.2000               HF 

   => Correlation Functionals <=

    0.1900   Vosko, Wilk & Nusair (VWN5_RPA)
    0.8100   Lee, Yang & Parr

   => Molecular Quadrature <=

    Radial Scheme          =       TREUTLER
    Pruning Scheme         =           NONE
    Nuclear Scheme         =       TREUTLER

    BS radius alpha        =              1
    Pruning alpha          =              1
    Radial Points          =             99
    Spherical Points       =           1202
    Total Points           =        1210289
    Total Blocks           =           8180
    Max Points             =            256
    Max Functions          =            196
    Weights Tolerance      =       1.00E-15

   => Loading Basis Set <=

    Name: (ANONYMOUSDE2BF003 AUX)
    Role: JKFIT
    Keyword: DF_BASIS_SCF
    atoms 1-5  entry C          line   198 file /opt/psi/4/master/share/psi4/basis/def2-universal-jkfit.gbs 
    atoms 6    entry N          line   258 file /opt/psi/4/master/share/psi4/basis/def2-universal-jkfit.gbs 
    atoms 7-11 entry H          line    18 file /opt/psi/4/master/share/psi4/basis/def2-universal-jkfit.gbs 

  ==> Integral Setup <==

  DFHelper Memory: AOs need 0.164 GiB; user supplied 4.345 GiB. Using in-core AOs.

  ==> MemDFJK: Density-Fitted J/K Matrices <==

    J tasked:                   Yes
    K tasked:                   Yes
    wK tasked:                   No
    OpenMP threads:               4
    Memory [MiB]:              4449
    Algorithm:                 Core
    Schwarz Cutoff:           1E-12
    Mask sparsity (%):       1.3796
    Fitting Condition:        1E-10

   => Auxiliary Basis Set <=

  Basis Set: (ANONYMOUSDE2BF003 AUX)
    Blend: DEF2-UNIVERSAL-JKFIT
    Number of shells: 180
    Number of basis function: 542
    Number of Cartesian functions: 638
    Spherical Harmonics?: true
    Max angular momentum: 4

  Cached 100.0% of DFT collocation blocks in 5.434 [GiB].

  Minimum eigenvalue in the overlap matrix is 1.4069143682E-04.
  Reciprocal condition number of the overlap matrix is 2.5886524054E-05.
    Using symmetric orthogonalization.

  ==> Pre-Iterations <==

  SCF Guess: Superposition of Atomic Densities via on-the-fly atomic UHF (no occupation information).

   -------------------------
    Irrep   Nso     Nmo    
   -------------------------
     A1        72      72 
     A2        28      28 
     B1        36      36 
     B2        60      60 
   -------------------------
    Total     196     196
   -------------------------

  ==> Iterations <==

                           Total Energy        Delta E     RMS |[F,P]|

   @DF-RKS iter SAD:  -247.80943825958678   -2.47809e+02   0.00000e+00 
   @DF-RKS iter   1:  -248.01751188755870   -2.08074e-01   6.77771e-03 DIIS
   @DF-RKS iter   2:  -247.95638576234489    6.11261e-02   7.72576e-03 DIIS
   @DF-RKS iter   3:  -248.29134543582694   -3.34960e-01   1.18739e-03 DIIS
   @DF-RKS iter   4:  -248.29616838878940   -4.82295e-03   6.49556e-04 DIIS
   @DF-RKS iter   5:  -248.29827126009758   -2.10287e-03   1.40153e-04 DIIS
   @DF-RKS iter   6:  -248.29835919649932   -8.79364e-05   6.99396e-05 DIIS
   @DF-RKS iter   7:  -248.29838833708266   -2.91406e-05   4.23604e-06 DIIS
   @DF-RKS iter   8:  -248.29838842404723   -8.69646e-08   1.59536e-06 DIIS
   @DF-RKS iter   9:  -248.29838843634747   -1.23002e-08   3.36760e-07 DIIS
   @DF-RKS iter  10:  -248.29838843699784   -6.50374e-10   6.76216e-08 DIIS
   @DF-RKS iter  11:  -248.29838843701933   -2.14868e-11   8.92112e-09 DIIS
   @DF-RKS iter  12:  -248.29838843701998   -6.53699e-13   1.25680e-09 DIIS
   @DF-RKS iter  13:  -248.29838843702004   -5.68434e-14   1.78534e-10 DIIS
   @DF-RKS iter  14:  -248.29838843702004    0.00000e+00   1.93045e-11 DIIS
  Energy and wave function converged.


  ==> Post-Iterations <==

    Orbital Energies [Eh]
    ---------------------

    Doubly Occupied:                                                      

       1A1   -14.326362     1B2   -10.215546     2A1   -10.215520  
       3A1   -10.202807     2B2   -10.191890     4A1   -10.191856  
       5A1    -0.935482     6A1    -0.801216     3B2    -0.758148  
       4B2    -0.626258     7A1    -0.625814     8A1    -0.525865  
       5B2    -0.475441     9A1    -0.469829     6B2    -0.426215  
      10A1    -0.401580     1B1    -0.394625     7B2    -0.361291  
       2B1    -0.285930     1A2    -0.261623    11A1    -0.253272  

    Virtual:                                                              

       3B1    -0.024596     2A2    -0.010563    12A1     0.087924  
       8B2     0.124954    13A1     0.139005     4B1     0.142343  
       9B2     0.160761    14A1     0.166669    15A1     0.225322  
      10B2     0.278834    11B2     0.301684    16A1     0.302753  
      17A1     0.354480    12B2     0.406405     5B1     0.422202  
      18A1     0.431313    13B2     0.453818    19A1     0.460017  
      14B2     0.460132     3A2     0.489667    20A1     0.499506  
       6B1     0.508890     7B1     0.521795    21A1     0.524187  
      15B2     0.565509    22A1     0.596586     4A2     0.602464  
       8B1     0.630069    16B2     0.632547    17B2     0.655100  
       5A2     0.655957    23A1     0.681876    24A1     0.703017  
       6A2     0.703539     9B1     0.713435    18B2     0.722042  
      25A1     0.738669    26A1     0.758370    10B1     0.785214  
       7A2     0.807240    11B1     0.831306    19B2     0.867030  
      20B2     0.895001    27A1     0.915396    28A1     0.950421  
      12B1     0.966876    29A1     0.988348    21B2     1.037637  
       8A2     1.048679    13B1     1.054194    30A1     1.074226  
      22B2     1.105226     9A2     1.113577    14B1     1.137964  
      23B2     1.179183    24B2     1.191795    31A1     1.220935  
      32A1     1.273508    15B1     1.281787    25B2     1.315811  
      33A1     1.348030    10A2     1.365113    34A1     1.375317  
      11A2     1.384666    26B2     1.392612    16B1     1.400713  
      27B2     1.425467    35A1     1.432714    36A1     1.500212  
      28B2     1.525504    37A1     1.548931    38A1     1.616085  
      29B2     1.628764    17B1     1.677396    39A1     1.714550  
      12A2     1.752440    30B2     1.757960    40A1     1.860730  
      31B2     1.978607    32B2     2.024370    41A1     2.169149  
      42A1     2.251942    33B2     2.328659    43A1     2.356489  
      34B2     2.365452    44A1     2.406321    13A2     2.512972  
      35B2     2.619070    18B1     2.646629    45A1     2.762611  
      36B2     2.762840    19B1     2.797549    14A2     2.809503  
      20B1     2.837286    15A2     2.861086    46A1     2.887364  
      21B1     2.902878    37B2     2.928822    47A1     2.964562  
      38B2     3.026746    22B1     3.048195    48A1     3.070682  
      16A2     3.071187    23B1     3.107499    49A1     3.146193  
      17A2     3.153816    39B2     3.170836    24B1     3.181809  
      40B2     3.192928    50A1     3.218227    18A2     3.233667  
      51A1     3.271264    25B1     3.281279    52A1     3.301881  
      41B2     3.325246    53A1     3.355608    19A2     3.356619  
      26B1     3.357264    42B2     3.388721    20A2     3.412478  
      54A1     3.475249    43B2     3.531904    55A1     3.557331  
      44B2     3.582788    27B1     3.630778    21A2     3.650468  
      56A1     3.658317    45B2     3.689288    28B1     3.717637  
      22A2     3.726664    57A1     3.762861    46B2     3.780152  
      29B1     3.926349    47B2     3.931936    58A1     3.936634  
      23A2     3.947067    30B1     3.967416    59A1     4.017218  
      31B1     4.060256    48B2     4.088253    32B1     4.093608  
      60A1     4.094802    24A2     4.107875    49B2     4.161020  
      61A1     4.177889    50B2     4.236829    33B1     4.350093  
      25A2     4.358478    62A1     4.423588    26A2     4.430062  
      51B2     4.435522    52B2     4.451217    63A1     4.497416  
      34B1     4.532408    53B2     4.670014    64A1     4.802381  
      35B1     4.838374    54B2     4.844469    65A1     4.848548  
      55B2     4.906307    27A2     4.980669    66A1     4.997544  
      67A1     5.069932    56B2     5.117930    36B1     5.176015  
      28A2     5.203796    68A1     5.225745    69A1     5.384215  
      57B2     5.438118    70A1     5.451116    58B2     5.643598  
      71A1     5.675429    72A1     5.933310    59B2     5.953779  
      60B2     6.217324  

    Final Occupation by Irrep:
             A1    A2    B1    B2 
    DOCC [    11,    1,    2,    7 ]

  @DF-RKS Final Energy:  -248.29838843702004

   => Energetics <=

    Nuclear Repulsion Energy =            205.8610703833333559
    One-Electron Energy =                -741.5251964268569509
    Two-Electron Energy =                 316.4308446064285363
    DFT Exchange-Correlation Energy =     -29.0651069999250353
    Empirical Dispersion Energy =           0.0000000000000000
    VV10 Nonlocal Energy =                  0.0000000000000000
    Total Energy =                       -248.2983884370200371

Computation Completed


Properties will be evaluated at   0.000000,   0.000000,   0.000000 [a0]

Properties computed using the SCF density matrix

  Nuclear Dipole Moment: [e a0]
     X:     0.0000      Y:     0.0000      Z:    -2.2109

  Electronic Dipole Moment: [e a0]
     X:     0.0000      Y:     0.0000      Z:     1.3725

  Dipole Moment: [e a0]
     X:     0.0000      Y:     0.0000      Z:    -0.8384     Total:     0.8384

  Dipole Moment: [D]
     X:     0.0000      Y:     0.0000      Z:    -2.1311     Total:     2.1311


*** tstop() called on n070 at Tue Nov 16 09:48:24 2021
Module time:
	user time   =     123.05 seconds =       2.05 minutes
	system time =       2.15 seconds =       0.04 minutes
	total time  =         33 seconds =       0.55 minutes
Total time:
	user time   =     123.05 seconds =       2.05 minutes
	system time =       2.15 seconds =       0.04 minutes
	total time  =         33 seconds =       0.55 minutes
Grab this energy -248.29838843702004
    Psi4 stopped on: Tuesday, 16 November 2021 09:48AM
    Psi4 wall time for execution: 0:00:32.47

*** Psi4 exiting successfully. Buy a developer a beer!
