
    -----------------------------------------------------------------------
          Psi4: An Open-Source Ab Initio Electronic Structure Package
                               Psi4 1.4a2.dev629 

                         Git: Rev {master} 2938fc2 dirty


    D. G. A. Smith, L. A. Burns, A. C. Simmonett, R. M. Parrish,
    M. C. Schieber, R. Galvelis, P. Kraus, H. Kruse, R. Di Remigio,
    A. Alenaizan, A. M. James, S. Lehtola, J. P. Misiewicz, M. Scheurer,
    R. A. Shaw, J. B. Schriber, Y. Xie, Z. L. Glick, D. A. Sirianni,
    J. S. O'Brien, J. M. Waldrop, A. Kumar, E. G. Hohenstein,
    B. P. Pritchard, B. R. Brooks, H. F. Schaefer III, A. Yu. Sokolov,
    K. Patkowski, A. E. DePrince III, U. Bozkaya, R. A. King,
    F. A. Evangelista, J. M. Turney, T. D. Crawford, C. D. Sherrill,
    J. Chem. Phys. 152(18) 184108 (2020). https://doi.org/10.1063/5.0006002

                            Additional Code Authors
    E. T. Seidl, C. L. Janssen, E. F. Valeev, M. L. Leininger,
    J. F. Gonthier, R. M. Richard, H. R. McAlexander, M. Saitow, X. Wang,
    P. Verma, and M. H. Lechner

             Previous Authors, Complete List of Code Contributors,
                       and Citations for Specific Modules
    https://github.com/psi4/psi4/blob/master/codemeta.json
    https://github.com/psi4/psi4/graphs/contributors
    http://psicode.org/psi4manual/master/introduction.html#citing-psifour

    -----------------------------------------------------------------------


    Psi4 started on: Tuesday, 16 November 2021 10:01AM

    Process ID: 28650
    Host:       n036
    PSIDATADIR: /opt/psi/4/master/share/psi4
    Memory:     500.0 MiB
    Threads:    4
    
  ==> Input File <==

--------------------------------------------------------------------------
import os
memory 14 GB 
 
molecule {
 C    0.0004253194    0.0000000000   -2.6796312814
 C    0.0011627463    2.2622721687   -1.3296667255
 C    0.0011627463   -2.2622721687   -1.3296667255
 C    0.0010433289    2.1566047934    1.3099508715
 C    0.0010433289   -2.1566047934    1.3099508715
 N    0.0038475456   -0.0000000000    2.6446212615
 H   -0.0023684634   -0.0000000000   -4.7193936364
 H    0.0004944673    4.0724287699   -2.2811318629
 H    0.0004944673   -4.0724287699   -2.2811318629
 H   -0.0036527433    3.8883371121    2.4117426451
 H   -0.0036527433   -3.8883371121    2.4117426451
units bohr
}

basis {

assign 6-31g_2dfp_

[ 6-31g_2dfp_ ]

spherical

!----------------------------------------------------------------------
! Basis Set Exchange
! Version v0.8.13
! https://www.basissetexchange.org
!----------------------------------------------------------------------
!   Basis set: 6-31G(2df,p)
! Description: 6-31G(2df,p)
!        Role: orbital
!     Version: 0  (Data from the original Basis Set Exchange)
!----------------------------------------------------------------------


****
H     0
S    3   1.00
     18.7311370              0.03349460
      2.8253937              0.23472695
      0.6401217              0.81375733
S    1   1.00
      0.1612778              1.00000000
P    1   1.00
      1.5000000              1.0000000
P    1   1.00
      0.3750000              1.0000000
****
B     0
S    6   1.00
   2068.8823000              0.0018663
    310.6495700              0.0142515
     70.6830330              0.0695516
     19.8610800              0.2325729
      6.2993048              0.4670787
      2.1270270              0.3634314
SP   3   1.00
      4.7279710             -0.1303938              0.0745976
      1.1903377             -0.1307889              0.3078467
      0.3594117              1.1309444              0.7434568
SP   1   1.00
      0.1267512              1.0000000              1.0000000
D    1   1.00
      0.8020000              1.0000000
D    1   1.00
      0.2005000              1.0000000
F    1   1.00
      0.5000000              1.0000000
****
C     0
S    6   1.00
   3047.5249000              0.0018347
    457.3695100              0.0140373
    103.9486900              0.0688426
     29.2101550              0.2321844
      9.2866630              0.4679413
      3.1639270              0.3623120
SP   3   1.00
      7.8682724             -0.1193324              0.0689991
      1.8812885             -0.1608542              0.3164240
      0.5442493              1.1434564              0.7443083
SP   1   1.00
      0.1687144              1.0000000              1.0000000
D    1   1.00
      1.2520000              1.0000000
D    1   1.00
      0.3130000              1.0000000
F    1   1.00
      0.8000000              1.0000000
****
N     0
S    6   1.00
   4173.5110000              0.0018348
    627.4579000              0.0139950
    142.9021000              0.0685870
     40.2343300              0.2322410
     12.8202100              0.4690700
      4.3904370              0.3604550
SP   3   1.00
     11.6263580             -0.1149610              0.0675800
      2.7162800             -0.1691180              0.3239070
      0.7722180              1.1458520              0.7408950
SP   1   1.00
      0.2120313              1.0000000              1.0000000
D    1   1.00
      1.8260000              1.0000000
D    1   1.00
      0.4565000              1.0000000
F    1   1.00
      1.0000000              1.0000000
****
O     0
S    6   1.00
   5484.6717000              0.0018311
    825.2349500              0.0139501
    188.0469600              0.0684451
     52.9645000              0.2327143
     16.8975700              0.4701930
      5.7996353              0.3585209
SP   3   1.00
     15.5396160             -0.1107775              0.0708743
      3.5999336             -0.1480263              0.3397528
      1.0137618              1.1307670              0.7271586
SP   1   1.00
      0.2700058              1.0000000              1.0000000
D    1   1.00
      2.5840000              1.0000000
D    1   1.00
      0.6460000              1.0000000
F    1   1.00
      1.4000000              1.0000000
****
F     0
S    6   1.00
   7001.7130900              0.0018196169
   1051.3660900              0.0139160796
    239.2856900              0.0684053245
     67.3974453              0.233185760
     21.5199573              0.471267439
      7.40310130             0.356618546
SP   3   1.00
     20.8479528             -0.108506975            0.0716287243
      4.80830834            -0.146451658            0.3459121030
      1.34406986             1.128688580            0.7224699570
SP   1   1.00
      0.358151393            1.0000000              1.0000000
D    1   1.00
      3.5000000              1.0000000
D    1   1.00
      0.8750000              1.0000000
F    1   1.00
      1.8500000              1.0000000
****
Al     0
S    6   1.00
  13983.1000000              0.00194267
   2098.7500000              0.0148599
    477.7050000              0.0728494
    134.3600000              0.2468300
     42.8709000              0.4872580
     14.5189000              0.3234960
SP   6   1.00
    239.6680000             -0.00292619             0.00460285
     57.4419000             -0.0374080              0.0331990
     18.2859000             -0.1144870              0.1362820
      6.5991400              0.1156350              0.3304760
      2.4904900              0.6125950              0.4491460
      0.9445400              0.3937990              0.2657040
SP   3   1.00
      1.2779000             -0.2276060             -0.0175130
      0.3975900              0.00144583             0.2445330
      0.1600950              1.0927900              0.8049340
SP   1   1.00
      0.0556577              1.0000000              1.0000000
D    1   1.00
      0.6500000              1.0000000
D    1   1.00
      0.1625000              1.0000000
F    1   1.00
      0.2500000              1.0000000
****
Si     0
S    6   1.00
  16115.9000000              0.00195948
   2425.5800000              0.01492880
    553.8670000              0.07284780
    156.3400000              0.24613000
     50.0683000              0.48591400
     17.0178000              0.32500200
SP   6   1.00
    292.7180000             -0.00278094             0.00443826
     69.8731000             -0.03571460             0.03266790
     22.3363000             -0.11498500             0.13472100
      8.1503900              0.09356340             0.32867800
      3.1345800              0.60301700             0.44964000
      1.2254300              0.41895900             0.26137200
SP   3   1.00
      1.7273800             -0.24463000            -0.01779510
      0.5729220              0.00431572             0.25353900
      0.2221920              1.09818000             0.80066900
SP   1   1.00
      0.0778369              1.00000000             1.00000000
D    1   1.00
      0.9000000              1.0000000
D    1   1.00
      0.2250000              1.0000000
F    1   1.00
      0.3200000              1.0000000
****
P     0
S    6   1.00
  19413.3000000              0.0018516
   2909.4200000              0.0142062
    661.3640000              0.0699995
    185.7590000              0.2400790
     59.1943000              0.4847620
     20.0310000              0.3352000
SP   6   1.00
    339.4780000             -0.00278217             0.00456462
     81.0101000             -0.0360499              0.03369360
     25.8780000             -0.1166310              0.13975500
      9.4522100              0.0968328              0.33936200
      3.6656600              0.6144180              0.45092100
      1.4674600              0.4037980              0.23858600
SP   3   1.00
      2.1562300             -0.2529230             -0.01776530
      0.7489970              0.0328517              0.27405800
      0.2831450              1.0812500              0.78542100
SP   1   1.00
      0.0998317              1.0000000              1.00000000
D    1   1.00
      1.1000000              1.0000000
D    1   1.00
      0.2750000              1.0000000
F    1   1.00
      0.4500000              1.0000000
****
S     0
S    6   1.00
  21917.1000000              0.0018690
   3301.4900000              0.0142300
    754.1460000              0.0696960
    212.7110000              0.2384870
     67.9896000              0.4833070
     23.0515000              0.3380740
SP   6   1.00
    423.7350000             -0.0023767              0.0040610
    100.7100000             -0.0316930              0.0306810
     32.1599000             -0.1133170              0.1304520
     11.8079000              0.0560900              0.3272050
      4.6311000              0.5922550              0.4528510
      1.8702500              0.4550060              0.2560420
SP   3   1.00
      2.6158400             -0.2503740             -0.0145110
      0.9221670              0.0669570              0.3102630
      0.3412870              1.0545100              0.7544830
SP   1   1.00
      0.1171670              1.0000000              1.0000000
D    1   1.00
      1.3000000              1.0000000
D    1   1.00
      0.3250000              1.0000000
F    1   1.00
      0.5500000              1.0000000
****
Cl     0
S    6   1.00
  25180.1000000              0.0018330
   3780.3500000              0.0140340
    860.4740000              0.0690970
    242.1450000              0.2374520
     77.3349000              0.4830340
     26.2470000              0.3398560
SP   6   1.00
    491.7650000             -0.0022974              0.0039894
    116.9840000             -0.0307140              0.0303180
     37.4153000             -0.1125280              0.1298800
     13.7834000              0.0450160              0.3279510
      5.4521500              0.5893530              0.4535270
      2.2258800              0.4652060              0.2521540
SP   3   1.00
      3.1864900             -0.2518300             -0.0142990
      1.1442700              0.0615890              0.3235720
      0.4203770              1.0601800              0.7435070
SP   1   1.00
      0.1426570              1.0000000              1.0000000
D    1   1.00
      1.5000000              1.0000000
D    1   1.00
      0.3750000              1.0000000
F    1   1.00
      0.7000000              1.0000000
****
}


set {
reference rhf                          
freeze_core true
e_convergence 10                       
d_convergence 10                      
dft_spherical_points 1202
dft_radial_points 99
}

e = energy('b3lyp')

print_out('Grab this energy {0}'.format(e))
--------------------------------------------------------------------------

  Memory set to  13.039 GiB by Python driver.

Scratch directory: /tmp/

*** tstart() called on n036
*** at Tue Nov 16 10:01:48 2021

   => Loading Basis Set <=

    Name: ANONYMOUS2B9D8FE0
    Role: ORBITAL
    Keyword: BASIS
    atoms 1-5  entry C          line    48 inputblock 6-31g_2dfp_ 
    atoms 6    entry N          line    69 inputblock 6-31g_2dfp_ 
    atoms 7-11 entry H          line    15 inputblock 6-31g_2dfp_ 


         ---------------------------------------------------------
                                   SCF
               by Justin Turney, Rob Parrish, Andy Simmonett
                          and Daniel G. A. Smith
                              RKS Reference
                        4 Threads,  13351 MiB Core
         ---------------------------------------------------------

  ==> Geometry <==

    Molecular point group: cs
    Full point group: Cs

    Geometry (in Bohr), charge = 0, multiplicity = 1:

       Center              X                  Y                   Z               Mass       
    ------------   -----------------  -----------------  -----------------  -----------------
         C            0.000879984963    -2.678505477116     0.000000000000    12.000000000000
         C            0.000142558063    -1.328540921216     2.262272168700    12.000000000000
         C            0.000142558063    -1.328540921216    -2.262272168700    12.000000000000
         C            0.000261975463     1.311076675784     2.156604793400    12.000000000000
         C            0.000261975463     1.311076675784    -2.156604793400    12.000000000000
         N           -0.002542241237     2.645747065784     0.000000000000    14.003074004430
         H            0.003673767763    -4.718267832116     0.000000000000     1.007825032230
         H            0.000810837063    -2.280006058616     4.072428769900     1.007825032230
         H            0.000810837063    -2.280006058616    -4.072428769900     1.007825032230
         H            0.004958047663     2.412868449384     3.888337112100     1.007825032230
         H            0.004958047663     2.412868449384    -3.888337112100     1.007825032230

  Running in cs symmetry.

  Rotational constants: A =      0.20177  B =      0.19271  C =      0.09857 [cm^-1]
  Rotational constants: A =   6048.95949  B =   5777.42464  C =   2955.03861 [MHz]
  Nuclear repulsion =  205.758172400032549

  Charge       = 0
  Multiplicity = 1
  Electrons    = 42
  Nalpha       = 21
  Nbeta        = 21

  ==> Algorithm <==

  SCF Algorithm Type is DF.
  DIIS enabled.
  MOM disabled.
  Fractional occupation disabled.
  Guess Type is SAD.
  Energy threshold   = 1.00e-10
  Density threshold  = 1.00e-10
  Integral threshold = 0.00e+00

  ==> Primary Basis <==

  Basis Set: ANONYMOUS2B9D8FE0
    Blend: 6-31G_2DFP_
    Number of shells: 68
    Number of basis function: 196
    Number of Cartesian functions: 226
    Spherical Harmonics?: true
    Max angular momentum: 3

  ==> DFT Potential <==

   => Composite Functional: B3LYP <= 

    B3LYP Hyb-GGA Exchange-Correlation Functional

    P. J. Stephens, F. J. Devlin, C. F. Chabalowski, and M. J. Frisch, J. Phys. Chem. 98, 11623 (1994)

    Deriv               =              1
    GGA                 =           TRUE
    Meta                =          FALSE

    Exchange Hybrid     =           TRUE
    MP2 Hybrid          =          FALSE

   => Exchange Functionals <=

    0.0800   Slater exchange
    0.7200         Becke 88

   => Exact (HF) Exchange <=

    0.2000               HF 

   => Correlation Functionals <=

    0.1900   Vosko, Wilk & Nusair (VWN5_RPA)
    0.8100   Lee, Yang & Parr

   => Molecular Quadrature <=

    Radial Scheme          =       TREUTLER
    Pruning Scheme         =           NONE
    Nuclear Scheme         =       TREUTLER

    BS radius alpha        =              1
    Pruning alpha          =              1
    Radial Points          =             99
    Spherical Points       =           1202
    Total Points           =        1210318
    Total Blocks           =           8170
    Max Points             =            256
    Max Functions          =            193
    Weights Tolerance      =       1.00E-15

   => Loading Basis Set <=

    Name: (ANONYMOUS2B9D8FE0 AUX)
    Role: JKFIT
    Keyword: DF_BASIS_SCF
    atoms 1-5  entry C          line   198 file /opt/psi/4/master/share/psi4/basis/def2-universal-jkfit.gbs 
    atoms 6    entry N          line   258 file /opt/psi/4/master/share/psi4/basis/def2-universal-jkfit.gbs 
    atoms 7-11 entry H          line    18 file /opt/psi/4/master/share/psi4/basis/def2-universal-jkfit.gbs 

  ==> Integral Setup <==

  DFHelper Memory: AOs need 0.164 GiB; user supplied 4.342 GiB. Using in-core AOs.

  ==> MemDFJK: Density-Fitted J/K Matrices <==

    J tasked:                   Yes
    K tasked:                   Yes
    wK tasked:                   No
    OpenMP threads:               4
    Memory [MiB]:              4446
    Algorithm:                 Core
    Schwarz Cutoff:           1E-12
    Mask sparsity (%):       1.3953
    Fitting Condition:        1E-10

   => Auxiliary Basis Set <=

  Basis Set: (ANONYMOUS2B9D8FE0 AUX)
    Blend: DEF2-UNIVERSAL-JKFIT
    Number of shells: 180
    Number of basis function: 542
    Number of Cartesian functions: 638
    Spherical Harmonics?: true
    Max angular momentum: 4

  Cached 100.0% of DFT collocation blocks in 5.437 [GiB].

  Minimum eigenvalue in the overlap matrix is 1.4116939667E-04.
  Reciprocal condition number of the overlap matrix is 2.5956307865E-05.
    Using symmetric orthogonalization.

  ==> Pre-Iterations <==

  SCF Guess: Superposition of Atomic Densities via on-the-fly atomic UHF (no occupation information).

   -------------------------
    Irrep   Nso     Nmo    
   -------------------------
     A'       108     108 
     A"        88      88 
   -------------------------
    Total     196     196
   -------------------------

  ==> Iterations <==

                           Total Energy        Delta E     RMS |[F,P]|

   @DF-RKS iter SAD:  -247.80353078707824   -2.47804e+02   0.00000e+00 
   @DF-RKS iter   1:  -248.01836580313187   -2.14835e-01   5.06147e-03 DIIS
   @DF-RKS iter   2:  -247.95852380862732    5.98420e-02   5.76046e-03 DIIS
   @DF-RKS iter   3:  -248.29154543032058   -3.33022e-01   8.74684e-04 DIIS
   @DF-RKS iter   4:  -248.29619787368910   -4.65244e-03   4.78972e-04 DIIS
   @DF-RKS iter   5:  -248.29822187368970   -2.02400e-03   1.05743e-04 DIIS
   @DF-RKS iter   6:  -248.29831077940634   -8.89057e-05   5.30516e-05 DIIS
   @DF-RKS iter   7:  -248.29834089820224   -3.01188e-05   3.12958e-06 DIIS
   @DF-RKS iter   8:  -248.29834098350432   -8.53021e-08   1.16472e-06 DIIS
   @DF-RKS iter   9:  -248.29834099518177   -1.16775e-08   2.55483e-07 DIIS
   @DF-RKS iter  10:  -248.29834099584579   -6.64016e-10   4.94371e-08 DIIS
   @DF-RKS iter  11:  -248.29834099586679   -2.10036e-11   6.54807e-09 DIIS
   @DF-RKS iter  12:  -248.29834099586719   -3.97904e-13   1.12336e-09 DIIS
   @DF-RKS iter  13:  -248.29834099586714    5.68434e-14   3.04290e-10 DIIS
   @DF-RKS iter  14:  -248.29834099586719   -5.68434e-14   5.90819e-11 DIIS
  Energy and wave function converged.


  ==> Post-Iterations <==

    Orbital Energies [Eh]
    ---------------------

    Doubly Occupied:                                                      

       1Ap   -14.326909     1App  -10.215739     2Ap   -10.215712  
       3Ap   -10.202290     2App  -10.192320     4Ap   -10.192284  
       5Ap    -0.934841     6Ap    -0.801692     3App   -0.757424  
       4App   -0.626014     7Ap    -0.625903     8Ap    -0.526038  
       5App   -0.475130     9Ap    -0.469541     6App   -0.425442  
      10Ap    -0.402224    11Ap    -0.394258     7App   -0.361371  
      12Ap    -0.286292     8App   -0.261135    13Ap    -0.253798  

    Virtual:                                                              

      14Ap    -0.024624     9App   -0.010964    15Ap     0.087802  
      10App    0.124795    16Ap     0.139353    17Ap     0.141918  
      11App    0.160653    18Ap     0.166582    19Ap     0.225077  
      12App    0.278520    13App    0.301111    20Ap     0.302519  
      21Ap     0.354696    14App    0.406592    22Ap     0.422127  
      23Ap     0.430395    15App    0.453458    16App    0.459960  
      24Ap     0.460748    17App    0.489822    25Ap     0.499251  
      26Ap     0.508781    27Ap     0.522053    28Ap     0.524098  
      18App    0.564802    29Ap     0.597066    19App    0.602514  
      30Ap     0.630184    20App    0.631099    21App    0.654586  
      22App    0.655921    31Ap     0.681729    32Ap     0.702076  
      23App    0.703627    33Ap     0.712875    24App    0.722568  
      34Ap     0.738774    35Ap     0.758168    36Ap     0.785321  
      25App    0.807105    37Ap     0.830932    26App    0.866864  
      27App    0.894580    38Ap     0.914857    39Ap     0.950430  
      40Ap     0.966209    41Ap     0.988294    28App    1.037455  
      29App    1.048421    42Ap     1.054378    43Ap     1.073605  
      30App    1.105557    31App    1.113289    44Ap     1.137746  
      32App    1.179560    33App    1.191480    45Ap     1.221094  
      46Ap     1.273271    47Ap     1.281154    34App    1.315817  
      48Ap     1.346540    35App    1.364637    49Ap     1.375198  
      36App    1.384358    37App    1.392588    50Ap     1.400970  
      38App    1.425047    51Ap     1.432809    52Ap     1.499935  
      39App    1.525529    53Ap     1.547895    54Ap     1.616495  
      40App    1.628238    55Ap     1.676625    56Ap     1.717411  
      41App    1.751102    42App    1.757184    57Ap     1.859021  
      43App    1.976993    44App    2.025010    58Ap     2.167932  
      59Ap     2.248924    45App    2.324522    60Ap     2.356129  
      46App    2.367322    61Ap     2.403924    47App    2.512867  
      48App    2.617797    62Ap     2.646318    49App    2.763218  
      63Ap     2.763635    64Ap     2.796515    50App    2.809638  
      65Ap     2.837748    51App    2.861068    66Ap     2.888131  
      67Ap     2.902740    52App    2.928675    68Ap     2.963342  
      53App    3.026611    69Ap     3.047768    54App    3.070064  
      70Ap     3.070986    71Ap     3.108600    72Ap     3.147519  
      55App    3.154018    56App    3.168339    73Ap     3.180797  
      57App    3.191959    74Ap     3.217563    58App    3.234589  
      75Ap     3.271143    76Ap     3.280876    77Ap     3.302283  
      59App    3.324110    78Ap     3.354606    79Ap     3.356309  
      60App    3.358621    61App    3.388872    62App    3.412560  
      80Ap     3.473625    63App    3.532120    81Ap     3.556628  
      64App    3.584859    82Ap     3.630037    65App    3.648494  
      83Ap     3.655449    66App    3.687495    84Ap     3.718950  
      67App    3.724438    85Ap     3.760037    68App    3.780400  
      86Ap     3.926911    69App    3.927964    87Ap     3.936984  
      70App    3.947662    88Ap     3.966215    89Ap     4.021442  
      90Ap     4.060605    71App    4.085450    91Ap     4.093059  
      92Ap     4.094301    72App    4.107611    73App    4.159657  
      93Ap     4.175915    74App    4.238021    94Ap     4.350988  
      75App    4.358318    95Ap     4.422070    76App    4.428193  
      77App    4.438471    78App    4.453604    96Ap     4.494055  
      97Ap     4.530868    79App    4.665126    98Ap     4.800486  
      99Ap     4.836064    80App    4.842740   100Ap     4.850606  
      81App    4.904610    82App    4.976390   101Ap     4.994216  
     102Ap     5.069686    83App    5.117280   103Ap     5.174075  
      84App    5.203144   104Ap     5.225661   105Ap     5.384946  
      85App    5.434202   106Ap     5.452423    86App    5.642905  
     107Ap     5.672862   108Ap     5.926343    87App    5.948035  
      88App    6.213911  

    Final Occupation by Irrep:
             Ap   App 
    DOCC [    13,    8 ]

  @DF-RKS Final Energy:  -248.29834099586719

   => Energetics <=

    Nuclear Repulsion Energy =            205.7581724000325494
    One-Electron Energy =                -741.3211646831479129
    Two-Electron Energy =                 316.3276522342825388
    DFT Exchange-Correlation Energy =     -29.0630009470343573
    Empirical Dispersion Energy =           0.0000000000000000
    VV10 Nonlocal Energy =                  0.0000000000000000
    Total Energy =                       -248.2983409958671928

Computation Completed


Properties will be evaluated at   0.000000,   0.000000,   0.000000 [a0]

Properties computed using the SCF density matrix

  Nuclear Dipole Moment: [e a0]
     X:     0.0076      Y:    -2.2129      Z:     0.0000

  Electronic Dipole Moment: [e a0]
     X:    -0.0056      Y:     1.3733      Z:     0.0000

  Dipole Moment: [e a0]
     X:     0.0020      Y:    -0.8396      Z:     0.0000     Total:     0.8396

  Dipole Moment: [D]
     X:     0.0050      Y:    -2.1341      Z:     0.0000     Total:     2.1341


*** tstop() called on n036 at Tue Nov 16 10:02:27 2021
Module time:
	user time   =     154.76 seconds =       2.58 minutes
	system time =       1.33 seconds =       0.02 minutes
	total time  =         39 seconds =       0.65 minutes
Total time:
	user time   =     154.76 seconds =       2.58 minutes
	system time =       1.33 seconds =       0.02 minutes
	total time  =         39 seconds =       0.65 minutes
Grab this energy -248.2983409958672
    Psi4 stopped on: Tuesday, 16 November 2021 10:02AM
    Psi4 wall time for execution: 0:00:39.81

*** Psi4 exiting successfully. Buy a developer a beer!
