
    -----------------------------------------------------------------------
          Psi4: An Open-Source Ab Initio Electronic Structure Package
                               Psi4 1.4a2.dev629 

                         Git: Rev {master} 2938fc2 dirty


    D. G. A. Smith, L. A. Burns, A. C. Simmonett, R. M. Parrish,
    M. C. Schieber, R. Galvelis, P. Kraus, H. Kruse, R. Di Remigio,
    A. Alenaizan, A. M. James, S. Lehtola, J. P. Misiewicz, M. Scheurer,
    R. A. Shaw, J. B. Schriber, Y. Xie, Z. L. Glick, D. A. Sirianni,
    J. S. O'Brien, J. M. Waldrop, A. Kumar, E. G. Hohenstein,
    B. P. Pritchard, B. R. Brooks, H. F. Schaefer III, A. Yu. Sokolov,
    K. Patkowski, A. E. DePrince III, U. Bozkaya, R. A. King,
    F. A. Evangelista, J. M. Turney, T. D. Crawford, C. D. Sherrill,
    J. Chem. Phys. 152(18) 184108 (2020). https://doi.org/10.1063/5.0006002

                            Additional Code Authors
    E. T. Seidl, C. L. Janssen, E. F. Valeev, M. L. Leininger,
    J. F. Gonthier, R. M. Richard, H. R. McAlexander, M. Saitow, X. Wang,
    P. Verma, and M. H. Lechner

             Previous Authors, Complete List of Code Contributors,
                       and Citations for Specific Modules
    https://github.com/psi4/psi4/blob/master/codemeta.json
    https://github.com/psi4/psi4/graphs/contributors
    http://psicode.org/psi4manual/master/introduction.html#citing-psifour

    -----------------------------------------------------------------------


    Psi4 started on: Tuesday, 16 November 2021 09:43AM

    Process ID: 8727
    Host:       n092
    PSIDATADIR: /opt/psi/4/master/share/psi4
    Memory:     500.0 MiB
    Threads:    4
    
  ==> Input File <==

--------------------------------------------------------------------------
import os
memory 14 GB 
 
molecule {
 C   -0.0000000000    0.0022824411   -2.6755719853
 C   -0.0000000000    2.2592919688   -1.3255985219
 C   -0.0000000000   -2.2635417096   -1.3258768230
 C    0.0000000000    2.1567959217    1.3105233155
 C   -0.0000000000   -2.1536145641    1.3110474292
 N    0.0000000000   -0.0010227899    2.6413064062
 H   -0.0000000000   -0.0004799094   -4.7240348431
 H   -0.0000000000    4.0740544178   -2.2832221759
 H   -0.0000000000   -4.0729470027   -2.2830000217
 H   -0.0000000000    3.8881625276    2.4109280490
 H   -0.0000000000   -3.8889813012    2.4108853712
units bohr
}

basis {

assign 6-31g_2dfp_

[ 6-31g_2dfp_ ]

spherical

!----------------------------------------------------------------------
! Basis Set Exchange
! Version v0.8.13
! https://www.basissetexchange.org
!----------------------------------------------------------------------
!   Basis set: 6-31G(2df,p)
! Description: 6-31G(2df,p)
!        Role: orbital
!     Version: 0  (Data from the original Basis Set Exchange)
!----------------------------------------------------------------------


****
H     0
S    3   1.00
     18.7311370              0.03349460
      2.8253937              0.23472695
      0.6401217              0.81375733
S    1   1.00
      0.1612778              1.00000000
P    1   1.00
      1.5000000              1.0000000
P    1   1.00
      0.3750000              1.0000000
****
B     0
S    6   1.00
   2068.8823000              0.0018663
    310.6495700              0.0142515
     70.6830330              0.0695516
     19.8610800              0.2325729
      6.2993048              0.4670787
      2.1270270              0.3634314
SP   3   1.00
      4.7279710             -0.1303938              0.0745976
      1.1903377             -0.1307889              0.3078467
      0.3594117              1.1309444              0.7434568
SP   1   1.00
      0.1267512              1.0000000              1.0000000
D    1   1.00
      0.8020000              1.0000000
D    1   1.00
      0.2005000              1.0000000
F    1   1.00
      0.5000000              1.0000000
****
C     0
S    6   1.00
   3047.5249000              0.0018347
    457.3695100              0.0140373
    103.9486900              0.0688426
     29.2101550              0.2321844
      9.2866630              0.4679413
      3.1639270              0.3623120
SP   3   1.00
      7.8682724             -0.1193324              0.0689991
      1.8812885             -0.1608542              0.3164240
      0.5442493              1.1434564              0.7443083
SP   1   1.00
      0.1687144              1.0000000              1.0000000
D    1   1.00
      1.2520000              1.0000000
D    1   1.00
      0.3130000              1.0000000
F    1   1.00
      0.8000000              1.0000000
****
N     0
S    6   1.00
   4173.5110000              0.0018348
    627.4579000              0.0139950
    142.9021000              0.0685870
     40.2343300              0.2322410
     12.8202100              0.4690700
      4.3904370              0.3604550
SP   3   1.00
     11.6263580             -0.1149610              0.0675800
      2.7162800             -0.1691180              0.3239070
      0.7722180              1.1458520              0.7408950
SP   1   1.00
      0.2120313              1.0000000              1.0000000
D    1   1.00
      1.8260000              1.0000000
D    1   1.00
      0.4565000              1.0000000
F    1   1.00
      1.0000000              1.0000000
****
O     0
S    6   1.00
   5484.6717000              0.0018311
    825.2349500              0.0139501
    188.0469600              0.0684451
     52.9645000              0.2327143
     16.8975700              0.4701930
      5.7996353              0.3585209
SP   3   1.00
     15.5396160             -0.1107775              0.0708743
      3.5999336             -0.1480263              0.3397528
      1.0137618              1.1307670              0.7271586
SP   1   1.00
      0.2700058              1.0000000              1.0000000
D    1   1.00
      2.5840000              1.0000000
D    1   1.00
      0.6460000              1.0000000
F    1   1.00
      1.4000000              1.0000000
****
F     0
S    6   1.00
   7001.7130900              0.0018196169
   1051.3660900              0.0139160796
    239.2856900              0.0684053245
     67.3974453              0.233185760
     21.5199573              0.471267439
      7.40310130             0.356618546
SP   3   1.00
     20.8479528             -0.108506975            0.0716287243
      4.80830834            -0.146451658            0.3459121030
      1.34406986             1.128688580            0.7224699570
SP   1   1.00
      0.358151393            1.0000000              1.0000000
D    1   1.00
      3.5000000              1.0000000
D    1   1.00
      0.8750000              1.0000000
F    1   1.00
      1.8500000              1.0000000
****
Al     0
S    6   1.00
  13983.1000000              0.00194267
   2098.7500000              0.0148599
    477.7050000              0.0728494
    134.3600000              0.2468300
     42.8709000              0.4872580
     14.5189000              0.3234960
SP   6   1.00
    239.6680000             -0.00292619             0.00460285
     57.4419000             -0.0374080              0.0331990
     18.2859000             -0.1144870              0.1362820
      6.5991400              0.1156350              0.3304760
      2.4904900              0.6125950              0.4491460
      0.9445400              0.3937990              0.2657040
SP   3   1.00
      1.2779000             -0.2276060             -0.0175130
      0.3975900              0.00144583             0.2445330
      0.1600950              1.0927900              0.8049340
SP   1   1.00
      0.0556577              1.0000000              1.0000000
D    1   1.00
      0.6500000              1.0000000
D    1   1.00
      0.1625000              1.0000000
F    1   1.00
      0.2500000              1.0000000
****
Si     0
S    6   1.00
  16115.9000000              0.00195948
   2425.5800000              0.01492880
    553.8670000              0.07284780
    156.3400000              0.24613000
     50.0683000              0.48591400
     17.0178000              0.32500200
SP   6   1.00
    292.7180000             -0.00278094             0.00443826
     69.8731000             -0.03571460             0.03266790
     22.3363000             -0.11498500             0.13472100
      8.1503900              0.09356340             0.32867800
      3.1345800              0.60301700             0.44964000
      1.2254300              0.41895900             0.26137200
SP   3   1.00
      1.7273800             -0.24463000            -0.01779510
      0.5729220              0.00431572             0.25353900
      0.2221920              1.09818000             0.80066900
SP   1   1.00
      0.0778369              1.00000000             1.00000000
D    1   1.00
      0.9000000              1.0000000
D    1   1.00
      0.2250000              1.0000000
F    1   1.00
      0.3200000              1.0000000
****
P     0
S    6   1.00
  19413.3000000              0.0018516
   2909.4200000              0.0142062
    661.3640000              0.0699995
    185.7590000              0.2400790
     59.1943000              0.4847620
     20.0310000              0.3352000
SP   6   1.00
    339.4780000             -0.00278217             0.00456462
     81.0101000             -0.0360499              0.03369360
     25.8780000             -0.1166310              0.13975500
      9.4522100              0.0968328              0.33936200
      3.6656600              0.6144180              0.45092100
      1.4674600              0.4037980              0.23858600
SP   3   1.00
      2.1562300             -0.2529230             -0.01776530
      0.7489970              0.0328517              0.27405800
      0.2831450              1.0812500              0.78542100
SP   1   1.00
      0.0998317              1.0000000              1.00000000
D    1   1.00
      1.1000000              1.0000000
D    1   1.00
      0.2750000              1.0000000
F    1   1.00
      0.4500000              1.0000000
****
S     0
S    6   1.00
  21917.1000000              0.0018690
   3301.4900000              0.0142300
    754.1460000              0.0696960
    212.7110000              0.2384870
     67.9896000              0.4833070
     23.0515000              0.3380740
SP   6   1.00
    423.7350000             -0.0023767              0.0040610
    100.7100000             -0.0316930              0.0306810
     32.1599000             -0.1133170              0.1304520
     11.8079000              0.0560900              0.3272050
      4.6311000              0.5922550              0.4528510
      1.8702500              0.4550060              0.2560420
SP   3   1.00
      2.6158400             -0.2503740             -0.0145110
      0.9221670              0.0669570              0.3102630
      0.3412870              1.0545100              0.7544830
SP   1   1.00
      0.1171670              1.0000000              1.0000000
D    1   1.00
      1.3000000              1.0000000
D    1   1.00
      0.3250000              1.0000000
F    1   1.00
      0.5500000              1.0000000
****
Cl     0
S    6   1.00
  25180.1000000              0.0018330
   3780.3500000              0.0140340
    860.4740000              0.0690970
    242.1450000              0.2374520
     77.3349000              0.4830340
     26.2470000              0.3398560
SP   6   1.00
    491.7650000             -0.0022974              0.0039894
    116.9840000             -0.0307140              0.0303180
     37.4153000             -0.1125280              0.1298800
     13.7834000              0.0450160              0.3279510
      5.4521500              0.5893530              0.4535270
      2.2258800              0.4652060              0.2521540
SP   3   1.00
      3.1864900             -0.2518300             -0.0142990
      1.1442700              0.0615890              0.3235720
      0.4203770              1.0601800              0.7435070
SP   1   1.00
      0.1426570              1.0000000              1.0000000
D    1   1.00
      1.5000000              1.0000000
D    1   1.00
      0.3750000              1.0000000
F    1   1.00
      0.7000000              1.0000000
****
}


set {
reference rhf                          
freeze_core true
e_convergence 10                       
d_convergence 10                      
dft_spherical_points 1202
dft_radial_points 99
}

e = energy('b3lyp')

print_out('Grab this energy {0}'.format(e))
--------------------------------------------------------------------------

  Memory set to  13.039 GiB by Python driver.

Scratch directory: /tmp/

*** tstart() called on n092
*** at Tue Nov 16 09:43:32 2021

   => Loading Basis Set <=

    Name: ANONYMOUS77ED69B6
    Role: ORBITAL
    Keyword: BASIS
    atoms 1-5  entry C          line    48 inputblock 6-31g_2dfp_ 
    atoms 6    entry N          line    69 inputblock 6-31g_2dfp_ 
    atoms 7-11 entry H          line    15 inputblock 6-31g_2dfp_ 


         ---------------------------------------------------------
                                   SCF
               by Justin Turney, Rob Parrish, Andy Simmonett
                          and Daniel G. A. Smith
                              RKS Reference
                        4 Threads,  13351 MiB Core
         ---------------------------------------------------------

  ==> Geometry <==

    Molecular point group: cs
    Full point group: Cs

    Geometry (in Bohr), charge = 0, multiplicity = 1:

       Center              X                  Y                   Z               Mass       
    ------------   -----------------  -----------------  -----------------  -----------------
         C           -0.002281761367     2.675790611714     0.000000000000    12.000000000000
         C           -2.259291289067     1.325817148314     0.000000000000    12.000000000000
         C            2.263542389333     1.326095449414     0.000000000000    12.000000000000
         C           -2.156795241967    -1.310304689086     0.000000000000    12.000000000000
         C            2.153615243833    -1.310828802786     0.000000000000    12.000000000000
         N            0.001023469633    -2.641087779786     0.000000000000    14.003074004430
         H            0.000480589133     4.724253469514     0.000000000000     1.007825032230
         H           -4.074053738067     2.283440802314     0.000000000000     1.007825032230
         H            4.072947682433     2.283218648114     0.000000000000     1.007825032230
         H           -3.888161847867    -2.410709422586     0.000000000000     1.007825032230
         H            3.888981980933    -2.410666744786     0.000000000000     1.007825032230

  Running in cs symmetry.

  Rotational constants: A =      0.20192  B =      0.19312  C =      0.09871 [cm^-1]
  Rotational constants: A =   6053.34775  B =   5789.47042  C =   2959.23464 [MHz]
  Nuclear repulsion =  205.878735769084415

  Charge       = 0
  Multiplicity = 1
  Electrons    = 42
  Nalpha       = 21
  Nbeta        = 21

  ==> Algorithm <==

  SCF Algorithm Type is DF.
  DIIS enabled.
  MOM disabled.
  Fractional occupation disabled.
  Guess Type is SAD.
  Energy threshold   = 1.00e-10
  Density threshold  = 1.00e-10
  Integral threshold = 0.00e+00

  ==> Primary Basis <==

  Basis Set: ANONYMOUS77ED69B6
    Blend: 6-31G_2DFP_
    Number of shells: 68
    Number of basis function: 196
    Number of Cartesian functions: 226
    Spherical Harmonics?: true
    Max angular momentum: 3

  ==> DFT Potential <==

   => Composite Functional: B3LYP <= 

    B3LYP Hyb-GGA Exchange-Correlation Functional

    P. J. Stephens, F. J. Devlin, C. F. Chabalowski, and M. J. Frisch, J. Phys. Chem. 98, 11623 (1994)

    Deriv               =              1
    GGA                 =           TRUE
    Meta                =          FALSE

    Exchange Hybrid     =           TRUE
    MP2 Hybrid          =          FALSE

   => Exchange Functionals <=

    0.0800   Slater exchange
    0.7200         Becke 88

   => Exact (HF) Exchange <=

    0.2000               HF 

   => Correlation Functionals <=

    0.1900   Vosko, Wilk & Nusair (VWN5_RPA)
    0.8100   Lee, Yang & Parr

   => Molecular Quadrature <=

    Radial Scheme          =       TREUTLER
    Pruning Scheme         =           NONE
    Nuclear Scheme         =       TREUTLER

    BS radius alpha        =              1
    Pruning alpha          =              1
    Radial Points          =             99
    Spherical Points       =           1202
    Total Points           =        1210304
    Total Blocks           =           8112
    Max Points             =            256
    Max Functions          =            193
    Weights Tolerance      =       1.00E-15

   => Loading Basis Set <=

    Name: (ANONYMOUS77ED69B6 AUX)
    Role: JKFIT
    Keyword: DF_BASIS_SCF
    atoms 1-5  entry C          line   198 file /opt/psi/4/master/share/psi4/basis/def2-universal-jkfit.gbs 
    atoms 6    entry N          line   258 file /opt/psi/4/master/share/psi4/basis/def2-universal-jkfit.gbs 
    atoms 7-11 entry H          line    18 file /opt/psi/4/master/share/psi4/basis/def2-universal-jkfit.gbs 

  ==> Integral Setup <==

  DFHelper Memory: AOs need 0.164 GiB; user supplied 4.354 GiB. Using in-core AOs.

  ==> MemDFJK: Density-Fitted J/K Matrices <==

    J tasked:                   Yes
    K tasked:                   Yes
    wK tasked:                   No
    OpenMP threads:               4
    Memory [MiB]:              4458
    Algorithm:                 Core
    Schwarz Cutoff:           1E-12
    Mask sparsity (%):       1.3796
    Fitting Condition:        1E-10

   => Auxiliary Basis Set <=

  Basis Set: (ANONYMOUS77ED69B6 AUX)
    Blend: DEF2-UNIVERSAL-JKFIT
    Number of shells: 180
    Number of basis function: 542
    Number of Cartesian functions: 638
    Spherical Harmonics?: true
    Max angular momentum: 4

  Cached 100.0% of DFT collocation blocks in 5.425 [GiB].

  Minimum eigenvalue in the overlap matrix is 1.6146165257E-04.
  Reciprocal condition number of the overlap matrix is 2.6830052835E-05.
    Using symmetric orthogonalization.

  ==> Pre-Iterations <==

  SCF Guess: Superposition of Atomic Densities via on-the-fly atomic UHF (no occupation information).

   -------------------------
    Irrep   Nso     Nmo    
   -------------------------
     A'       132     132 
     A"        64      64 
   -------------------------
    Total     196     196
   -------------------------

  ==> Iterations <==

                           Total Energy        Delta E     RMS |[F,P]|

   @DF-RKS iter SAD:  -247.81067901922128   -2.47811e+02   0.00000e+00 
   @DF-RKS iter   1:  -248.01690711269336   -2.06228e-01   4.81999e-03 DIIS
   @DF-RKS iter   2:  -247.95418773283401    6.27194e-02   5.50485e-03 DIIS
   @DF-RKS iter   3:  -248.29156512229514   -3.37377e-01   8.33490e-04 DIIS
   @DF-RKS iter   4:  -248.29623064227962   -4.66552e-03   4.59533e-04 DIIS
   @DF-RKS iter   5:  -248.29830520211749   -2.07456e-03   1.00506e-04 DIIS
   @DF-RKS iter   6:  -248.29839487627322   -8.96742e-05   4.98629e-05 DIIS
   @DF-RKS iter   7:  -248.29842427915483   -2.94029e-05   3.00503e-06 DIIS
   @DF-RKS iter   8:  -248.29842436640541   -8.72506e-08   1.10632e-06 DIIS
   @DF-RKS iter   9:  -248.29842437807409   -1.16687e-08   2.52558e-07 DIIS
   @DF-RKS iter  10:  -248.29842437875215   -6.78057e-10   7.82413e-08 DIIS
   @DF-RKS iter  11:  -248.29842437880029   -4.81464e-11   4.47190e-08 DIIS
   @DF-RKS iter  12:  -248.29842437882294   -2.26521e-11   4.34822e-09 DIIS
   @DF-RKS iter  13:  -248.29842437882328   -3.41061e-13   6.22696e-10 DIIS
   @DF-RKS iter  14:  -248.29842437882348   -1.98952e-13   1.96403e-10 DIIS
   @DF-RKS iter  15:  -248.29842437882346    2.84217e-14   9.05761e-11 DIIS
  Energy and wave function converged.


  ==> Post-Iterations <==

    Orbital Energies [Eh]
    ---------------------

    Doubly Occupied:                                                      

       1Ap   -14.326574     2Ap   -10.215565     3Ap   -10.215421  
       4Ap   -10.202537     5Ap   -10.192299     6Ap   -10.192214  
       7Ap    -0.935777     8Ap    -0.801750     9Ap    -0.757804  
      10Ap    -0.626347    11Ap    -0.625496    12Ap    -0.525877  
      13Ap    -0.475666    14Ap    -0.468909    15Ap    -0.425486  
      16Ap    -0.401872     1App   -0.394840    17Ap    -0.361183  
       2App   -0.286422     3App   -0.261426    18Ap    -0.253522  

    Virtual:                                                              

       4App   -0.024406     5App   -0.010654    19Ap     0.087046  
      20Ap     0.124411    21Ap     0.139113     6App    0.142573  
      22Ap     0.160697    23Ap     0.166327    24Ap     0.225304  
      25Ap     0.278663    26Ap     0.301663    27Ap     0.303258  
      28Ap     0.354401    29Ap     0.406042     7App    0.421804  
      30Ap     0.430805    31Ap     0.453744    32Ap     0.459862  
      33Ap     0.461023     8App    0.489448    34Ap     0.499308  
       9App    0.508917    10App    0.521608    35Ap     0.524245  
      36Ap     0.565669    37Ap     0.596360    11App    0.602189  
      12App    0.629508    38Ap     0.630605    39Ap     0.655099  
      13App    0.656222    40Ap     0.681680    41Ap     0.701943  
      14App    0.703741    15App    0.713181    42Ap     0.722661  
      43Ap     0.738946    44Ap     0.758242    16App    0.785097  
      17App    0.807378    18App    0.831257    45Ap     0.867025  
      46Ap     0.894877    47Ap     0.915293    48Ap     0.949854  
      19App    0.965908    49Ap     0.988239    50Ap     1.037493  
      20App    1.048955    21App    1.054271    51Ap     1.073338  
      52Ap     1.105427    22App    1.112768    23App    1.137553  
      53Ap     1.178782    54Ap     1.191006    55Ap     1.221332  
      56Ap     1.272736    24App    1.282084    57Ap     1.315584  
      58Ap     1.347291    25App    1.365619    59Ap     1.375212  
      26App    1.384328    60Ap     1.392309    27App    1.400164  
      61Ap     1.425001    62Ap     1.432920    63Ap     1.499839  
      64Ap     1.525977    65Ap     1.546946    66Ap     1.616575  
      67Ap     1.627346    28App    1.676894    68Ap     1.714318  
      29App    1.752405    69Ap     1.757793    70Ap     1.858422  
      71Ap     1.977994    72Ap     2.023582    73Ap     2.166076  
      74Ap     2.250667    75Ap     2.328251    76Ap     2.355817  
      77Ap     2.366986    78Ap     2.405787    30App    2.513181  
      79Ap     2.618844    31App    2.646683    80Ap     2.762039  
      81Ap     2.763792    32App    2.797149    33App    2.809601  
      34App    2.837039    35App    2.860355    82Ap     2.887134  
      36App    2.902128    83Ap     2.929043    84Ap     2.964798  
      85Ap     3.027234    37App    3.047982    38App    3.070878  
      86Ap     3.071008    39App    3.107575    87Ap     3.148214  
      40App    3.153644    88Ap     3.170598    41App    3.181616  
      89Ap     3.193315    90Ap     3.215154    42App    3.234709  
      91Ap     3.271041    43App    3.279700    92Ap     3.301377  
      93Ap     3.323663    94Ap     3.354734    44App    3.356906  
      45App    3.357758    95Ap     3.389931    46App    3.412409  
      96Ap     3.474897    97Ap     3.534014    98Ap     3.556136  
      99Ap     3.584336    47App    3.630947    48App    3.650846  
     100Ap     3.657054   101Ap     3.689245    49App    3.719271  
      50App    3.726717   102Ap     3.762200   103Ap     3.780443  
      51App    3.927880   104Ap     3.929060   105Ap     3.936911  
      52App    3.947764    53App    3.967805   106Ap     4.019917  
      54App    4.056792   107Ap     4.086435    55App    4.092789  
     108Ap     4.096164    56App    4.105557   109Ap     4.159030  
     110Ap     4.176787   111Ap     4.237573    57App    4.350669  
      58App    4.359988   112Ap     4.423621    59App    4.427656  
     113Ap     4.437744   114Ap     4.452193   115Ap     4.495572  
      60App    4.530885   116Ap     4.667509   117Ap     4.798957  
      61App    4.836369   118Ap     4.841510   119Ap     4.847870  
     120Ap     4.907100    62App    4.981372   121Ap     4.993736  
     122Ap     5.068988   123Ap     5.119372    63App    5.175858  
      64App    5.203591   124Ap     5.224764   125Ap     5.384327  
     126Ap     5.433992   127Ap     5.452787   128Ap     5.642291  
     129Ap     5.673857   130Ap     5.931771   131Ap     5.954065  
     132Ap     6.215127  

    Final Occupation by Irrep:
             Ap   App 
    DOCC [    18,    3 ]

  @DF-RKS Final Energy:  -248.29842437882346

   => Energetics <=

    Nuclear Repulsion Energy =            205.8787357690844146
    One-Electron Energy =                -741.5607593278016338
    Two-Electron Energy =                 316.4473105932572707
    DFT Exchange-Correlation Energy =     -29.0637114133634888
    Empirical Dispersion Energy =           0.0000000000000000
    VV10 Nonlocal Energy =                  0.0000000000000000
    Total Energy =                       -248.2984243788234267

Computation Completed


Properties will be evaluated at   0.000000,   0.000000,   0.000000 [a0]

Properties computed using the SCF density matrix

  Nuclear Dipole Moment: [e a0]
     X:     0.0001      Y:     2.2213      Z:     0.0000

  Electronic Dipole Moment: [e a0]
     X:    -0.0016      Y:    -1.3835      Z:     0.0000

  Dipole Moment: [e a0]
     X:    -0.0015      Y:     0.8379      Z:     0.0000     Total:     0.8379

  Dipole Moment: [D]
     X:    -0.0037      Y:     2.1296      Z:     0.0000     Total:     2.1296


*** tstop() called on n092 at Tue Nov 16 09:44:08 2021
Module time:
	user time   =     138.20 seconds =       2.30 minutes
	system time =       1.67 seconds =       0.03 minutes
	total time  =         36 seconds =       0.60 minutes
Total time:
	user time   =     138.20 seconds =       2.30 minutes
	system time =       1.67 seconds =       0.03 minutes
	total time  =         36 seconds =       0.60 minutes
Grab this energy -248.29842437882346
    Psi4 stopped on: Tuesday, 16 November 2021 09:44AM
    Psi4 wall time for execution: 0:00:35.64

*** Psi4 exiting successfully. Buy a developer a beer!
