
    -----------------------------------------------------------------------
          Psi4: An Open-Source Ab Initio Electronic Structure Package
                               Psi4 1.4a2.dev629 

                         Git: Rev {master} 2938fc2 dirty


    D. G. A. Smith, L. A. Burns, A. C. Simmonett, R. M. Parrish,
    M. C. Schieber, R. Galvelis, P. Kraus, H. Kruse, R. Di Remigio,
    A. Alenaizan, A. M. James, S. Lehtola, J. P. Misiewicz, M. Scheurer,
    R. A. Shaw, J. B. Schriber, Y. Xie, Z. L. Glick, D. A. Sirianni,
    J. S. O'Brien, J. M. Waldrop, A. Kumar, E. G. Hohenstein,
    B. P. Pritchard, B. R. Brooks, H. F. Schaefer III, A. Yu. Sokolov,
    K. Patkowski, A. E. DePrince III, U. Bozkaya, R. A. King,
    F. A. Evangelista, J. M. Turney, T. D. Crawford, C. D. Sherrill,
    J. Chem. Phys. 152(18) 184108 (2020). https://doi.org/10.1063/5.0006002

                            Additional Code Authors
    E. T. Seidl, C. L. Janssen, E. F. Valeev, M. L. Leininger,
    J. F. Gonthier, R. M. Richard, H. R. McAlexander, M. Saitow, X. Wang,
    P. Verma, and M. H. Lechner

             Previous Authors, Complete List of Code Contributors,
                       and Citations for Specific Modules
    https://github.com/psi4/psi4/blob/master/codemeta.json
    https://github.com/psi4/psi4/graphs/contributors
    http://psicode.org/psi4manual/master/introduction.html#citing-psifour

    -----------------------------------------------------------------------


    Psi4 started on: Tuesday, 16 November 2021 09:54AM

    Process ID: 26548
    Host:       n071
    PSIDATADIR: /opt/psi/4/master/share/psi4
    Memory:     500.0 MiB
    Threads:    4
    
  ==> Input File <==

--------------------------------------------------------------------------
import os
memory 14 GB 
 
molecule {
 C    0.0000000000    0.0000000000   -2.6739771736
 C    0.0000000000    2.2665670020   -1.3288989463
 C    0.0000000000   -2.2665670020   -1.3288989463
 C   -0.0000000000    2.1610255084    1.3097271674
 C    0.0000000000   -2.1610255084    1.3097271674
 N    0.0000000000   -0.0000000000    2.6451105615
 H    0.0000000000    0.0000000000   -4.7246943771
 H    0.0000000000    4.0751606268   -2.2885977861
 H   -0.0000000000   -4.0751606268   -2.2885977861
 H   -0.0000000000    3.8896973467    2.4182431596
 H    0.0000000000   -3.8896973467    2.4182431596
units bohr
}

basis {

assign 6-31g_2dfp_

[ 6-31g_2dfp_ ]

spherical

!----------------------------------------------------------------------
! Basis Set Exchange
! Version v0.8.13
! https://www.basissetexchange.org
!----------------------------------------------------------------------
!   Basis set: 6-31G(2df,p)
! Description: 6-31G(2df,p)
!        Role: orbital
!     Version: 0  (Data from the original Basis Set Exchange)
!----------------------------------------------------------------------


****
H     0
S    3   1.00
     18.7311370              0.03349460
      2.8253937              0.23472695
      0.6401217              0.81375733
S    1   1.00
      0.1612778              1.00000000
P    1   1.00
      1.5000000              1.0000000
P    1   1.00
      0.3750000              1.0000000
****
B     0
S    6   1.00
   2068.8823000              0.0018663
    310.6495700              0.0142515
     70.6830330              0.0695516
     19.8610800              0.2325729
      6.2993048              0.4670787
      2.1270270              0.3634314
SP   3   1.00
      4.7279710             -0.1303938              0.0745976
      1.1903377             -0.1307889              0.3078467
      0.3594117              1.1309444              0.7434568
SP   1   1.00
      0.1267512              1.0000000              1.0000000
D    1   1.00
      0.8020000              1.0000000
D    1   1.00
      0.2005000              1.0000000
F    1   1.00
      0.5000000              1.0000000
****
C     0
S    6   1.00
   3047.5249000              0.0018347
    457.3695100              0.0140373
    103.9486900              0.0688426
     29.2101550              0.2321844
      9.2866630              0.4679413
      3.1639270              0.3623120
SP   3   1.00
      7.8682724             -0.1193324              0.0689991
      1.8812885             -0.1608542              0.3164240
      0.5442493              1.1434564              0.7443083
SP   1   1.00
      0.1687144              1.0000000              1.0000000
D    1   1.00
      1.2520000              1.0000000
D    1   1.00
      0.3130000              1.0000000
F    1   1.00
      0.8000000              1.0000000
****
N     0
S    6   1.00
   4173.5110000              0.0018348
    627.4579000              0.0139950
    142.9021000              0.0685870
     40.2343300              0.2322410
     12.8202100              0.4690700
      4.3904370              0.3604550
SP   3   1.00
     11.6263580             -0.1149610              0.0675800
      2.7162800             -0.1691180              0.3239070
      0.7722180              1.1458520              0.7408950
SP   1   1.00
      0.2120313              1.0000000              1.0000000
D    1   1.00
      1.8260000              1.0000000
D    1   1.00
      0.4565000              1.0000000
F    1   1.00
      1.0000000              1.0000000
****
O     0
S    6   1.00
   5484.6717000              0.0018311
    825.2349500              0.0139501
    188.0469600              0.0684451
     52.9645000              0.2327143
     16.8975700              0.4701930
      5.7996353              0.3585209
SP   3   1.00
     15.5396160             -0.1107775              0.0708743
      3.5999336             -0.1480263              0.3397528
      1.0137618              1.1307670              0.7271586
SP   1   1.00
      0.2700058              1.0000000              1.0000000
D    1   1.00
      2.5840000              1.0000000
D    1   1.00
      0.6460000              1.0000000
F    1   1.00
      1.4000000              1.0000000
****
F     0
S    6   1.00
   7001.7130900              0.0018196169
   1051.3660900              0.0139160796
    239.2856900              0.0684053245
     67.3974453              0.233185760
     21.5199573              0.471267439
      7.40310130             0.356618546
SP   3   1.00
     20.8479528             -0.108506975            0.0716287243
      4.80830834            -0.146451658            0.3459121030
      1.34406986             1.128688580            0.7224699570
SP   1   1.00
      0.358151393            1.0000000              1.0000000
D    1   1.00
      3.5000000              1.0000000
D    1   1.00
      0.8750000              1.0000000
F    1   1.00
      1.8500000              1.0000000
****
Al     0
S    6   1.00
  13983.1000000              0.00194267
   2098.7500000              0.0148599
    477.7050000              0.0728494
    134.3600000              0.2468300
     42.8709000              0.4872580
     14.5189000              0.3234960
SP   6   1.00
    239.6680000             -0.00292619             0.00460285
     57.4419000             -0.0374080              0.0331990
     18.2859000             -0.1144870              0.1362820
      6.5991400              0.1156350              0.3304760
      2.4904900              0.6125950              0.4491460
      0.9445400              0.3937990              0.2657040
SP   3   1.00
      1.2779000             -0.2276060             -0.0175130
      0.3975900              0.00144583             0.2445330
      0.1600950              1.0927900              0.8049340
SP   1   1.00
      0.0556577              1.0000000              1.0000000
D    1   1.00
      0.6500000              1.0000000
D    1   1.00
      0.1625000              1.0000000
F    1   1.00
      0.2500000              1.0000000
****
Si     0
S    6   1.00
  16115.9000000              0.00195948
   2425.5800000              0.01492880
    553.8670000              0.07284780
    156.3400000              0.24613000
     50.0683000              0.48591400
     17.0178000              0.32500200
SP   6   1.00
    292.7180000             -0.00278094             0.00443826
     69.8731000             -0.03571460             0.03266790
     22.3363000             -0.11498500             0.13472100
      8.1503900              0.09356340             0.32867800
      3.1345800              0.60301700             0.44964000
      1.2254300              0.41895900             0.26137200
SP   3   1.00
      1.7273800             -0.24463000            -0.01779510
      0.5729220              0.00431572             0.25353900
      0.2221920              1.09818000             0.80066900
SP   1   1.00
      0.0778369              1.00000000             1.00000000
D    1   1.00
      0.9000000              1.0000000
D    1   1.00
      0.2250000              1.0000000
F    1   1.00
      0.3200000              1.0000000
****
P     0
S    6   1.00
  19413.3000000              0.0018516
   2909.4200000              0.0142062
    661.3640000              0.0699995
    185.7590000              0.2400790
     59.1943000              0.4847620
     20.0310000              0.3352000
SP   6   1.00
    339.4780000             -0.00278217             0.00456462
     81.0101000             -0.0360499              0.03369360
     25.8780000             -0.1166310              0.13975500
      9.4522100              0.0968328              0.33936200
      3.6656600              0.6144180              0.45092100
      1.4674600              0.4037980              0.23858600
SP   3   1.00
      2.1562300             -0.2529230             -0.01776530
      0.7489970              0.0328517              0.27405800
      0.2831450              1.0812500              0.78542100
SP   1   1.00
      0.0998317              1.0000000              1.00000000
D    1   1.00
      1.1000000              1.0000000
D    1   1.00
      0.2750000              1.0000000
F    1   1.00
      0.4500000              1.0000000
****
S     0
S    6   1.00
  21917.1000000              0.0018690
   3301.4900000              0.0142300
    754.1460000              0.0696960
    212.7110000              0.2384870
     67.9896000              0.4833070
     23.0515000              0.3380740
SP   6   1.00
    423.7350000             -0.0023767              0.0040610
    100.7100000             -0.0316930              0.0306810
     32.1599000             -0.1133170              0.1304520
     11.8079000              0.0560900              0.3272050
      4.6311000              0.5922550              0.4528510
      1.8702500              0.4550060              0.2560420
SP   3   1.00
      2.6158400             -0.2503740             -0.0145110
      0.9221670              0.0669570              0.3102630
      0.3412870              1.0545100              0.7544830
SP   1   1.00
      0.1171670              1.0000000              1.0000000
D    1   1.00
      1.3000000              1.0000000
D    1   1.00
      0.3250000              1.0000000
F    1   1.00
      0.5500000              1.0000000
****
Cl     0
S    6   1.00
  25180.1000000              0.0018330
   3780.3500000              0.0140340
    860.4740000              0.0690970
    242.1450000              0.2374520
     77.3349000              0.4830340
     26.2470000              0.3398560
SP   6   1.00
    491.7650000             -0.0022974              0.0039894
    116.9840000             -0.0307140              0.0303180
     37.4153000             -0.1125280              0.1298800
     13.7834000              0.0450160              0.3279510
      5.4521500              0.5893530              0.4535270
      2.2258800              0.4652060              0.2521540
SP   3   1.00
      3.1864900             -0.2518300             -0.0142990
      1.1442700              0.0615890              0.3235720
      0.4203770              1.0601800              0.7435070
SP   1   1.00
      0.1426570              1.0000000              1.0000000
D    1   1.00
      1.5000000              1.0000000
D    1   1.00
      0.3750000              1.0000000
F    1   1.00
      0.7000000              1.0000000
****
}


set {
reference rhf                          
freeze_core true
e_convergence 10                       
d_convergence 10                      
dft_spherical_points 1202
dft_radial_points 99
}

e = energy('b3lyp')

print_out('Grab this energy {0}'.format(e))
--------------------------------------------------------------------------

  Memory set to  13.039 GiB by Python driver.

Scratch directory: /tmp/

*** tstart() called on n071
*** at Tue Nov 16 09:54:07 2021

   => Loading Basis Set <=

    Name: ANONYMOUS4F59FE17
    Role: ORBITAL
    Keyword: BASIS
    atoms 1-5  entry C          line    48 inputblock 6-31g_2dfp_ 
    atoms 6    entry N          line    69 inputblock 6-31g_2dfp_ 
    atoms 7-11 entry H          line    15 inputblock 6-31g_2dfp_ 


         ---------------------------------------------------------
                                   SCF
               by Justin Turney, Rob Parrish, Andy Simmonett
                          and Daniel G. A. Smith
                              RKS Reference
                        4 Threads,  13351 MiB Core
         ---------------------------------------------------------

  ==> Geometry <==

    Molecular point group: c2v
    Full point group: C2v

    Geometry (in Bohr), charge = 0, multiplicity = 1:

       Center              X                  Y                   Z               Mass       
    ------------   -----------------  -----------------  -----------------  -----------------
         C            0.000000000000     0.000000000000    -2.673869441379    12.000000000000
         C           -0.000000000000     2.266567002000    -1.328791214079    12.000000000000
         C            0.000000000000    -2.266567002000    -1.328791214079    12.000000000000
         C           -0.000000000000     2.161025508400     1.309834899621    12.000000000000
         C            0.000000000000    -2.161025508400     1.309834899621    12.000000000000
         N            0.000000000000     0.000000000000     2.645218293721    14.003074004430
         H            0.000000000000     0.000000000000    -4.724586644879     1.007825032230
         H           -0.000000000000     4.075160626800    -2.288490053879     1.007825032230
         H            0.000000000000    -4.075160626800    -2.288490053879     1.007825032230
         H           -0.000000000000     3.889697346700     2.418350891821     1.007825032230
         H            0.000000000000    -3.889697346700     2.418350891821     1.007825032230

  Running in c2v symmetry.

  Rotational constants: A =      0.20110  B =      0.19284  C =      0.09844 [cm^-1]
  Rotational constants: A =   6028.93476  B =   5781.26690  C =   2951.25198 [MHz]
  Nuclear repulsion =  205.605457247487323

  Charge       = 0
  Multiplicity = 1
  Electrons    = 42
  Nalpha       = 21
  Nbeta        = 21

  ==> Algorithm <==

  SCF Algorithm Type is DF.
  DIIS enabled.
  MOM disabled.
  Fractional occupation disabled.
  Guess Type is SAD.
  Energy threshold   = 1.00e-10
  Density threshold  = 1.00e-10
  Integral threshold = 0.00e+00

  ==> Primary Basis <==

  Basis Set: ANONYMOUS4F59FE17
    Blend: 6-31G_2DFP_
    Number of shells: 68
    Number of basis function: 196
    Number of Cartesian functions: 226
    Spherical Harmonics?: true
    Max angular momentum: 3

  ==> DFT Potential <==

   => Composite Functional: B3LYP <= 

    B3LYP Hyb-GGA Exchange-Correlation Functional

    P. J. Stephens, F. J. Devlin, C. F. Chabalowski, and M. J. Frisch, J. Phys. Chem. 98, 11623 (1994)

    Deriv               =              1
    GGA                 =           TRUE
    Meta                =          FALSE

    Exchange Hybrid     =           TRUE
    MP2 Hybrid          =          FALSE

   => Exchange Functionals <=

    0.0800   Slater exchange
    0.7200         Becke 88

   => Exact (HF) Exchange <=

    0.2000               HF 

   => Correlation Functionals <=

    0.1900   Vosko, Wilk & Nusair (VWN5_RPA)
    0.8100   Lee, Yang & Parr

   => Molecular Quadrature <=

    Radial Scheme          =       TREUTLER
    Pruning Scheme         =           NONE
    Nuclear Scheme         =       TREUTLER

    BS radius alpha        =              1
    Pruning alpha          =              1
    Radial Points          =             99
    Spherical Points       =           1202
    Total Points           =        1210375
    Total Blocks           =           8188
    Max Points             =            256
    Max Functions          =            196
    Weights Tolerance      =       1.00E-15

   => Loading Basis Set <=

    Name: (ANONYMOUS4F59FE17 AUX)
    Role: JKFIT
    Keyword: DF_BASIS_SCF
    atoms 1-5  entry C          line   198 file /opt/psi/4/master/share/psi4/basis/def2-universal-jkfit.gbs 
    atoms 6    entry N          line   258 file /opt/psi/4/master/share/psi4/basis/def2-universal-jkfit.gbs 
    atoms 7-11 entry H          line    18 file /opt/psi/4/master/share/psi4/basis/def2-universal-jkfit.gbs 

  ==> Integral Setup <==

  DFHelper Memory: AOs need 0.164 GiB; user supplied 4.348 GiB. Using in-core AOs.

  ==> MemDFJK: Density-Fitted J/K Matrices <==

    J tasked:                   Yes
    K tasked:                   Yes
    wK tasked:                   No
    OpenMP threads:               4
    Memory [MiB]:              4452
    Algorithm:                 Core
    Schwarz Cutoff:           1E-12
    Mask sparsity (%):       1.3900
    Fitting Condition:        1E-10

   => Auxiliary Basis Set <=

  Basis Set: (ANONYMOUS4F59FE17 AUX)
    Blend: DEF2-UNIVERSAL-JKFIT
    Number of shells: 180
    Number of basis function: 542
    Number of Cartesian functions: 638
    Spherical Harmonics?: true
    Max angular momentum: 4

  Cached 100.0% of DFT collocation blocks in 5.431 [GiB].

  Minimum eigenvalue in the overlap matrix is 1.4191810018E-04.
  Reciprocal condition number of the overlap matrix is 2.6153864985E-05.
    Using symmetric orthogonalization.

  ==> Pre-Iterations <==

  SCF Guess: Superposition of Atomic Densities via on-the-fly atomic UHF (no occupation information).

   -------------------------
    Irrep   Nso     Nmo    
   -------------------------
     A1        72      72 
     A2        28      28 
     B1        36      36 
     B2        60      60 
   -------------------------
    Total     196     196
   -------------------------

  ==> Iterations <==

                           Total Energy        Delta E     RMS |[F,P]|

   @DF-RKS iter SAD:  -247.79397281248615   -2.47794e+02   0.00000e+00 
   @DF-RKS iter   1:  -248.01866647679682   -2.24694e-01   6.75835e-03 DIIS
   @DF-RKS iter   2:  -247.95776008302488    6.09064e-02   7.70354e-03 DIIS
   @DF-RKS iter   3:  -248.29145310968983   -3.33693e-01   1.17418e-03 DIIS
   @DF-RKS iter   4:  -248.29614356639297   -4.69046e-03   6.44182e-04 DIIS
   @DF-RKS iter   5:  -248.29819493575735   -2.05137e-03   1.41202e-04 DIIS
   @DF-RKS iter   6:  -248.29828340467790   -8.84689e-05   7.11656e-05 DIIS
   @DF-RKS iter   7:  -248.29831377395294   -3.03693e-05   4.16897e-06 DIIS
   @DF-RKS iter   8:  -248.29831385956734   -8.56144e-08   1.50137e-06 DIIS
   @DF-RKS iter   9:  -248.29831387031297   -1.07456e-08   3.53017e-07 DIIS
   @DF-RKS iter  10:  -248.29831387102314   -7.10173e-10   6.66518e-08 DIIS
   @DF-RKS iter  11:  -248.29831387104426   -2.11173e-11   8.48782e-09 DIIS
   @DF-RKS iter  12:  -248.29831387104491   -6.53699e-13   1.21725e-09 DIIS
   @DF-RKS iter  13:  -248.29831387104451    3.97904e-13   1.71349e-10 DIIS
   @DF-RKS iter  14:  -248.29831387104468   -1.70530e-13   1.80606e-11 DIIS
  Energy and wave function converged.


  ==> Post-Iterations <==

    Orbital Energies [Eh]
    ---------------------

    Doubly Occupied:                                                      

       1A1   -14.327134     1B2   -10.216075     2A1   -10.216048  
       3A1   -10.202938     2B2   -10.192676     4A1   -10.192641  
       5A1    -0.933851     6A1    -0.801147     3B2    -0.757553  
       4B2    -0.625777     7A1    -0.625377     8A1    -0.525406  
       5B2    -0.474851     9A1    -0.469482     6B2    -0.425944  
      10A1    -0.401041     1B1    -0.393844     7B2    -0.361305  
       2B1    -0.285852     1A2    -0.261429    11A1    -0.253832  

    Virtual:                                                              

       3B1    -0.024877     2A2    -0.011038    12A1     0.087073  
       8B2     0.124519    13A1     0.139024     4B1     0.141508  
       9B2     0.160247    14A1     0.165949    15A1     0.224394  
      10B2     0.278568    11B2     0.300079    16A1     0.302157  
      17A1     0.354782    12B2     0.406959     5B1     0.422072  
      18A1     0.430326    13B2     0.453047    19A1     0.459748  
      14B2     0.459787     3A2     0.489614    20A1     0.499291  
       6B1     0.508994     7B1     0.522133    21A1     0.522783  
      15B2     0.563945    22A1     0.595820     4A2     0.602080  
       8B1     0.629734    16B2     0.630193    17B2     0.654289  
       5A2     0.655785    23A1     0.681241    24A1     0.700652  
       6A2     0.703004     9B1     0.713312    18B2     0.722008  
      25A1     0.738268    26A1     0.757897    10B1     0.785620  
       7A2     0.806908    11B1     0.830078    19B2     0.866564  
      20B2     0.893697    27A1     0.915249    28A1     0.949215  
      12B1     0.965836    29A1     0.988115    21B2     1.036904  
       8A2     1.048015    13B1     1.053673    30A1     1.073036  
      22B2     1.105461     9A2     1.111591    14B1     1.137914  
      23B2     1.178663    24B2     1.191572    31A1     1.221409  
      32A1     1.272211    15B1     1.279640    25B2     1.314238  
      33A1     1.347148    10A2     1.364532    34A1     1.374192  
      11A2     1.383471    26B2     1.390900    16B1     1.399684  
      27B2     1.424267    35A1     1.431574    36A1     1.499274  
      28B2     1.524741    37A1     1.547690    38A1     1.615404  
      29B2     1.626355    17B1     1.675401    39A1     1.712571  
      12A2     1.750509    30B2     1.756225    40A1     1.856934  
      31B2     1.973636    32B2     2.022603    41A1     2.168218  
      42A1     2.249782    33B2     2.320895    43A1     2.352157  
      34B2     2.364617    44A1     2.403576    13A2     2.512249  
      35B2     2.614703    18B1     2.645893    45A1     2.762436  
      36B2     2.762855    19B1     2.796045    14A2     2.809586  
      20B1     2.837216    15A2     2.859951    46A1     2.888145  
      21B1     2.903378    37B2     2.929098    47A1     2.963313  
      38B2     3.025817    22B1     3.046983    16A2     3.068323  
      48A1     3.071201    23B1     3.109550    49A1     3.145246  
      17A2     3.153604    39B2     3.167213    24B1     3.181732  
      40B2     3.190509    50A1     3.215374    18A2     3.235076  
      51A1     3.271575    25B1     3.282055    52A1     3.302925  
      41B2     3.321711    53A1     3.351182    19A2     3.357943  
      26B1     3.358867    42B2     3.387393    20A2     3.412579  
      54A1     3.472881    43B2     3.531697    55A1     3.558004  
      44B2     3.582832    27B1     3.630352    21A2     3.647652  
      56A1     3.657071    45B2     3.686358    28B1     3.716585  
      22A2     3.725635    57A1     3.757541    46B2     3.779339  
      29B1     3.925374    47B2     3.927538    58A1     3.932207  
      23A2     3.947609    30B1     3.966581    59A1     4.015327  
      31B1     4.055730    48B2     4.086296    60A1     4.092765  
      32B1     4.093854    24A2     4.105322    49B2     4.156167  
      61A1     4.178370    50B2     4.233609    33B1     4.346989  
      25A2     4.355716    62A1     4.421208    26A2     4.426690  
      51B2     4.436426    52B2     4.450294    63A1     4.492390  
      34B1     4.525988    53B2     4.663596    64A1     4.795481  
      35B1     4.833632    54B2     4.837315    65A1     4.848178  
      55B2     4.899845    27A2     4.971161    66A1     4.992444  
      67A1     5.065606    56B2     5.113057    36B1     5.171383  
      28A2     5.203823    68A1     5.222642    69A1     5.381502  
      57B2     5.428960    70A1     5.442417    58B2     5.636377  
      71A1     5.669657    72A1     5.922656    59B2     5.941438  
      60B2     6.209239  

    Final Occupation by Irrep:
             A1    A2    B1    B2 
    DOCC [    11,    1,    2,    7 ]

  @DF-RKS Final Energy:  -248.29831387104468

   => Energetics <=

    Nuclear Repulsion Energy =            205.6054572474873225
    One-Electron Energy =                -741.0235640059931939
    Two-Electron Energy =                 316.1776215381540851
    DFT Exchange-Correlation Energy =     -29.0578286506928478
    Empirical Dispersion Energy =           0.0000000000000000
    VV10 Nonlocal Energy =                  0.0000000000000000
    Total Energy =                       -248.2983138710446838

Computation Completed


Properties will be evaluated at   0.000000,   0.000000,   0.000000 [a0]

Properties computed using the SCF density matrix

  Nuclear Dipole Moment: [e a0]
     X:     0.0000      Y:     0.0000      Z:    -2.2190

  Electronic Dipole Moment: [e a0]
     X:     0.0000      Y:     0.0000      Z:     1.3801

  Dipole Moment: [e a0]
     X:     0.0000      Y:     0.0000      Z:    -0.8390     Total:     0.8390

  Dipole Moment: [D]
     X:     0.0000      Y:     0.0000      Z:    -2.1324     Total:     2.1324


*** tstop() called on n071 at Tue Nov 16 09:54:39 2021
Module time:
	user time   =     121.14 seconds =       2.02 minutes
	system time =       2.15 seconds =       0.04 minutes
	total time  =         32 seconds =       0.53 minutes
Total time:
	user time   =     121.14 seconds =       2.02 minutes
	system time =       2.15 seconds =       0.04 minutes
	total time  =         32 seconds =       0.53 minutes
Grab this energy -248.29831387104468
    Psi4 stopped on: Tuesday, 16 November 2021 09:54AM
    Psi4 wall time for execution: 0:00:31.88

*** Psi4 exiting successfully. Buy a developer a beer!
