
    -----------------------------------------------------------------------
          Psi4: An Open-Source Ab Initio Electronic Structure Package
                               Psi4 1.4a2.dev629 

                         Git: Rev {master} 2938fc2 dirty


    D. G. A. Smith, L. A. Burns, A. C. Simmonett, R. M. Parrish,
    M. C. Schieber, R. Galvelis, P. Kraus, H. Kruse, R. Di Remigio,
    A. Alenaizan, A. M. James, S. Lehtola, J. P. Misiewicz, M. Scheurer,
    R. A. Shaw, J. B. Schriber, Y. Xie, Z. L. Glick, D. A. Sirianni,
    J. S. O'Brien, J. M. Waldrop, A. Kumar, E. G. Hohenstein,
    B. P. Pritchard, B. R. Brooks, H. F. Schaefer III, A. Yu. Sokolov,
    K. Patkowski, A. E. DePrince III, U. Bozkaya, R. A. King,
    F. A. Evangelista, J. M. Turney, T. D. Crawford, C. D. Sherrill,
    J. Chem. Phys. 152(18) 184108 (2020). https://doi.org/10.1063/5.0006002

                            Additional Code Authors
    E. T. Seidl, C. L. Janssen, E. F. Valeev, M. L. Leininger,
    J. F. Gonthier, R. M. Richard, H. R. McAlexander, M. Saitow, X. Wang,
    P. Verma, and M. H. Lechner

             Previous Authors, Complete List of Code Contributors,
                       and Citations for Specific Modules
    https://github.com/psi4/psi4/blob/master/codemeta.json
    https://github.com/psi4/psi4/graphs/contributors
    http://psicode.org/psi4manual/master/introduction.html#citing-psifour

    -----------------------------------------------------------------------


    Psi4 started on: Wednesday, 05 January 2022 10:13AM

    Process ID: 11179
    Host:       n054
    PSIDATADIR: /opt/psi/4/master/share/psi4
    Memory:     500.0 MiB
    Threads:    4
    
  ==> Input File <==

--------------------------------------------------------------------------
import os
memory 14 GB 
 
molecule {
 C   -4.7829068403    0.1359022691   -0.0000491461
 C   -2.1109392900   -0.9713104608    0.0016821613
 C   -0.1426608086    1.1190216949    0.0009297954
 Cl    3.0112201564   -0.1423213627   -0.0005400606
 H   -6.1968373747   -1.3572578294   -0.0032169369
 H   -5.1009817601    1.3077990914   -1.6638815248
 H   -5.1006890126    1.3051379098    1.6659787557
 H   -1.8255991353   -2.1607978660    1.6604989116
 H   -1.8263270495   -2.1693895348   -1.6604885498
 H   -0.3058060093    2.3033677979    1.6754860232
 H   -0.3074387371    2.3065587814   -1.6763994292
units bohr
}

basis {

assign 6-31g_2dfp_

[ 6-31g_2dfp_ ]

spherical

!----------------------------------------------------------------------
! Basis Set Exchange
! Version v0.8.13
! https://www.basissetexchange.org
!----------------------------------------------------------------------
!   Basis set: 6-31G(2df,p)
! Description: 6-31G(2df,p)
!        Role: orbital
!     Version: 0  (Data from the original Basis Set Exchange)
!----------------------------------------------------------------------


****
H     0
S    3   1.00
     18.7311370              0.03349460
      2.8253937              0.23472695
      0.6401217              0.81375733
S    1   1.00
      0.1612778              1.00000000
P    1   1.00
      1.5000000              1.0000000
P    1   1.00
      0.3750000              1.0000000
****
B     0
S    6   1.00
   2068.8823000              0.0018663
    310.6495700              0.0142515
     70.6830330              0.0695516
     19.8610800              0.2325729
      6.2993048              0.4670787
      2.1270270              0.3634314
SP   3   1.00
      4.7279710             -0.1303938              0.0745976
      1.1903377             -0.1307889              0.3078467
      0.3594117              1.1309444              0.7434568
SP   1   1.00
      0.1267512              1.0000000              1.0000000
D    1   1.00
      0.8020000              1.0000000
D    1   1.00
      0.2005000              1.0000000
F    1   1.00
      0.5000000              1.0000000
****
C     0
S    6   1.00
   3047.5249000              0.0018347
    457.3695100              0.0140373
    103.9486900              0.0688426
     29.2101550              0.2321844
      9.2866630              0.4679413
      3.1639270              0.3623120
SP   3   1.00
      7.8682724             -0.1193324              0.0689991
      1.8812885             -0.1608542              0.3164240
      0.5442493              1.1434564              0.7443083
SP   1   1.00
      0.1687144              1.0000000              1.0000000
D    1   1.00
      1.2520000              1.0000000
D    1   1.00
      0.3130000              1.0000000
F    1   1.00
      0.8000000              1.0000000
****
N     0
S    6   1.00
   4173.5110000              0.0018348
    627.4579000              0.0139950
    142.9021000              0.0685870
     40.2343300              0.2322410
     12.8202100              0.4690700
      4.3904370              0.3604550
SP   3   1.00
     11.6263580             -0.1149610              0.0675800
      2.7162800             -0.1691180              0.3239070
      0.7722180              1.1458520              0.7408950
SP   1   1.00
      0.2120313              1.0000000              1.0000000
D    1   1.00
      1.8260000              1.0000000
D    1   1.00
      0.4565000              1.0000000
F    1   1.00
      1.0000000              1.0000000
****
O     0
S    6   1.00
   5484.6717000              0.0018311
    825.2349500              0.0139501
    188.0469600              0.0684451
     52.9645000              0.2327143
     16.8975700              0.4701930
      5.7996353              0.3585209
SP   3   1.00
     15.5396160             -0.1107775              0.0708743
      3.5999336             -0.1480263              0.3397528
      1.0137618              1.1307670              0.7271586
SP   1   1.00
      0.2700058              1.0000000              1.0000000
D    1   1.00
      2.5840000              1.0000000
D    1   1.00
      0.6460000              1.0000000
F    1   1.00
      1.4000000              1.0000000
****
F     0
S    6   1.00
   7001.7130900              0.0018196169
   1051.3660900              0.0139160796
    239.2856900              0.0684053245
     67.3974453              0.233185760
     21.5199573              0.471267439
      7.40310130             0.356618546
SP   3   1.00
     20.8479528             -0.108506975            0.0716287243
      4.80830834            -0.146451658            0.3459121030
      1.34406986             1.128688580            0.7224699570
SP   1   1.00
      0.358151393            1.0000000              1.0000000
D    1   1.00
      3.5000000              1.0000000
D    1   1.00
      0.8750000              1.0000000
F    1   1.00
      1.8500000              1.0000000
****
Al     0
S    6   1.00
  13983.1000000              0.00194267
   2098.7500000              0.0148599
    477.7050000              0.0728494
    134.3600000              0.2468300
     42.8709000              0.4872580
     14.5189000              0.3234960
SP   6   1.00
    239.6680000             -0.00292619             0.00460285
     57.4419000             -0.0374080              0.0331990
     18.2859000             -0.1144870              0.1362820
      6.5991400              0.1156350              0.3304760
      2.4904900              0.6125950              0.4491460
      0.9445400              0.3937990              0.2657040
SP   3   1.00
      1.2779000             -0.2276060             -0.0175130
      0.3975900              0.00144583             0.2445330
      0.1600950              1.0927900              0.8049340
SP   1   1.00
      0.0556577              1.0000000              1.0000000
D    1   1.00
      0.6500000              1.0000000
D    1   1.00
      0.1625000              1.0000000
F    1   1.00
      0.2500000              1.0000000
****
Si     0
S    6   1.00
  16115.9000000              0.00195948
   2425.5800000              0.01492880
    553.8670000              0.07284780
    156.3400000              0.24613000
     50.0683000              0.48591400
     17.0178000              0.32500200
SP   6   1.00
    292.7180000             -0.00278094             0.00443826
     69.8731000             -0.03571460             0.03266790
     22.3363000             -0.11498500             0.13472100
      8.1503900              0.09356340             0.32867800
      3.1345800              0.60301700             0.44964000
      1.2254300              0.41895900             0.26137200
SP   3   1.00
      1.7273800             -0.24463000            -0.01779510
      0.5729220              0.00431572             0.25353900
      0.2221920              1.09818000             0.80066900
SP   1   1.00
      0.0778369              1.00000000             1.00000000
D    1   1.00
      0.9000000              1.0000000
D    1   1.00
      0.2250000              1.0000000
F    1   1.00
      0.3200000              1.0000000
****
P     0
S    6   1.00
  19413.3000000              0.0018516
   2909.4200000              0.0142062
    661.3640000              0.0699995
    185.7590000              0.2400790
     59.1943000              0.4847620
     20.0310000              0.3352000
SP   6   1.00
    339.4780000             -0.00278217             0.00456462
     81.0101000             -0.0360499              0.03369360
     25.8780000             -0.1166310              0.13975500
      9.4522100              0.0968328              0.33936200
      3.6656600              0.6144180              0.45092100
      1.4674600              0.4037980              0.23858600
SP   3   1.00
      2.1562300             -0.2529230             -0.01776530
      0.7489970              0.0328517              0.27405800
      0.2831450              1.0812500              0.78542100
SP   1   1.00
      0.0998317              1.0000000              1.00000000
D    1   1.00
      1.1000000              1.0000000
D    1   1.00
      0.2750000              1.0000000
F    1   1.00
      0.4500000              1.0000000
****
S     0
S    6   1.00
  21917.1000000              0.0018690
   3301.4900000              0.0142300
    754.1460000              0.0696960
    212.7110000              0.2384870
     67.9896000              0.4833070
     23.0515000              0.3380740
SP   6   1.00
    423.7350000             -0.0023767              0.0040610
    100.7100000             -0.0316930              0.0306810
     32.1599000             -0.1133170              0.1304520
     11.8079000              0.0560900              0.3272050
      4.6311000              0.5922550              0.4528510
      1.8702500              0.4550060              0.2560420
SP   3   1.00
      2.6158400             -0.2503740             -0.0145110
      0.9221670              0.0669570              0.3102630
      0.3412870              1.0545100              0.7544830
SP   1   1.00
      0.1171670              1.0000000              1.0000000
D    1   1.00
      1.3000000              1.0000000
D    1   1.00
      0.3250000              1.0000000
F    1   1.00
      0.5500000              1.0000000
****
Cl     0
S    6   1.00
  25180.1000000              0.0018330
   3780.3500000              0.0140340
    860.4740000              0.0690970
    242.1450000              0.2374520
     77.3349000              0.4830340
     26.2470000              0.3398560
SP   6   1.00
    491.7650000             -0.0022974              0.0039894
    116.9840000             -0.0307140              0.0303180
     37.4153000             -0.1125280              0.1298800
     13.7834000              0.0450160              0.3279510
      5.4521500              0.5893530              0.4535270
      2.2258800              0.4652060              0.2521540
SP   3   1.00
      3.1864900             -0.2518300             -0.0142990
      1.1442700              0.0615890              0.3235720
      0.4203770              1.0601800              0.7435070
SP   1   1.00
      0.1426570              1.0000000              1.0000000
D    1   1.00
      1.5000000              1.0000000
D    1   1.00
      0.3750000              1.0000000
F    1   1.00
      0.7000000              1.0000000
****
}


set {
reference rhf                          
freeze_core true
e_convergence 10                       
d_convergence 10                      
dft_spherical_points 1202
dft_radial_points 99
}

e = energy('b3lyp')

print_out('Grab this energy {0}'.format(e))
--------------------------------------------------------------------------

  Memory set to  13.039 GiB by Python driver.

Scratch directory: /tmp/

*** tstart() called on n054
*** at Wed Jan  5 10:13:18 2022

   => Loading Basis Set <=

    Name: ANONYMOUSD8695B31
    Role: ORBITAL
    Keyword: BASIS
    atoms 1-3  entry C          line    48 inputblock 6-31g_2dfp_ 
    atoms 4    entry CL         line   244 inputblock 6-31g_2dfp_ 
    atoms 5-11 entry H          line    15 inputblock 6-31g_2dfp_ 


         ---------------------------------------------------------
                                   SCF
               by Justin Turney, Rob Parrish, Andy Simmonett
                          and Daniel G. A. Smith
                              RKS Reference
                        4 Threads,  13351 MiB Core
         ---------------------------------------------------------

  ==> Geometry <==

    Molecular point group: c1
    Full point group: C1

    Geometry (in Bohr), charge = 0, multiplicity = 1:

       Center              X                  Y                   Z               Mass       
    ------------   -----------------  -----------------  -----------------  -----------------
         C           -4.783361289074     0.136235753708    -0.000175131646    12.000000000000
         C           -2.111393738774    -0.970976976192     0.001556175754    12.000000000000
         C           -0.143115257374     1.119355179508     0.000803809854    12.000000000000
         CL           3.010765707626    -0.141987878092    -0.000666046146    34.968852682000
         H           -6.197291823474    -1.356924344792    -0.003342922446     1.007825032230
         H           -5.101436208874     1.308132576008    -1.664007510346     1.007825032230
         H           -5.101143461374     1.305471394408     1.665852770154     1.007825032230
         H           -1.826053584074    -2.160464381392     1.660372926054     1.007825032230
         H           -1.826781498274    -2.169056050192    -1.660614535346     1.007825032230
         H           -0.306260458074     2.303701282508     1.675360037654     1.007825032230
         H           -0.307893185874     2.306892266008    -1.676525414746     1.007825032230

  Running in c1 symmetry.

  Rotational constants: A =      0.86574  B =      0.07919  C =      0.07562 [cm^-1]
  Rotational constants: A =  25954.18277  B =   2374.11324  C =   2266.98553 [MHz]
  Nuclear repulsion =  158.597025285138272

  Charge       = 0
  Multiplicity = 1
  Electrons    = 42
  Nalpha       = 21
  Nbeta        = 21

  ==> Algorithm <==

  SCF Algorithm Type is DF.
  DIIS enabled.
  MOM disabled.
  Fractional occupation disabled.
  Guess Type is SAD.
  Energy threshold   = 1.00e-10
  Density threshold  = 1.00e-10
  Integral threshold = 0.00e+00

  ==> Primary Basis <==

  Basis Set: ANONYMOUSD8695B31
    Blend: 6-31G_2DFP_
    Number of shells: 62
    Number of basis function: 164
    Number of Cartesian functions: 184
    Spherical Harmonics?: true
    Max angular momentum: 3

  ==> DFT Potential <==

   => Composite Functional: B3LYP <= 

    B3LYP Hyb-GGA Exchange-Correlation Functional

    P. J. Stephens, F. J. Devlin, C. F. Chabalowski, and M. J. Frisch, J. Phys. Chem. 98, 11623 (1994)

    Deriv               =              1
    GGA                 =           TRUE
    Meta                =          FALSE

    Exchange Hybrid     =           TRUE
    MP2 Hybrid          =          FALSE

   => Exchange Functionals <=

    0.0800   Slater exchange
    0.7200         Becke 88

   => Exact (HF) Exchange <=

    0.2000               HF 

   => Correlation Functionals <=

    0.1900   Vosko, Wilk & Nusair (VWN5_RPA)
    0.8100   Lee, Yang & Parr

   => Molecular Quadrature <=

    Radial Scheme          =       TREUTLER
    Pruning Scheme         =           NONE
    Nuclear Scheme         =       TREUTLER

    BS radius alpha        =              1
    Pruning alpha          =              1
    Radial Points          =             99
    Spherical Points       =           1202
    Total Points           =        1217823
    Total Blocks           =           8115
    Max Points             =            256
    Max Functions          =            159
    Weights Tolerance      =       1.00E-15

   => Loading Basis Set <=

    Name: (ANONYMOUSD8695B31 AUX)
    Role: JKFIT
    Keyword: DF_BASIS_SCF
    atoms 1-3  entry C          line   198 file /opt/psi/4/master/share/psi4/basis/def2-universal-jkfit.gbs 
    atoms 4    entry CL         line   986 file /opt/psi/4/master/share/psi4/basis/def2-universal-jkfit.gbs 
    atoms 5-11 entry H          line    18 file /opt/psi/4/master/share/psi4/basis/def2-universal-jkfit.gbs 

  ==> Integral Setup <==

  DFHelper Memory: AOs need 0.102 GiB; user supplied 5.200 GiB. Using in-core AOs.

  ==> MemDFJK: Density-Fitted J/K Matrices <==

    J tasked:                   Yes
    K tasked:                   Yes
    wK tasked:                   No
    OpenMP threads:               4
    Memory [MiB]:              5324
    Algorithm:                 Core
    Schwarz Cutoff:           1E-12
    Mask sparsity (%):       2.5059
    Fitting Condition:        1E-10

   => Auxiliary Basis Set <=

  Basis Set: (ANONYMOUSD8695B31 AUX)
    Blend: DEF2-UNIVERSAL-JKFIT
    Number of shells: 155
    Number of basis function: 479
    Number of Cartesian functions: 562
    Spherical Harmonics?: true
    Max angular momentum: 4

  Cached 100.0% of DFT collocation blocks in 4.579 [GiB].

  Minimum eigenvalue in the overlap matrix is 1.3955792951E-03.
  Reciprocal condition number of the overlap matrix is 2.3052500553E-04.
    Using symmetric orthogonalization.

  ==> Pre-Iterations <==

  SCF Guess: Superposition of Atomic Densities via on-the-fly atomic UHF (no occupation information).

   -------------------------
    Irrep   Nso     Nmo    
   -------------------------
     A        164     164 
   -------------------------
    Total     164     164
   -------------------------

  ==> Iterations <==

                           Total Energy        Delta E     RMS |[F,P]|

   @DF-RKS iter SAD:  -578.22067747340691   -5.78221e+02   0.00000e+00 
   @DF-RKS iter   1:  -578.47670850069733   -2.56031e-01   4.32843e-03 DIIS
   @DF-RKS iter   2:  -578.32859762363944    1.48111e-01   5.29016e-03 DIIS
   @DF-RKS iter   3:  -578.74701964113012   -4.18422e-01   5.58772e-04 DIIS
   @DF-RKS iter   4:  -578.75105725789547   -4.03762e-03   2.18125e-04 DIIS
   @DF-RKS iter   5:  -578.75169585869480   -6.38601e-04   6.37282e-05 DIIS
   @DF-RKS iter   6:  -578.75174857212937   -5.27134e-05   1.17149e-05 DIIS
   @DF-RKS iter   7:  -578.75175047569689   -1.90357e-06   2.54439e-06 DIIS
   @DF-RKS iter   8:  -578.75175055682848   -8.11316e-08   6.89602e-07 DIIS
   @DF-RKS iter   9:  -578.75175056295416   -6.12567e-09   1.74059e-07 DIIS
   @DF-RKS iter  10:  -578.75175056335070   -3.96540e-10   3.13188e-08 DIIS
   @DF-RKS iter  11:  -578.75175056336377   -1.30740e-11   5.93259e-09 DIIS
   @DF-RKS iter  12:  -578.75175056336457   -7.95808e-13   1.01317e-09 DIIS
   @DF-RKS iter  13:  -578.75175056336411    4.54747e-13   2.83912e-10 DIIS
   @DF-RKS iter  14:  -578.75175056336411    0.00000e+00   5.71823e-11 DIIS
  Energy and wave function converged.


  ==> Post-Iterations <==

    Orbital Energies [Eh]
    ---------------------

    Doubly Occupied:                                                      

       1A   -101.513229     2A    -10.236916     3A    -10.190472  
       4A    -10.180870     5A     -9.441961     6A     -7.204618  
       7A     -7.196037     8A     -7.195987     9A     -0.854037  
      10A     -0.775938    11A     -0.671678    12A     -0.600348  
      13A     -0.486901    14A     -0.444348    15A     -0.426231  
      16A     -0.414412    17A     -0.366998    18A     -0.360243  
      19A     -0.349314    20A     -0.290900    21A     -0.290295  

    Virtual:                                                              

      22A      0.031773    23A      0.082899    24A      0.115089  
      25A      0.115535    26A      0.133665    27A      0.161858  
      28A      0.165134    29A      0.168867    30A      0.202902  
      31A      0.222460    32A      0.349790    33A      0.372325  
      34A      0.382098    35A      0.384405    36A      0.401470  
      37A      0.403087    38A      0.419073    39A      0.422437  
      40A      0.450497    41A      0.453210    42A      0.477827  
      43A      0.487391    44A      0.533104    45A      0.537564  
      46A      0.551602    47A      0.577900    48A      0.584725  
      49A      0.608863    50A      0.608958    51A      0.611608  
      52A      0.616757    53A      0.625406    54A      0.661837  
      55A      0.670140    56A      0.749086    57A      0.785083  
      58A      0.799702    59A      0.834612    60A      0.858340  
      61A      0.881798    62A      0.945270    63A      1.030868  
      64A      1.036934    65A      1.055008    66A      1.096740  
      67A      1.120814    68A      1.160046    69A      1.168917  
      70A      1.172593    71A      1.196700    72A      1.252665  
      73A      1.253144    74A      1.269949    75A      1.301126  
      76A      1.324704    77A      1.381194    78A      1.390547  
      79A      1.424810    80A      1.441128    81A      1.470334  
      82A      1.480456    83A      1.499745    84A      1.517383  
      85A      1.522331    86A      1.584525    87A      1.642934  
      88A      1.659764    89A      1.755099    90A      1.786023  
      91A      1.832671    92A      1.923490    93A      1.964360  
      94A      2.073585    95A      2.089110    96A      2.097462  
      97A      2.099033    98A      2.160539    99A      2.188987  
     100A      2.208077   101A      2.215642   102A      2.282490  
     103A      2.417975   104A      2.439238   105A      2.536247  
     106A      2.596668   107A      2.700590   108A      2.728542  
     109A      2.796175   110A      2.815377   111A      2.859746  
     112A      2.916963   113A      2.928929   114A      2.951898  
     115A      2.989782   116A      3.050313   117A      3.054892  
     118A      3.086942   119A      3.111987   120A      3.139253  
     121A      3.248019   122A      3.286661   123A      3.423485  
     124A      3.451946   125A      3.454935   126A      3.459914  
     127A      3.508421   128A      3.519799   129A      3.565837  
     130A      3.575727   131A      3.597490   132A      3.633680  
     133A      3.659111   134A      3.712104   135A      3.733474  
     136A      3.830155   137A      3.855284   138A      3.958214  
     139A      3.968981   140A      3.996140   141A      4.123358  
     142A      4.127701   143A      4.178854   144A      4.187032  
     145A      4.233299   146A      4.255729   147A      4.286773  
     148A      4.350625   149A      4.367924   150A      4.477415  
     151A      4.483488   152A      4.511399   153A      4.550486  
     154A      4.567759   155A      4.593427   156A      4.604393  
     157A      4.726815   158A      4.942833   159A      5.018453  
     160A      5.146608   161A      5.191057   162A      5.289864  
     163A      5.320630   164A      5.351812  

    Final Occupation by Irrep:
              A 
    DOCC [    21 ]

  @DF-RKS Final Energy:  -578.75175056336411

   => Energetics <=

    Nuclear Repulsion Energy =            158.5970252851382725
    One-Electron Energy =               -1108.5266614635945643
    Two-Electron Energy =                 409.2607022103449594
    DFT Exchange-Correlation Energy =     -38.0828165952526092
    Empirical Dispersion Energy =           0.0000000000000000
    VV10 Nonlocal Energy =                  0.0000000000000000
    Total Energy =                       -578.7517505633638848

Computation Completed


Properties will be evaluated at   0.000000,   0.000000,   0.000000 [a0]

Properties computed using the SCF density matrix

  Nuclear Dipole Moment: [e a0]
     X:   -11.7111      Y:     0.8316      Z:    -0.0011

  Electronic Dipole Moment: [e a0]
     X:    10.8734      Y:    -0.6223      Z:     0.0024

  Dipole Moment: [e a0]
     X:    -0.8376      Y:     0.2093      Z:     0.0012     Total:     0.8634

  Dipole Moment: [D]
     X:    -2.1290      Y:     0.5321      Z:     0.0031     Total:     2.1945


*** tstop() called on n054 at Wed Jan  5 10:13:43 2022
Module time:
	user time   =      96.61 seconds =       1.61 minutes
	system time =       1.35 seconds =       0.02 minutes
	total time  =         25 seconds =       0.42 minutes
Total time:
	user time   =      96.61 seconds =       1.61 minutes
	system time =       1.35 seconds =       0.02 minutes
	total time  =         25 seconds =       0.42 minutes
Grab this energy -578.7517505633641
    Psi4 stopped on: Wednesday, 05 January 2022 10:13AM
    Psi4 wall time for execution: 0:00:25.25

*** Psi4 exiting successfully. Buy a developer a beer!
