
    -----------------------------------------------------------------------
          Psi4: An Open-Source Ab Initio Electronic Structure Package
                               Psi4 1.4a2.dev629 

                         Git: Rev {master} 2938fc2 dirty


    D. G. A. Smith, L. A. Burns, A. C. Simmonett, R. M. Parrish,
    M. C. Schieber, R. Galvelis, P. Kraus, H. Kruse, R. Di Remigio,
    A. Alenaizan, A. M. James, S. Lehtola, J. P. Misiewicz, M. Scheurer,
    R. A. Shaw, J. B. Schriber, Y. Xie, Z. L. Glick, D. A. Sirianni,
    J. S. O'Brien, J. M. Waldrop, A. Kumar, E. G. Hohenstein,
    B. P. Pritchard, B. R. Brooks, H. F. Schaefer III, A. Yu. Sokolov,
    K. Patkowski, A. E. DePrince III, U. Bozkaya, R. A. King,
    F. A. Evangelista, J. M. Turney, T. D. Crawford, C. D. Sherrill,
    J. Chem. Phys. 152(18) 184108 (2020). https://doi.org/10.1063/5.0006002

                            Additional Code Authors
    E. T. Seidl, C. L. Janssen, E. F. Valeev, M. L. Leininger,
    J. F. Gonthier, R. M. Richard, H. R. McAlexander, M. Saitow, X. Wang,
    P. Verma, and M. H. Lechner

             Previous Authors, Complete List of Code Contributors,
                       and Citations for Specific Modules
    https://github.com/psi4/psi4/blob/master/codemeta.json
    https://github.com/psi4/psi4/graphs/contributors
    http://psicode.org/psi4manual/master/introduction.html#citing-psifour

    -----------------------------------------------------------------------


    Psi4 started on: Wednesday, 05 January 2022 10:14AM

    Process ID: 21201
    Host:       n062
    PSIDATADIR: /opt/psi/4/master/share/psi4
    Memory:     500.0 MiB
    Threads:    4
    
  ==> Input File <==

--------------------------------------------------------------------------
import os
memory 14 GB 
 
molecule {
 C   -4.7778056417    0.1346889830   -0.0000466175
 C   -2.1111394557   -0.9680142869    0.0016814907
 C   -0.1462969588    1.1191378840    0.0009283567
 Cl    3.0008569895   -0.1502655646   -0.0005369617
 H   -6.1916819959   -1.3647406013   -0.0032197577
 H   -5.0968744854    1.3090421034   -1.6680104327
 H   -5.0965790130    1.3063788431    1.6701139916
 H   -1.8255547295   -2.1563261109    1.6598720988
 H   -1.8262787526   -2.1649192866   -1.6598635473
 H   -0.3079922666    2.3042699486    1.6738945176
 H   -0.3096195516    2.3074585792   -1.6748131384
units bohr
}

basis {

assign 6-31g_2dfp_

[ 6-31g_2dfp_ ]

spherical

!----------------------------------------------------------------------
! Basis Set Exchange
! Version v0.8.13
! https://www.basissetexchange.org
!----------------------------------------------------------------------
!   Basis set: 6-31G(2df,p)
! Description: 6-31G(2df,p)
!        Role: orbital
!     Version: 0  (Data from the original Basis Set Exchange)
!----------------------------------------------------------------------


****
H     0
S    3   1.00
     18.7311370              0.03349460
      2.8253937              0.23472695
      0.6401217              0.81375733
S    1   1.00
      0.1612778              1.00000000
P    1   1.00
      1.5000000              1.0000000
P    1   1.00
      0.3750000              1.0000000
****
B     0
S    6   1.00
   2068.8823000              0.0018663
    310.6495700              0.0142515
     70.6830330              0.0695516
     19.8610800              0.2325729
      6.2993048              0.4670787
      2.1270270              0.3634314
SP   3   1.00
      4.7279710             -0.1303938              0.0745976
      1.1903377             -0.1307889              0.3078467
      0.3594117              1.1309444              0.7434568
SP   1   1.00
      0.1267512              1.0000000              1.0000000
D    1   1.00
      0.8020000              1.0000000
D    1   1.00
      0.2005000              1.0000000
F    1   1.00
      0.5000000              1.0000000
****
C     0
S    6   1.00
   3047.5249000              0.0018347
    457.3695100              0.0140373
    103.9486900              0.0688426
     29.2101550              0.2321844
      9.2866630              0.4679413
      3.1639270              0.3623120
SP   3   1.00
      7.8682724             -0.1193324              0.0689991
      1.8812885             -0.1608542              0.3164240
      0.5442493              1.1434564              0.7443083
SP   1   1.00
      0.1687144              1.0000000              1.0000000
D    1   1.00
      1.2520000              1.0000000
D    1   1.00
      0.3130000              1.0000000
F    1   1.00
      0.8000000              1.0000000
****
N     0
S    6   1.00
   4173.5110000              0.0018348
    627.4579000              0.0139950
    142.9021000              0.0685870
     40.2343300              0.2322410
     12.8202100              0.4690700
      4.3904370              0.3604550
SP   3   1.00
     11.6263580             -0.1149610              0.0675800
      2.7162800             -0.1691180              0.3239070
      0.7722180              1.1458520              0.7408950
SP   1   1.00
      0.2120313              1.0000000              1.0000000
D    1   1.00
      1.8260000              1.0000000
D    1   1.00
      0.4565000              1.0000000
F    1   1.00
      1.0000000              1.0000000
****
O     0
S    6   1.00
   5484.6717000              0.0018311
    825.2349500              0.0139501
    188.0469600              0.0684451
     52.9645000              0.2327143
     16.8975700              0.4701930
      5.7996353              0.3585209
SP   3   1.00
     15.5396160             -0.1107775              0.0708743
      3.5999336             -0.1480263              0.3397528
      1.0137618              1.1307670              0.7271586
SP   1   1.00
      0.2700058              1.0000000              1.0000000
D    1   1.00
      2.5840000              1.0000000
D    1   1.00
      0.6460000              1.0000000
F    1   1.00
      1.4000000              1.0000000
****
F     0
S    6   1.00
   7001.7130900              0.0018196169
   1051.3660900              0.0139160796
    239.2856900              0.0684053245
     67.3974453              0.233185760
     21.5199573              0.471267439
      7.40310130             0.356618546
SP   3   1.00
     20.8479528             -0.108506975            0.0716287243
      4.80830834            -0.146451658            0.3459121030
      1.34406986             1.128688580            0.7224699570
SP   1   1.00
      0.358151393            1.0000000              1.0000000
D    1   1.00
      3.5000000              1.0000000
D    1   1.00
      0.8750000              1.0000000
F    1   1.00
      1.8500000              1.0000000
****
Al     0
S    6   1.00
  13983.1000000              0.00194267
   2098.7500000              0.0148599
    477.7050000              0.0728494
    134.3600000              0.2468300
     42.8709000              0.4872580
     14.5189000              0.3234960
SP   6   1.00
    239.6680000             -0.00292619             0.00460285
     57.4419000             -0.0374080              0.0331990
     18.2859000             -0.1144870              0.1362820
      6.5991400              0.1156350              0.3304760
      2.4904900              0.6125950              0.4491460
      0.9445400              0.3937990              0.2657040
SP   3   1.00
      1.2779000             -0.2276060             -0.0175130
      0.3975900              0.00144583             0.2445330
      0.1600950              1.0927900              0.8049340
SP   1   1.00
      0.0556577              1.0000000              1.0000000
D    1   1.00
      0.6500000              1.0000000
D    1   1.00
      0.1625000              1.0000000
F    1   1.00
      0.2500000              1.0000000
****
Si     0
S    6   1.00
  16115.9000000              0.00195948
   2425.5800000              0.01492880
    553.8670000              0.07284780
    156.3400000              0.24613000
     50.0683000              0.48591400
     17.0178000              0.32500200
SP   6   1.00
    292.7180000             -0.00278094             0.00443826
     69.8731000             -0.03571460             0.03266790
     22.3363000             -0.11498500             0.13472100
      8.1503900              0.09356340             0.32867800
      3.1345800              0.60301700             0.44964000
      1.2254300              0.41895900             0.26137200
SP   3   1.00
      1.7273800             -0.24463000            -0.01779510
      0.5729220              0.00431572             0.25353900
      0.2221920              1.09818000             0.80066900
SP   1   1.00
      0.0778369              1.00000000             1.00000000
D    1   1.00
      0.9000000              1.0000000
D    1   1.00
      0.2250000              1.0000000
F    1   1.00
      0.3200000              1.0000000
****
P     0
S    6   1.00
  19413.3000000              0.0018516
   2909.4200000              0.0142062
    661.3640000              0.0699995
    185.7590000              0.2400790
     59.1943000              0.4847620
     20.0310000              0.3352000
SP   6   1.00
    339.4780000             -0.00278217             0.00456462
     81.0101000             -0.0360499              0.03369360
     25.8780000             -0.1166310              0.13975500
      9.4522100              0.0968328              0.33936200
      3.6656600              0.6144180              0.45092100
      1.4674600              0.4037980              0.23858600
SP   3   1.00
      2.1562300             -0.2529230             -0.01776530
      0.7489970              0.0328517              0.27405800
      0.2831450              1.0812500              0.78542100
SP   1   1.00
      0.0998317              1.0000000              1.00000000
D    1   1.00
      1.1000000              1.0000000
D    1   1.00
      0.2750000              1.0000000
F    1   1.00
      0.4500000              1.0000000
****
S     0
S    6   1.00
  21917.1000000              0.0018690
   3301.4900000              0.0142300
    754.1460000              0.0696960
    212.7110000              0.2384870
     67.9896000              0.4833070
     23.0515000              0.3380740
SP   6   1.00
    423.7350000             -0.0023767              0.0040610
    100.7100000             -0.0316930              0.0306810
     32.1599000             -0.1133170              0.1304520
     11.8079000              0.0560900              0.3272050
      4.6311000              0.5922550              0.4528510
      1.8702500              0.4550060              0.2560420
SP   3   1.00
      2.6158400             -0.2503740             -0.0145110
      0.9221670              0.0669570              0.3102630
      0.3412870              1.0545100              0.7544830
SP   1   1.00
      0.1171670              1.0000000              1.0000000
D    1   1.00
      1.3000000              1.0000000
D    1   1.00
      0.3250000              1.0000000
F    1   1.00
      0.5500000              1.0000000
****
Cl     0
S    6   1.00
  25180.1000000              0.0018330
   3780.3500000              0.0140340
    860.4740000              0.0690970
    242.1450000              0.2374520
     77.3349000              0.4830340
     26.2470000              0.3398560
SP   6   1.00
    491.7650000             -0.0022974              0.0039894
    116.9840000             -0.0307140              0.0303180
     37.4153000             -0.1125280              0.1298800
     13.7834000              0.0450160              0.3279510
      5.4521500              0.5893530              0.4535270
      2.2258800              0.4652060              0.2521540
SP   3   1.00
      3.1864900             -0.2518300             -0.0142990
      1.1442700              0.0615890              0.3235720
      0.4203770              1.0601800              0.7435070
SP   1   1.00
      0.1426570              1.0000000              1.0000000
D    1   1.00
      1.5000000              1.0000000
D    1   1.00
      0.3750000              1.0000000
F    1   1.00
      0.7000000              1.0000000
****
}


set {
reference rhf                          
freeze_core true
e_convergence 10                       
d_convergence 10                      
dft_spherical_points 1202
dft_radial_points 99
}

e = energy('b3lyp')

print_out('Grab this energy {0}'.format(e))
--------------------------------------------------------------------------

  Memory set to  13.039 GiB by Python driver.

Scratch directory: /tmp/

*** tstart() called on n062
*** at Wed Jan  5 10:14:32 2022

   => Loading Basis Set <=

    Name: ANONYMOUS1AA70A01
    Role: ORBITAL
    Keyword: BASIS
    atoms 1-3  entry C          line    48 inputblock 6-31g_2dfp_ 
    atoms 4    entry CL         line   244 inputblock 6-31g_2dfp_ 
    atoms 5-11 entry H          line    15 inputblock 6-31g_2dfp_ 


         ---------------------------------------------------------
                                   SCF
               by Justin Turney, Rob Parrish, Andy Simmonett
                          and Daniel G. A. Smith
                              RKS Reference
                        4 Threads,  13351 MiB Core
         ---------------------------------------------------------

  ==> Geometry <==

    Molecular point group: c1
    Full point group: C1

    Geometry (in Bohr), charge = 0, multiplicity = 1:

       Center              X                  Y                   Z               Mass       
    ------------   -----------------  -----------------  -----------------  -----------------
         C           -4.773927556920     0.138170496336    -0.000174010967    12.000000000000
         C           -2.107261370920    -0.964532773564     0.001554097233    12.000000000000
         C           -0.142418874020     1.122619397336     0.000800963233    12.000000000000
         CL           3.004735074280    -0.146784051264    -0.000664355167    34.968852682000
         H           -6.187803911120    -1.361259087964    -0.003347151167     1.007825032230
         H           -5.092996400620     1.312523616736    -1.668137826167     1.007825032230
         H           -5.092700928220     1.309860356436     1.669986598133     1.007825032230
         H           -1.821676644720    -2.152844597564     1.659744705333     1.007825032230
         H           -1.822400667820    -2.161437773264    -1.659990940767     1.007825032230
         H           -0.304114181820     2.307751461936     1.673767124133     1.007825032230
         H           -0.305741466820     2.310940092536    -1.674940531867     1.007825032230

  Running in c1 symmetry.

  Rotational constants: A =      0.86556  B =      0.07949  C =      0.07589 [cm^-1]
  Rotational constants: A =  25948.69691  B =   2383.13743  C =   2275.24382 [MHz]
  Nuclear repulsion =  158.792990409781851

  Charge       = 0
  Multiplicity = 1
  Electrons    = 42
  Nalpha       = 21
  Nbeta        = 21

  ==> Algorithm <==

  SCF Algorithm Type is DF.
  DIIS enabled.
  MOM disabled.
  Fractional occupation disabled.
  Guess Type is SAD.
  Energy threshold   = 1.00e-10
  Density threshold  = 1.00e-10
  Integral threshold = 0.00e+00

  ==> Primary Basis <==

  Basis Set: ANONYMOUS1AA70A01
    Blend: 6-31G_2DFP_
    Number of shells: 62
    Number of basis function: 164
    Number of Cartesian functions: 184
    Spherical Harmonics?: true
    Max angular momentum: 3

  ==> DFT Potential <==

   => Composite Functional: B3LYP <= 

    B3LYP Hyb-GGA Exchange-Correlation Functional

    P. J. Stephens, F. J. Devlin, C. F. Chabalowski, and M. J. Frisch, J. Phys. Chem. 98, 11623 (1994)

    Deriv               =              1
    GGA                 =           TRUE
    Meta                =          FALSE

    Exchange Hybrid     =           TRUE
    MP2 Hybrid          =          FALSE

   => Exchange Functionals <=

    0.0800   Slater exchange
    0.7200         Becke 88

   => Exact (HF) Exchange <=

    0.2000               HF 

   => Correlation Functionals <=

    0.1900   Vosko, Wilk & Nusair (VWN5_RPA)
    0.8100   Lee, Yang & Parr

   => Molecular Quadrature <=

    Radial Scheme          =       TREUTLER
    Pruning Scheme         =           NONE
    Nuclear Scheme         =       TREUTLER

    BS radius alpha        =              1
    Pruning alpha          =              1
    Radial Points          =             99
    Spherical Points       =           1202
    Total Points           =        1217775
    Total Blocks           =           8123
    Max Points             =            256
    Max Functions          =            159
    Weights Tolerance      =       1.00E-15

   => Loading Basis Set <=

    Name: (ANONYMOUS1AA70A01 AUX)
    Role: JKFIT
    Keyword: DF_BASIS_SCF
    atoms 1-3  entry C          line   198 file /opt/psi/4/master/share/psi4/basis/def2-universal-jkfit.gbs 
    atoms 4    entry CL         line   986 file /opt/psi/4/master/share/psi4/basis/def2-universal-jkfit.gbs 
    atoms 5-11 entry H          line    18 file /opt/psi/4/master/share/psi4/basis/def2-universal-jkfit.gbs 

  ==> Integral Setup <==

  DFHelper Memory: AOs need 0.102 GiB; user supplied 5.198 GiB. Using in-core AOs.

  ==> MemDFJK: Density-Fitted J/K Matrices <==

    J tasked:                   Yes
    K tasked:                   Yes
    wK tasked:                   No
    OpenMP threads:               4
    Memory [MiB]:              5322
    Algorithm:                 Core
    Schwarz Cutoff:           1E-12
    Mask sparsity (%):       2.4688
    Fitting Condition:        1E-10

   => Auxiliary Basis Set <=

  Basis Set: (ANONYMOUS1AA70A01 AUX)
    Blend: DEF2-UNIVERSAL-JKFIT
    Number of shells: 155
    Number of basis function: 479
    Number of Cartesian functions: 562
    Spherical Harmonics?: true
    Max angular momentum: 4

  Cached 100.0% of DFT collocation blocks in 4.581 [GiB].

  Minimum eigenvalue in the overlap matrix is 1.3860856933E-03.
  Reciprocal condition number of the overlap matrix is 2.2867474736E-04.
    Using symmetric orthogonalization.

  ==> Pre-Iterations <==

  SCF Guess: Superposition of Atomic Densities via on-the-fly atomic UHF (no occupation information).

   -------------------------
    Irrep   Nso     Nmo    
   -------------------------
     A        164     164 
   -------------------------
    Total     164     164
   -------------------------

  ==> Iterations <==

                           Total Energy        Delta E     RMS |[F,P]|

   @DF-RKS iter SAD:  -578.22802385082230   -5.78228e+02   0.00000e+00 
   @DF-RKS iter   1:  -578.47552462613191   -2.47501e-01   4.33799e-03 DIIS
   @DF-RKS iter   2:  -578.32481271040854    1.50712e-01   5.31379e-03 DIIS
   @DF-RKS iter   3:  -578.74701874662333   -4.22206e-01   5.56961e-04 DIIS
   @DF-RKS iter   4:  -578.75102136128771   -4.00261e-03   2.18605e-04 DIIS
   @DF-RKS iter   5:  -578.75166294250278   -6.41581e-04   6.38880e-05 DIIS
   @DF-RKS iter   6:  -578.75171589170395   -5.29492e-05   1.16625e-05 DIIS
   @DF-RKS iter   7:  -578.75171777971264   -1.88801e-06   2.52924e-06 DIIS
   @DF-RKS iter   8:  -578.75171786025305   -8.05404e-08   6.70693e-07 DIIS
   @DF-RKS iter   9:  -578.75171786603391   -5.78086e-09   1.70751e-07 DIIS
   @DF-RKS iter  10:  -578.75171786641329   -3.79373e-10   3.16738e-08 DIIS
   @DF-RKS iter  11:  -578.75171786642670   -1.34150e-11   5.94155e-09 DIIS
   @DF-RKS iter  12:  -578.75171786642716   -4.54747e-13   1.01762e-09 DIIS
   @DF-RKS iter  13:  -578.75171786642716    0.00000e+00   2.84063e-10 DIIS
   @DF-RKS iter  14:  -578.75171786642716    0.00000e+00   5.73643e-11 DIIS
  Energy and wave function converged.


  ==> Post-Iterations <==

    Orbital Energies [Eh]
    ---------------------

    Doubly Occupied:                                                      

       1A   -101.513204     2A    -10.236532     3A    -10.189886  
       4A    -10.181299     5A     -9.441961     6A     -7.204613  
       7A     -7.196034     8A     -7.195987     9A     -0.854713  
      10A     -0.776393    11A     -0.671379    12A     -0.600231  
      13A     -0.487345    14A     -0.444590    15A     -0.426746  
      16A     -0.414239    17A     -0.366729    18A     -0.360423  
      19A     -0.348923    20A     -0.290914    21A     -0.290290  

    Virtual:                                                              

      22A      0.032141    23A      0.082967    24A      0.114825  
      25A      0.115522    26A      0.133677    27A      0.161488  
      28A      0.165021    29A      0.168739    30A      0.203616  
      31A      0.223336    32A      0.349986    33A      0.372006  
      34A      0.382009    35A      0.384337    36A      0.401405  
      37A      0.402878    38A      0.419066    39A      0.422250  
      40A      0.450432    41A      0.453324    42A      0.477757  
      43A      0.487989    44A      0.534072    45A      0.538114  
      46A      0.552332    47A      0.577631    48A      0.585572  
      49A      0.608223    50A      0.608469    51A      0.611928  
      52A      0.616931    53A      0.625465    54A      0.662021  
      55A      0.670186    56A      0.748901    57A      0.785406  
      58A      0.800087    59A      0.835192    60A      0.858754  
      61A      0.881151    62A      0.946137    63A      1.032080  
      64A      1.036845    65A      1.055289    66A      1.097451  
      67A      1.121497    68A      1.160117    69A      1.170099  
      70A      1.173624    71A      1.197893    72A      1.253133  
      73A      1.254329    74A      1.270105    75A      1.300622  
      76A      1.325283    77A      1.380412    78A      1.389701  
      79A      1.424651    80A      1.440512    81A      1.470539  
      82A      1.480149    83A      1.499792    84A      1.518718  
      85A      1.521960    86A      1.585240    87A      1.643509  
      88A      1.660823    89A      1.754472    90A      1.783015  
      91A      1.832558    92A      1.922921    93A      1.966277  
      94A      2.074853    95A      2.089133    96A      2.097975  
      97A      2.099063    98A      2.161203    99A      2.189869  
     100A      2.209397   101A      2.216504   102A      2.283759  
     103A      2.418573   104A      2.440632   105A      2.537348  
     106A      2.597377   107A      2.699935   108A      2.729182  
     109A      2.798621   110A      2.816082   111A      2.860129  
     112A      2.915916   113A      2.928471   114A      2.951532  
     115A      2.990279   116A      3.049990   117A      3.056454  
     118A      3.087193   119A      3.113402   120A      3.140883  
     121A      3.249965   122A      3.287534   123A      3.424863  
     124A      3.455095   125A      3.456417   126A      3.459817  
     127A      3.509553   128A      3.522670   129A      3.566131  
     130A      3.574462   131A      3.597047   132A      3.635079  
     133A      3.658226   134A      3.714971   135A      3.734322  
     136A      3.831826   137A      3.857014   138A      3.959736  
     139A      3.968731   140A      3.997013   141A      4.124881  
     142A      4.129602   143A      4.178427   144A      4.182628  
     145A      4.232138   146A      4.257126   147A      4.287181  
     148A      4.349793   149A      4.371100   150A      4.478741  
     151A      4.483680   152A      4.511252   153A      4.553863  
     154A      4.568585   155A      4.598922   156A      4.605729  
     157A      4.731862   158A      4.942551   159A      5.019003  
     160A      5.148979   161A      5.191632   162A      5.283951  
     163A      5.317769   164A      5.354277  

    Final Occupation by Irrep:
              A 
    DOCC [    21 ]

  @DF-RKS Final Energy:  -578.75171786642716

   => Energetics <=

    Nuclear Repulsion Energy =            158.7929904097818508
    One-Electron Energy =               -1108.9164810267027406
    Two-Electron Energy =                 409.4556096063190012
    DFT Exchange-Correlation Energy =     -38.0838368558252469
    Empirical Dispersion Energy =           0.0000000000000000
    VV10 Nonlocal Energy =                  0.0000000000000000
    Total Energy =                       -578.7517178664270432

Computation Completed


Properties will be evaluated at   0.000000,   0.000000,   0.000000 [a0]

Properties computed using the SCF density matrix

  Nuclear Dipole Moment: [e a0]
     X:   -11.6886      Y:     0.8477      Z:    -0.0011

  Electronic Dipole Moment: [e a0]
     X:    10.8553      Y:    -0.6377      Z:     0.0024

  Dipole Moment: [e a0]
     X:    -0.8333      Y:     0.2100      Z:     0.0012     Total:     0.8594

  Dipole Moment: [D]
     X:    -2.1181      Y:     0.5338      Z:     0.0031     Total:     2.1843


*** tstop() called on n062 at Wed Jan  5 10:14:57 2022
Module time:
	user time   =      94.24 seconds =       1.57 minutes
	system time =       1.34 seconds =       0.02 minutes
	total time  =         25 seconds =       0.42 minutes
Total time:
	user time   =      94.24 seconds =       1.57 minutes
	system time =       1.34 seconds =       0.02 minutes
	total time  =         25 seconds =       0.42 minutes
Grab this energy -578.7517178664272
    Psi4 stopped on: Wednesday, 05 January 2022 10:14AM
    Psi4 wall time for execution: 0:00:24.57

*** Psi4 exiting successfully. Buy a developer a beer!
