
    -----------------------------------------------------------------------
          Psi4: An Open-Source Ab Initio Electronic Structure Package
                               Psi4 1.4a2.dev629 

                         Git: Rev {master} 2938fc2 dirty


    D. G. A. Smith, L. A. Burns, A. C. Simmonett, R. M. Parrish,
    M. C. Schieber, R. Galvelis, P. Kraus, H. Kruse, R. Di Remigio,
    A. Alenaizan, A. M. James, S. Lehtola, J. P. Misiewicz, M. Scheurer,
    R. A. Shaw, J. B. Schriber, Y. Xie, Z. L. Glick, D. A. Sirianni,
    J. S. O'Brien, J. M. Waldrop, A. Kumar, E. G. Hohenstein,
    B. P. Pritchard, B. R. Brooks, H. F. Schaefer III, A. Yu. Sokolov,
    K. Patkowski, A. E. DePrince III, U. Bozkaya, R. A. King,
    F. A. Evangelista, J. M. Turney, T. D. Crawford, C. D. Sherrill,
    J. Chem. Phys. 152(18) 184108 (2020). https://doi.org/10.1063/5.0006002

                            Additional Code Authors
    E. T. Seidl, C. L. Janssen, E. F. Valeev, M. L. Leininger,
    J. F. Gonthier, R. M. Richard, H. R. McAlexander, M. Saitow, X. Wang,
    P. Verma, and M. H. Lechner

             Previous Authors, Complete List of Code Contributors,
                       and Citations for Specific Modules
    https://github.com/psi4/psi4/blob/master/codemeta.json
    https://github.com/psi4/psi4/graphs/contributors
    http://psicode.org/psi4manual/master/introduction.html#citing-psifour

    -----------------------------------------------------------------------


    Psi4 started on: Wednesday, 05 January 2022 10:12AM

    Process ID: 19007
    Host:       n022
    PSIDATADIR: /opt/psi/4/master/share/psi4
    Memory:     500.0 MiB
    Threads:    4
    
  ==> Input File <==

--------------------------------------------------------------------------
import os
memory 14 GB 
 
molecule {
 C   -4.7859047536    0.1362646692   -0.0010945717
 C   -2.1110574233   -0.9747764712   -0.0023221886
 C   -0.1386030874    1.1192400928   -0.0022925511
 Cl    3.0187566656   -0.1326084445    0.0006073790
 H   -6.2059027405   -1.3599097407    0.0005642630
 H   -5.1026954725    1.3106193086   -1.6693892539
 H   -5.1032830784    1.3098376958    1.6703175820
 H   -1.8271482066   -2.1689067915    1.6615473575
 H   -1.8267199208   -2.1700958126   -1.6595809407
 H   -0.3027093444    2.3031534546    1.6764165142
 H   -0.3036984993    2.3038925304   -1.6747735897
units bohr
}

basis {

assign 6-31g_2dfp_

[ 6-31g_2dfp_ ]

spherical

!----------------------------------------------------------------------
! Basis Set Exchange
! Version v0.8.13
! https://www.basissetexchange.org
!----------------------------------------------------------------------
!   Basis set: 6-31G(2df,p)
! Description: 6-31G(2df,p)
!        Role: orbital
!     Version: 0  (Data from the original Basis Set Exchange)
!----------------------------------------------------------------------


****
H     0
S    3   1.00
     18.7311370              0.03349460
      2.8253937              0.23472695
      0.6401217              0.81375733
S    1   1.00
      0.1612778              1.00000000
P    1   1.00
      1.5000000              1.0000000
P    1   1.00
      0.3750000              1.0000000
****
B     0
S    6   1.00
   2068.8823000              0.0018663
    310.6495700              0.0142515
     70.6830330              0.0695516
     19.8610800              0.2325729
      6.2993048              0.4670787
      2.1270270              0.3634314
SP   3   1.00
      4.7279710             -0.1303938              0.0745976
      1.1903377             -0.1307889              0.3078467
      0.3594117              1.1309444              0.7434568
SP   1   1.00
      0.1267512              1.0000000              1.0000000
D    1   1.00
      0.8020000              1.0000000
D    1   1.00
      0.2005000              1.0000000
F    1   1.00
      0.5000000              1.0000000
****
C     0
S    6   1.00
   3047.5249000              0.0018347
    457.3695100              0.0140373
    103.9486900              0.0688426
     29.2101550              0.2321844
      9.2866630              0.4679413
      3.1639270              0.3623120
SP   3   1.00
      7.8682724             -0.1193324              0.0689991
      1.8812885             -0.1608542              0.3164240
      0.5442493              1.1434564              0.7443083
SP   1   1.00
      0.1687144              1.0000000              1.0000000
D    1   1.00
      1.2520000              1.0000000
D    1   1.00
      0.3130000              1.0000000
F    1   1.00
      0.8000000              1.0000000
****
N     0
S    6   1.00
   4173.5110000              0.0018348
    627.4579000              0.0139950
    142.9021000              0.0685870
     40.2343300              0.2322410
     12.8202100              0.4690700
      4.3904370              0.3604550
SP   3   1.00
     11.6263580             -0.1149610              0.0675800
      2.7162800             -0.1691180              0.3239070
      0.7722180              1.1458520              0.7408950
SP   1   1.00
      0.2120313              1.0000000              1.0000000
D    1   1.00
      1.8260000              1.0000000
D    1   1.00
      0.4565000              1.0000000
F    1   1.00
      1.0000000              1.0000000
****
O     0
S    6   1.00
   5484.6717000              0.0018311
    825.2349500              0.0139501
    188.0469600              0.0684451
     52.9645000              0.2327143
     16.8975700              0.4701930
      5.7996353              0.3585209
SP   3   1.00
     15.5396160             -0.1107775              0.0708743
      3.5999336             -0.1480263              0.3397528
      1.0137618              1.1307670              0.7271586
SP   1   1.00
      0.2700058              1.0000000              1.0000000
D    1   1.00
      2.5840000              1.0000000
D    1   1.00
      0.6460000              1.0000000
F    1   1.00
      1.4000000              1.0000000
****
F     0
S    6   1.00
   7001.7130900              0.0018196169
   1051.3660900              0.0139160796
    239.2856900              0.0684053245
     67.3974453              0.233185760
     21.5199573              0.471267439
      7.40310130             0.356618546
SP   3   1.00
     20.8479528             -0.108506975            0.0716287243
      4.80830834            -0.146451658            0.3459121030
      1.34406986             1.128688580            0.7224699570
SP   1   1.00
      0.358151393            1.0000000              1.0000000
D    1   1.00
      3.5000000              1.0000000
D    1   1.00
      0.8750000              1.0000000
F    1   1.00
      1.8500000              1.0000000
****
Al     0
S    6   1.00
  13983.1000000              0.00194267
   2098.7500000              0.0148599
    477.7050000              0.0728494
    134.3600000              0.2468300
     42.8709000              0.4872580
     14.5189000              0.3234960
SP   6   1.00
    239.6680000             -0.00292619             0.00460285
     57.4419000             -0.0374080              0.0331990
     18.2859000             -0.1144870              0.1362820
      6.5991400              0.1156350              0.3304760
      2.4904900              0.6125950              0.4491460
      0.9445400              0.3937990              0.2657040
SP   3   1.00
      1.2779000             -0.2276060             -0.0175130
      0.3975900              0.00144583             0.2445330
      0.1600950              1.0927900              0.8049340
SP   1   1.00
      0.0556577              1.0000000              1.0000000
D    1   1.00
      0.6500000              1.0000000
D    1   1.00
      0.1625000              1.0000000
F    1   1.00
      0.2500000              1.0000000
****
Si     0
S    6   1.00
  16115.9000000              0.00195948
   2425.5800000              0.01492880
    553.8670000              0.07284780
    156.3400000              0.24613000
     50.0683000              0.48591400
     17.0178000              0.32500200
SP   6   1.00
    292.7180000             -0.00278094             0.00443826
     69.8731000             -0.03571460             0.03266790
     22.3363000             -0.11498500             0.13472100
      8.1503900              0.09356340             0.32867800
      3.1345800              0.60301700             0.44964000
      1.2254300              0.41895900             0.26137200
SP   3   1.00
      1.7273800             -0.24463000            -0.01779510
      0.5729220              0.00431572             0.25353900
      0.2221920              1.09818000             0.80066900
SP   1   1.00
      0.0778369              1.00000000             1.00000000
D    1   1.00
      0.9000000              1.0000000
D    1   1.00
      0.2250000              1.0000000
F    1   1.00
      0.3200000              1.0000000
****
P     0
S    6   1.00
  19413.3000000              0.0018516
   2909.4200000              0.0142062
    661.3640000              0.0699995
    185.7590000              0.2400790
     59.1943000              0.4847620
     20.0310000              0.3352000
SP   6   1.00
    339.4780000             -0.00278217             0.00456462
     81.0101000             -0.0360499              0.03369360
     25.8780000             -0.1166310              0.13975500
      9.4522100              0.0968328              0.33936200
      3.6656600              0.6144180              0.45092100
      1.4674600              0.4037980              0.23858600
SP   3   1.00
      2.1562300             -0.2529230             -0.01776530
      0.7489970              0.0328517              0.27405800
      0.2831450              1.0812500              0.78542100
SP   1   1.00
      0.0998317              1.0000000              1.00000000
D    1   1.00
      1.1000000              1.0000000
D    1   1.00
      0.2750000              1.0000000
F    1   1.00
      0.4500000              1.0000000
****
S     0
S    6   1.00
  21917.1000000              0.0018690
   3301.4900000              0.0142300
    754.1460000              0.0696960
    212.7110000              0.2384870
     67.9896000              0.4833070
     23.0515000              0.3380740
SP   6   1.00
    423.7350000             -0.0023767              0.0040610
    100.7100000             -0.0316930              0.0306810
     32.1599000             -0.1133170              0.1304520
     11.8079000              0.0560900              0.3272050
      4.6311000              0.5922550              0.4528510
      1.8702500              0.4550060              0.2560420
SP   3   1.00
      2.6158400             -0.2503740             -0.0145110
      0.9221670              0.0669570              0.3102630
      0.3412870              1.0545100              0.7544830
SP   1   1.00
      0.1171670              1.0000000              1.0000000
D    1   1.00
      1.3000000              1.0000000
D    1   1.00
      0.3250000              1.0000000
F    1   1.00
      0.5500000              1.0000000
****
Cl     0
S    6   1.00
  25180.1000000              0.0018330
   3780.3500000              0.0140340
    860.4740000              0.0690970
    242.1450000              0.2374520
     77.3349000              0.4830340
     26.2470000              0.3398560
SP   6   1.00
    491.7650000             -0.0022974              0.0039894
    116.9840000             -0.0307140              0.0303180
     37.4153000             -0.1125280              0.1298800
     13.7834000              0.0450160              0.3279510
      5.4521500              0.5893530              0.4535270
      2.2258800              0.4652060              0.2521540
SP   3   1.00
      3.1864900             -0.2518300             -0.0142990
      1.1442700              0.0615890              0.3235720
      0.4203770              1.0601800              0.7435070
SP   1   1.00
      0.1426570              1.0000000              1.0000000
D    1   1.00
      1.5000000              1.0000000
D    1   1.00
      0.3750000              1.0000000
F    1   1.00
      0.7000000              1.0000000
****
}


set {
reference rhf                          
freeze_core true
e_convergence 10                       
d_convergence 10                      
dft_spherical_points 1202
dft_radial_points 99
}

e = energy('b3lyp')

print_out('Grab this energy {0}'.format(e))
--------------------------------------------------------------------------

  Memory set to  13.039 GiB by Python driver.

Scratch directory: /tmp/

*** tstart() called on n022
*** at Wed Jan  5 10:12:34 2022

   => Loading Basis Set <=

    Name: ANONYMOUSAD18D668
    Role: ORBITAL
    Keyword: BASIS
    atoms 1-3  entry C          line    48 inputblock 6-31g_2dfp_ 
    atoms 4    entry CL         line   244 inputblock 6-31g_2dfp_ 
    atoms 5-11 entry H          line    15 inputblock 6-31g_2dfp_ 


         ---------------------------------------------------------
                                   SCF
               by Justin Turney, Rob Parrish, Andy Simmonett
                          and Daniel G. A. Smith
                              RKS Reference
                        4 Threads,  13351 MiB Core
         ---------------------------------------------------------

  ==> Geometry <==

    Molecular point group: c1
    Full point group: C1

    Geometry (in Bohr), charge = 0, multiplicity = 1:

       Center              X                  Y                   Z               Mass       
    ------------   -----------------  -----------------  -----------------  -----------------
         C           -4.789772253732     0.132776927699    -0.000554600207    12.000000000000
         C           -2.114924923432    -0.978264212701    -0.001782217107    12.000000000000
         C           -0.142470587532     1.115752351299    -0.001752579607    12.000000000000
         CL           3.014889165468    -0.136096186001     0.001147350493    34.968852682000
         H           -6.209770240632    -1.363397482201     0.001104234493     1.007825032230
         H           -5.106562972632     1.307131567099    -1.668849282407     1.007825032230
         H           -5.107150578532     1.306349954299     1.670857553493     1.007825032230
         H           -1.831015706732    -2.172394533001     1.662087328993     1.007825032230
         H           -1.830587420932    -2.173583554101    -1.659040969207     1.007825032230
         H           -0.306576844532     2.299665713099     1.676956485693     1.007825032230
         H           -0.307565999432     2.300404788899    -1.674233618207     1.007825032230

  Running in c1 symmetry.

  Rotational constants: A =      0.86486  B =      0.07897  C =      0.07542 [cm^-1]
  Rotational constants: A =  25927.91982  B =   2367.50118  C =   2260.93349 [MHz]
  Nuclear repulsion =  158.421638187355683

  Charge       = 0
  Multiplicity = 1
  Electrons    = 42
  Nalpha       = 21
  Nbeta        = 21

  ==> Algorithm <==

  SCF Algorithm Type is DF.
  DIIS enabled.
  MOM disabled.
  Fractional occupation disabled.
  Guess Type is SAD.
  Energy threshold   = 1.00e-10
  Density threshold  = 1.00e-10
  Integral threshold = 0.00e+00

  ==> Primary Basis <==

  Basis Set: ANONYMOUSAD18D668
    Blend: 6-31G_2DFP_
    Number of shells: 62
    Number of basis function: 164
    Number of Cartesian functions: 184
    Spherical Harmonics?: true
    Max angular momentum: 3

  ==> DFT Potential <==

   => Composite Functional: B3LYP <= 

    B3LYP Hyb-GGA Exchange-Correlation Functional

    P. J. Stephens, F. J. Devlin, C. F. Chabalowski, and M. J. Frisch, J. Phys. Chem. 98, 11623 (1994)

    Deriv               =              1
    GGA                 =           TRUE
    Meta                =          FALSE

    Exchange Hybrid     =           TRUE
    MP2 Hybrid          =          FALSE

   => Exchange Functionals <=

    0.0800   Slater exchange
    0.7200         Becke 88

   => Exact (HF) Exchange <=

    0.2000               HF 

   => Correlation Functionals <=

    0.1900   Vosko, Wilk & Nusair (VWN5_RPA)
    0.8100   Lee, Yang & Parr

   => Molecular Quadrature <=

    Radial Scheme          =       TREUTLER
    Pruning Scheme         =           NONE
    Nuclear Scheme         =       TREUTLER

    BS radius alpha        =              1
    Pruning alpha          =              1
    Radial Points          =             99
    Spherical Points       =           1202
    Total Points           =        1217930
    Total Blocks           =           8105
    Max Points             =            256
    Max Functions          =            159
    Weights Tolerance      =       1.00E-15

   => Loading Basis Set <=

    Name: (ANONYMOUSAD18D668 AUX)
    Role: JKFIT
    Keyword: DF_BASIS_SCF
    atoms 1-3  entry C          line   198 file /opt/psi/4/master/share/psi4/basis/def2-universal-jkfit.gbs 
    atoms 4    entry CL         line   986 file /opt/psi/4/master/share/psi4/basis/def2-universal-jkfit.gbs 
    atoms 5-11 entry H          line    18 file /opt/psi/4/master/share/psi4/basis/def2-universal-jkfit.gbs 

  ==> Integral Setup <==

  DFHelper Memory: AOs need 0.101 GiB; user supplied 5.201 GiB. Using in-core AOs.

  ==> MemDFJK: Density-Fitted J/K Matrices <==

    J tasked:                   Yes
    K tasked:                   Yes
    wK tasked:                   No
    OpenMP threads:               4
    Memory [MiB]:              5325
    Algorithm:                 Core
    Schwarz Cutoff:           1E-12
    Mask sparsity (%):       2.5208
    Fitting Condition:        1E-10

   => Auxiliary Basis Set <=

  Basis Set: (ANONYMOUSAD18D668 AUX)
    Blend: DEF2-UNIVERSAL-JKFIT
    Number of shells: 155
    Number of basis function: 479
    Number of Cartesian functions: 562
    Spherical Harmonics?: true
    Max angular momentum: 4

  Cached 100.0% of DFT collocation blocks in 4.578 [GiB].

  Minimum eigenvalue in the overlap matrix is 1.4024473685E-03.
  Reciprocal condition number of the overlap matrix is 2.3213664781E-04.
    Using symmetric orthogonalization.

  ==> Pre-Iterations <==

  SCF Guess: Superposition of Atomic Densities via on-the-fly atomic UHF (no occupation information).

   -------------------------
    Irrep   Nso     Nmo    
   -------------------------
     A        164     164 
   -------------------------
    Total     164     164
   -------------------------

  ==> Iterations <==

                           Total Energy        Delta E     RMS |[F,P]|

   @DF-RKS iter SAD:  -578.21218015487318   -5.78212e+02   0.00000e+00 
   @DF-RKS iter   1:  -578.47816798977601   -2.65988e-01   4.31508e-03 DIIS
   @DF-RKS iter   2:  -578.33036953559372    1.47798e-01   5.27661e-03 DIIS
   @DF-RKS iter   3:  -578.74712203672777   -4.16753e-01   5.55526e-04 DIIS
   @DF-RKS iter   4:  -578.75111939558053   -3.99736e-03   2.16476e-04 DIIS
   @DF-RKS iter   5:  -578.75174844422622   -6.29049e-04   6.37741e-05 DIIS
   @DF-RKS iter   6:  -578.75180127337023   -5.28291e-05   1.16907e-05 DIIS
   @DF-RKS iter   7:  -578.75180317145521   -1.89808e-06   2.53757e-06 DIIS
   @DF-RKS iter   8:  -578.75180325225926   -8.08041e-08   6.88918e-07 DIIS
   @DF-RKS iter   9:  -578.75180325836618   -6.10692e-09   1.75001e-07 DIIS
   @DF-RKS iter  10:  -578.75180325876647   -4.00291e-10   3.12886e-08 DIIS
   @DF-RKS iter  11:  -578.75180325877977   -1.33014e-11   5.95420e-09 DIIS
   @DF-RKS iter  12:  -578.75180325877943    3.41061e-13   1.01300e-09 DIIS
   @DF-RKS iter  13:  -578.75180325877989   -4.54747e-13   2.85051e-10 DIIS
   @DF-RKS iter  14:  -578.75180325877943    4.54747e-13   5.74192e-11 DIIS
  Energy and wave function converged.


  ==> Post-Iterations <==

    Orbital Energies [Eh]
    ---------------------

    Doubly Occupied:                                                      

       1A   -101.513295     2A    -10.236994     3A    -10.190988  
       4A    -10.182035     5A     -9.442022     6A     -7.204681  
       7A     -7.196101     8A     -7.196045     9A     -0.853796  
      10A     -0.775333    11A     -0.671177    12A     -0.600277  
      13A     -0.486545    14A     -0.443869    15A     -0.425739  
      16A     -0.414270    17A     -0.366820    18A     -0.360175  
      19A     -0.349395    20A     -0.290897    21A     -0.290270  

    Virtual:                                                              

      22A      0.031787    23A      0.082631    24A      0.115077  
      25A      0.115370    26A      0.133319    27A      0.161078  
      28A      0.164881    29A      0.168405    30A      0.202192  
      31A      0.221585    32A      0.349539    33A      0.372529  
      34A      0.381833    35A      0.384594    36A      0.401552  
      37A      0.403188    38A      0.419171    39A      0.422482  
      40A      0.450471    41A      0.453101    42A      0.477684  
      43A      0.486830    44A      0.532355    45A      0.536685  
      46A      0.550848    47A      0.576784    48A      0.583930  
      49A      0.607546    50A      0.607924    51A      0.611530  
      52A      0.616444    53A      0.625094    54A      0.661149  
      55A      0.669314    56A      0.749251    57A      0.784567  
      58A      0.798825    59A      0.834288    60A      0.857656  
      61A      0.880383    62A      0.943715    63A      1.029652  
      64A      1.036601    65A      1.054335    66A      1.095829  
      67A      1.119704    68A      1.158836    69A      1.168079  
      70A      1.171208    71A      1.195498    72A      1.251677  
      73A      1.252308    74A      1.269456    75A      1.300166  
      76A      1.323474    77A      1.379500    78A      1.390655  
      79A      1.425271    80A      1.440922    81A      1.469036  
      82A      1.479150    83A      1.499333    84A      1.516620  
      85A      1.521011    86A      1.583141    87A      1.643156  
      88A      1.657393    89A      1.754476    90A      1.781111  
      91A      1.831954    92A      1.921773    93A      1.962200  
      94A      2.069807    95A      2.088653    96A      2.096559  
      97A      2.098957    98A      2.160065    99A      2.188277  
     100A      2.207560   101A      2.214948   102A      2.280940  
     103A      2.417852   104A      2.438107   105A      2.535743  
     106A      2.596756   107A      2.700515   108A      2.727420  
     109A      2.794091   110A      2.814005   111A      2.858220  
     112A      2.916208   113A      2.927847   114A      2.951094  
     115A      2.989169   116A      3.050574   117A      3.053362  
     118A      3.086809   119A      3.110508   120A      3.138430  
     121A      3.246484   122A      3.286008   123A      3.422190  
     124A      3.452054   125A      3.455934   126A      3.459860  
     127A      3.509305   128A      3.517879   129A      3.565410  
     130A      3.576427   131A      3.595522   132A      3.633681  
     133A      3.659641   134A      3.709759   135A      3.731795  
     136A      3.826806   137A      3.852579   138A      3.954757  
     139A      3.965304   140A      3.994852   141A      4.121010  
     142A      4.125449   143A      4.175656   144A      4.181690  
     145A      4.229728   146A      4.253196   147A      4.286157  
     148A      4.348632   149A      4.362929   150A      4.473550  
     151A      4.479753   152A      4.507884   153A      4.548118  
     154A      4.562811   155A      4.588764   156A      4.598722  
     157A      4.721099   158A      4.939013   159A      5.018517  
     160A      5.144889   161A      5.189334   162A      5.279620  
     163A      5.313925   164A      5.347436  

    Final Occupation by Irrep:
              A 
    DOCC [    21 ]

  @DF-RKS Final Energy:  -578.75180325877943

   => Energetics <=

    Nuclear Repulsion Energy =            158.4216381873556827
    One-Electron Energy =               -1108.1809230474805190
    Two-Electron Energy =                 409.0860638893009877
    DFT Exchange-Correlation Energy =     -38.0785822879555269
    Empirical Dispersion Energy =           0.0000000000000000
    VV10 Nonlocal Energy =                  0.0000000000000000
    Total Energy =                       -578.7518032587794323

Computation Completed


Properties will be evaluated at   0.000000,   0.000000,   0.000000 [a0]

Properties computed using the SCF density matrix

  Nuclear Dipole Moment: [e a0]
     X:   -11.7291      Y:     0.8121      Z:     0.0039

  Electronic Dipole Moment: [e a0]
     X:    10.8919      Y:    -0.6050      Z:    -0.0048

  Dipole Moment: [e a0]
     X:    -0.8372      Y:     0.2072      Z:    -0.0009     Total:     0.8624

  Dipole Moment: [D]
     X:    -2.1279      Y:     0.5266      Z:    -0.0024     Total:     2.1921


*** tstop() called on n022 at Wed Jan  5 10:13:04 2022
Module time:
	user time   =     118.66 seconds =       1.98 minutes
	system time =       1.14 seconds =       0.02 minutes
	total time  =         30 seconds =       0.50 minutes
Total time:
	user time   =     118.66 seconds =       1.98 minutes
	system time =       1.14 seconds =       0.02 minutes
	total time  =         30 seconds =       0.50 minutes
Grab this energy -578.7518032587794
    Psi4 stopped on: Wednesday, 05 January 2022 10:13AM
    Psi4 wall time for execution: 0:00:30.68

*** Psi4 exiting successfully. Buy a developer a beer!
