
    -----------------------------------------------------------------------
          Psi4: An Open-Source Ab Initio Electronic Structure Package
                               Psi4 1.4a2.dev629 

                         Git: Rev {master} 2938fc2 dirty


    D. G. A. Smith, L. A. Burns, A. C. Simmonett, R. M. Parrish,
    M. C. Schieber, R. Galvelis, P. Kraus, H. Kruse, R. Di Remigio,
    A. Alenaizan, A. M. James, S. Lehtola, J. P. Misiewicz, M. Scheurer,
    R. A. Shaw, J. B. Schriber, Y. Xie, Z. L. Glick, D. A. Sirianni,
    J. S. O'Brien, J. M. Waldrop, A. Kumar, E. G. Hohenstein,
    B. P. Pritchard, B. R. Brooks, H. F. Schaefer III, A. Yu. Sokolov,
    K. Patkowski, A. E. DePrince III, U. Bozkaya, R. A. King,
    F. A. Evangelista, J. M. Turney, T. D. Crawford, C. D. Sherrill,
    J. Chem. Phys. 152(18) 184108 (2020). https://doi.org/10.1063/5.0006002

                            Additional Code Authors
    E. T. Seidl, C. L. Janssen, E. F. Valeev, M. L. Leininger,
    J. F. Gonthier, R. M. Richard, H. R. McAlexander, M. Saitow, X. Wang,
    P. Verma, and M. H. Lechner

             Previous Authors, Complete List of Code Contributors,
                       and Citations for Specific Modules
    https://github.com/psi4/psi4/blob/master/codemeta.json
    https://github.com/psi4/psi4/graphs/contributors
    http://psicode.org/psi4manual/master/introduction.html#citing-psifour

    -----------------------------------------------------------------------


    Psi4 started on: Wednesday, 05 January 2022 09:59AM

    Process ID: 4345
    Host:       n035
    PSIDATADIR: /opt/psi/4/master/share/psi4
    Memory:     500.0 MiB
    Threads:    4
    
  ==> Input File <==

--------------------------------------------------------------------------
import os
memory 14 GB 
 
molecule {
 C   -4.7829069743    0.1359028946   -0.0019447854
 C   -2.1109393900   -0.9713105235   -0.0008080864
 C   -0.1426627621    1.1190216979    0.0019465411
 Cl    3.0112172034   -0.1423224457   -0.0004463412
 H   -6.1968368141   -1.3572585421    0.0008841444
 H   -5.1007515916    1.3067110250   -1.6645555214
 H   -5.1009161026    1.3062252580    1.6653071417
 H   -1.8258914013   -2.1649735261    1.6606616722
 H   -1.8260317051   -2.1652072392   -1.6603340956
 H   -0.3067031509    2.3051455416    1.6755886988
 H   -0.3065431724    2.3047763503   -1.6762993683
units bohr
}

basis {

assign 6-31g_2dfp_

[ 6-31g_2dfp_ ]

spherical

!----------------------------------------------------------------------
! Basis Set Exchange
! Version v0.8.13
! https://www.basissetexchange.org
!----------------------------------------------------------------------
!   Basis set: 6-31G(2df,p)
! Description: 6-31G(2df,p)
!        Role: orbital
!     Version: 0  (Data from the original Basis Set Exchange)
!----------------------------------------------------------------------


****
H     0
S    3   1.00
     18.7311370              0.03349460
      2.8253937              0.23472695
      0.6401217              0.81375733
S    1   1.00
      0.1612778              1.00000000
P    1   1.00
      1.5000000              1.0000000
P    1   1.00
      0.3750000              1.0000000
****
B     0
S    6   1.00
   2068.8823000              0.0018663
    310.6495700              0.0142515
     70.6830330              0.0695516
     19.8610800              0.2325729
      6.2993048              0.4670787
      2.1270270              0.3634314
SP   3   1.00
      4.7279710             -0.1303938              0.0745976
      1.1903377             -0.1307889              0.3078467
      0.3594117              1.1309444              0.7434568
SP   1   1.00
      0.1267512              1.0000000              1.0000000
D    1   1.00
      0.8020000              1.0000000
D    1   1.00
      0.2005000              1.0000000
F    1   1.00
      0.5000000              1.0000000
****
C     0
S    6   1.00
   3047.5249000              0.0018347
    457.3695100              0.0140373
    103.9486900              0.0688426
     29.2101550              0.2321844
      9.2866630              0.4679413
      3.1639270              0.3623120
SP   3   1.00
      7.8682724             -0.1193324              0.0689991
      1.8812885             -0.1608542              0.3164240
      0.5442493              1.1434564              0.7443083
SP   1   1.00
      0.1687144              1.0000000              1.0000000
D    1   1.00
      1.2520000              1.0000000
D    1   1.00
      0.3130000              1.0000000
F    1   1.00
      0.8000000              1.0000000
****
N     0
S    6   1.00
   4173.5110000              0.0018348
    627.4579000              0.0139950
    142.9021000              0.0685870
     40.2343300              0.2322410
     12.8202100              0.4690700
      4.3904370              0.3604550
SP   3   1.00
     11.6263580             -0.1149610              0.0675800
      2.7162800             -0.1691180              0.3239070
      0.7722180              1.1458520              0.7408950
SP   1   1.00
      0.2120313              1.0000000              1.0000000
D    1   1.00
      1.8260000              1.0000000
D    1   1.00
      0.4565000              1.0000000
F    1   1.00
      1.0000000              1.0000000
****
O     0
S    6   1.00
   5484.6717000              0.0018311
    825.2349500              0.0139501
    188.0469600              0.0684451
     52.9645000              0.2327143
     16.8975700              0.4701930
      5.7996353              0.3585209
SP   3   1.00
     15.5396160             -0.1107775              0.0708743
      3.5999336             -0.1480263              0.3397528
      1.0137618              1.1307670              0.7271586
SP   1   1.00
      0.2700058              1.0000000              1.0000000
D    1   1.00
      2.5840000              1.0000000
D    1   1.00
      0.6460000              1.0000000
F    1   1.00
      1.4000000              1.0000000
****
F     0
S    6   1.00
   7001.7130900              0.0018196169
   1051.3660900              0.0139160796
    239.2856900              0.0684053245
     67.3974453              0.233185760
     21.5199573              0.471267439
      7.40310130             0.356618546
SP   3   1.00
     20.8479528             -0.108506975            0.0716287243
      4.80830834            -0.146451658            0.3459121030
      1.34406986             1.128688580            0.7224699570
SP   1   1.00
      0.358151393            1.0000000              1.0000000
D    1   1.00
      3.5000000              1.0000000
D    1   1.00
      0.8750000              1.0000000
F    1   1.00
      1.8500000              1.0000000
****
Al     0
S    6   1.00
  13983.1000000              0.00194267
   2098.7500000              0.0148599
    477.7050000              0.0728494
    134.3600000              0.2468300
     42.8709000              0.4872580
     14.5189000              0.3234960
SP   6   1.00
    239.6680000             -0.00292619             0.00460285
     57.4419000             -0.0374080              0.0331990
     18.2859000             -0.1144870              0.1362820
      6.5991400              0.1156350              0.3304760
      2.4904900              0.6125950              0.4491460
      0.9445400              0.3937990              0.2657040
SP   3   1.00
      1.2779000             -0.2276060             -0.0175130
      0.3975900              0.00144583             0.2445330
      0.1600950              1.0927900              0.8049340
SP   1   1.00
      0.0556577              1.0000000              1.0000000
D    1   1.00
      0.6500000              1.0000000
D    1   1.00
      0.1625000              1.0000000
F    1   1.00
      0.2500000              1.0000000
****
Si     0
S    6   1.00
  16115.9000000              0.00195948
   2425.5800000              0.01492880
    553.8670000              0.07284780
    156.3400000              0.24613000
     50.0683000              0.48591400
     17.0178000              0.32500200
SP   6   1.00
    292.7180000             -0.00278094             0.00443826
     69.8731000             -0.03571460             0.03266790
     22.3363000             -0.11498500             0.13472100
      8.1503900              0.09356340             0.32867800
      3.1345800              0.60301700             0.44964000
      1.2254300              0.41895900             0.26137200
SP   3   1.00
      1.7273800             -0.24463000            -0.01779510
      0.5729220              0.00431572             0.25353900
      0.2221920              1.09818000             0.80066900
SP   1   1.00
      0.0778369              1.00000000             1.00000000
D    1   1.00
      0.9000000              1.0000000
D    1   1.00
      0.2250000              1.0000000
F    1   1.00
      0.3200000              1.0000000
****
P     0
S    6   1.00
  19413.3000000              0.0018516
   2909.4200000              0.0142062
    661.3640000              0.0699995
    185.7590000              0.2400790
     59.1943000              0.4847620
     20.0310000              0.3352000
SP   6   1.00
    339.4780000             -0.00278217             0.00456462
     81.0101000             -0.0360499              0.03369360
     25.8780000             -0.1166310              0.13975500
      9.4522100              0.0968328              0.33936200
      3.6656600              0.6144180              0.45092100
      1.4674600              0.4037980              0.23858600
SP   3   1.00
      2.1562300             -0.2529230             -0.01776530
      0.7489970              0.0328517              0.27405800
      0.2831450              1.0812500              0.78542100
SP   1   1.00
      0.0998317              1.0000000              1.00000000
D    1   1.00
      1.1000000              1.0000000
D    1   1.00
      0.2750000              1.0000000
F    1   1.00
      0.4500000              1.0000000
****
S     0
S    6   1.00
  21917.1000000              0.0018690
   3301.4900000              0.0142300
    754.1460000              0.0696960
    212.7110000              0.2384870
     67.9896000              0.4833070
     23.0515000              0.3380740
SP   6   1.00
    423.7350000             -0.0023767              0.0040610
    100.7100000             -0.0316930              0.0306810
     32.1599000             -0.1133170              0.1304520
     11.8079000              0.0560900              0.3272050
      4.6311000              0.5922550              0.4528510
      1.8702500              0.4550060              0.2560420
SP   3   1.00
      2.6158400             -0.2503740             -0.0145110
      0.9221670              0.0669570              0.3102630
      0.3412870              1.0545100              0.7544830
SP   1   1.00
      0.1171670              1.0000000              1.0000000
D    1   1.00
      1.3000000              1.0000000
D    1   1.00
      0.3250000              1.0000000
F    1   1.00
      0.5500000              1.0000000
****
Cl     0
S    6   1.00
  25180.1000000              0.0018330
   3780.3500000              0.0140340
    860.4740000              0.0690970
    242.1450000              0.2374520
     77.3349000              0.4830340
     26.2470000              0.3398560
SP   6   1.00
    491.7650000             -0.0022974              0.0039894
    116.9840000             -0.0307140              0.0303180
     37.4153000             -0.1125280              0.1298800
     13.7834000              0.0450160              0.3279510
      5.4521500              0.5893530              0.4535270
      2.2258800              0.4652060              0.2521540
SP   3   1.00
      3.1864900             -0.2518300             -0.0142990
      1.1442700              0.0615890              0.3235720
      0.4203770              1.0601800              0.7435070
SP   1   1.00
      0.1426570              1.0000000              1.0000000
D    1   1.00
      1.5000000              1.0000000
D    1   1.00
      0.3750000              1.0000000
F    1   1.00
      0.7000000              1.0000000
****
}


set {
reference rhf                          
freeze_core true
e_convergence 10                       
d_convergence 10                      
dft_spherical_points 1202
dft_radial_points 99
}

e = energy('b3lyp')

print_out('Grab this energy {0}'.format(e))
--------------------------------------------------------------------------

  Memory set to  13.039 GiB by Python driver.

Scratch directory: /tmp/

*** tstart() called on n035
*** at Wed Jan  5 09:59:53 2022

   => Loading Basis Set <=

    Name: ANONYMOUS7B372122
    Role: ORBITAL
    Keyword: BASIS
    atoms 1-3  entry C          line    48 inputblock 6-31g_2dfp_ 
    atoms 4    entry CL         line   244 inputblock 6-31g_2dfp_ 
    atoms 5-11 entry H          line    15 inputblock 6-31g_2dfp_ 


         ---------------------------------------------------------
                                   SCF
               by Justin Turney, Rob Parrish, Andy Simmonett
                          and Daniel G. A. Smith
                              RKS Reference
                        4 Threads,  13351 MiB Core
         ---------------------------------------------------------

  ==> Geometry <==

    Molecular point group: c1
    Full point group: C1

    Geometry (in Bohr), charge = 0, multiplicity = 1:

       Center              X                  Y                   Z               Mass       
    ------------   -----------------  -----------------  -----------------  -----------------
         C           -4.783359829554     0.136236770890    -0.001636910277    12.000000000000
         C           -2.111392245254    -0.970976647210    -0.000500211277    12.000000000000
         C           -0.143115617354     1.119355574190     0.002254416223    12.000000000000
         CL           3.010764348146    -0.141988569410    -0.000138466077    34.968852682000
         H           -6.197289669354    -1.356924665810     0.001192019523     1.007825032230
         H           -5.101204446854     1.307044901290    -1.664247646277     1.007825032230
         H           -5.101368957854     1.306559134290     1.665615016823     1.007825032230
         H           -1.826344256554    -2.164639649810     1.660969547323     1.007825032230
         H           -1.826484560354    -2.164873362910    -1.660026220477     1.007825032230
         H           -0.307156006154     2.305479417890     1.675896573923     1.007825032230
         H           -0.306996027654     2.305110226590    -1.675991493177     1.007825032230

  Running in c1 symmetry.

  Rotational constants: A =      0.86574  B =      0.07919  C =      0.07562 [cm^-1]
  Rotational constants: A =  25954.18304  B =   2374.11510  C =   2266.98753 [MHz]
  Nuclear repulsion =  158.597042287011050

  Charge       = 0
  Multiplicity = 1
  Electrons    = 42
  Nalpha       = 21
  Nbeta        = 21

  ==> Algorithm <==

  SCF Algorithm Type is DF.
  DIIS enabled.
  MOM disabled.
  Fractional occupation disabled.
  Guess Type is SAD.
  Energy threshold   = 1.00e-10
  Density threshold  = 1.00e-10
  Integral threshold = 0.00e+00

  ==> Primary Basis <==

  Basis Set: ANONYMOUS7B372122
    Blend: 6-31G_2DFP_
    Number of shells: 62
    Number of basis function: 164
    Number of Cartesian functions: 184
    Spherical Harmonics?: true
    Max angular momentum: 3

  ==> DFT Potential <==

   => Composite Functional: B3LYP <= 

    B3LYP Hyb-GGA Exchange-Correlation Functional

    P. J. Stephens, F. J. Devlin, C. F. Chabalowski, and M. J. Frisch, J. Phys. Chem. 98, 11623 (1994)

    Deriv               =              1
    GGA                 =           TRUE
    Meta                =          FALSE

    Exchange Hybrid     =           TRUE
    MP2 Hybrid          =          FALSE

   => Exchange Functionals <=

    0.0800   Slater exchange
    0.7200         Becke 88

   => Exact (HF) Exchange <=

    0.2000               HF 

   => Correlation Functionals <=

    0.1900   Vosko, Wilk & Nusair (VWN5_RPA)
    0.8100   Lee, Yang & Parr

   => Molecular Quadrature <=

    Radial Scheme          =       TREUTLER
    Pruning Scheme         =           NONE
    Nuclear Scheme         =       TREUTLER

    BS radius alpha        =              1
    Pruning alpha          =              1
    Radial Points          =             99
    Spherical Points       =           1202
    Total Points           =        1217823
    Total Blocks           =           8147
    Max Points             =            256
    Max Functions          =            159
    Weights Tolerance      =       1.00E-15

   => Loading Basis Set <=

    Name: (ANONYMOUS7B372122 AUX)
    Role: JKFIT
    Keyword: DF_BASIS_SCF
    atoms 1-3  entry C          line   198 file /opt/psi/4/master/share/psi4/basis/def2-universal-jkfit.gbs 
    atoms 4    entry CL         line   986 file /opt/psi/4/master/share/psi4/basis/def2-universal-jkfit.gbs 
    atoms 5-11 entry H          line    18 file /opt/psi/4/master/share/psi4/basis/def2-universal-jkfit.gbs 

  ==> Integral Setup <==

  DFHelper Memory: AOs need 0.102 GiB; user supplied 5.201 GiB. Using in-core AOs.

  ==> MemDFJK: Density-Fitted J/K Matrices <==

    J tasked:                   Yes
    K tasked:                   Yes
    wK tasked:                   No
    OpenMP threads:               4
    Memory [MiB]:              5325
    Algorithm:                 Core
    Schwarz Cutoff:           1E-12
    Mask sparsity (%):       2.5059
    Fitting Condition:        1E-10

   => Auxiliary Basis Set <=

  Basis Set: (ANONYMOUS7B372122 AUX)
    Blend: DEF2-UNIVERSAL-JKFIT
    Number of shells: 155
    Number of basis function: 479
    Number of Cartesian functions: 562
    Spherical Harmonics?: true
    Max angular momentum: 4

  Cached 100.0% of DFT collocation blocks in 4.578 [GiB].

  Minimum eigenvalue in the overlap matrix is 1.3955754823E-03.
  Reciprocal condition number of the overlap matrix is 2.3052444077E-04.
    Using symmetric orthogonalization.

  ==> Pre-Iterations <==

  SCF Guess: Superposition of Atomic Densities via on-the-fly atomic UHF (no occupation information).

   -------------------------
    Irrep   Nso     Nmo    
   -------------------------
     A        164     164 
   -------------------------
    Total     164     164
   -------------------------

  ==> Iterations <==

                           Total Energy        Delta E     RMS |[F,P]|

   @DF-RKS iter SAD:  -578.22067557034586   -5.78221e+02   0.00000e+00 
   @DF-RKS iter   1:  -578.47671301033790   -2.56037e-01   4.32843e-03 DIIS
   @DF-RKS iter   2:  -578.32860357592801    1.48109e-01   5.29015e-03 DIIS
   @DF-RKS iter   3:  -578.74702340102453   -4.18420e-01   5.58768e-04 DIIS
   @DF-RKS iter   4:  -578.75106096551360   -4.03756e-03   2.18123e-04 DIIS
   @DF-RKS iter   5:  -578.75169955075626   -6.38585e-04   6.37282e-05 DIIS
   @DF-RKS iter   6:  -578.75175226420072   -5.27134e-05   1.17148e-05 DIIS
   @DF-RKS iter   7:  -578.75175416773868   -1.90354e-06   2.54437e-06 DIIS
   @DF-RKS iter   8:  -578.75175424886936   -8.11307e-08   6.89592e-07 DIIS
   @DF-RKS iter   9:  -578.75175425499458   -6.12522e-09   1.74056e-07 DIIS
   @DF-RKS iter  10:  -578.75175425539146   -3.96881e-10   3.13189e-08 DIIS
   @DF-RKS iter  11:  -578.75175425540351   -1.20508e-11   5.93257e-09 DIIS
   @DF-RKS iter  12:  -578.75175425540419   -6.82121e-13   1.01317e-09 DIIS
   @DF-RKS iter  13:  -578.75175425540374    4.54747e-13   2.83917e-10 DIIS
   @DF-RKS iter  14:  -578.75175425540397   -2.27374e-13   5.71847e-11 DIIS
  Energy and wave function converged.


  ==> Post-Iterations <==

    Orbital Energies [Eh]
    ---------------------

    Doubly Occupied:                                                      

       1A   -101.513229     2A    -10.236916     3A    -10.190472  
       4A    -10.180870     5A     -9.441961     6A     -7.204618  
       7A     -7.196037     8A     -7.195987     9A     -0.854036  
      10A     -0.775938    11A     -0.671677    12A     -0.600347  
      13A     -0.486901    14A     -0.444348    15A     -0.426231  
      16A     -0.414413    17A     -0.366998    18A     -0.360239  
      19A     -0.349317    20A     -0.290903    21A     -0.290291  

    Virtual:                                                              

      22A      0.031774    23A      0.082898    24A      0.115062  
      25A      0.115565    26A      0.133666    27A      0.161856  
      28A      0.165132    29A      0.168869    30A      0.202901  
      31A      0.222460    32A      0.349791    33A      0.372326  
      34A      0.382096    35A      0.384405    36A      0.401470  
      37A      0.403087    38A      0.419071    39A      0.422437  
      40A      0.450496    41A      0.453212    42A      0.477827  
      43A      0.487391    44A      0.533105    45A      0.537566  
      46A      0.551601    47A      0.577900    48A      0.584725  
      49A      0.608681    50A      0.609144    51A      0.611605  
      52A      0.616763    53A      0.625403    54A      0.661827  
      55A      0.670140    56A      0.749085    57A      0.785085  
      58A      0.799701    59A      0.834612    60A      0.858340  
      61A      0.881798    62A      0.945271    63A      1.030818  
      64A      1.036983    65A      1.055006    66A      1.096740  
      67A      1.120823    68A      1.160065    69A      1.168911  
      70A      1.172582    71A      1.196699    72A      1.252383  
      73A      1.253417    74A      1.269946    75A      1.301130  
      76A      1.324704    77A      1.381197    78A      1.390547  
      79A      1.424814    80A      1.441129    81A      1.470342  
      82A      1.480457    83A      1.499741    84A      1.517381  
      85A      1.522335    86A      1.584526    87A      1.642932  
      88A      1.659762    89A      1.755111    90A      1.786016  
      91A      1.832667    92A      1.923493    93A      1.964350  
      94A      2.073625    95A      2.089094    96A      2.097444  
      97A      2.099031    98A      2.160539    99A      2.188987  
     100A      2.208076   101A      2.215642   102A      2.282484  
     103A      2.417975   104A      2.439238   105A      2.536245  
     106A      2.596668   107A      2.700590   108A      2.728544  
     109A      2.796176   110A      2.815376   111A      2.859745  
     112A      2.916961   113A      2.928921   114A      2.951908  
     115A      2.989783   116A      3.050350   117A      3.054849  
     118A      3.086947   119A      3.111986   120A      3.139251  
     121A      3.248013   122A      3.286663   123A      3.423484  
     124A      3.452000   125A      3.454895   126A      3.459899  
     127A      3.508431   128A      3.519790   129A      3.565830  
     130A      3.575734   131A      3.597488   132A      3.633683  
     133A      3.659121   134A      3.712108   135A      3.733465  
     136A      3.830153   137A      3.855270   138A      3.958221  
     139A      3.968972   140A      3.996147   141A      4.123359  
     142A      4.127701   143A      4.178852   144A      4.187028  
     145A      4.233290   146A      4.255743   147A      4.286766  
     148A      4.350640   149A      4.367922   150A      4.477399  
     151A      4.483520   152A      4.511389   153A      4.550486  
     154A      4.567725   155A      4.593437   156A      4.604381  
     157A      4.726819   158A      4.942832   159A      5.018456  
     160A      5.146680   161A      5.190992   162A      5.289871  
     163A      5.320627   164A      5.351772  

    Final Occupation by Irrep:
              A 
    DOCC [    21 ]

  @DF-RKS Final Energy:  -578.75175425540397

   => Energetics <=

    Nuclear Repulsion Energy =            158.5970422870110497
    One-Electron Energy =               -1108.5267079865309370
    Two-Electron Energy =                 409.2607265646063297
    DFT Exchange-Correlation Energy =     -38.0828151204904870
    Empirical Dispersion Energy =           0.0000000000000000
    VV10 Nonlocal Energy =                  0.0000000000000000
    Total Energy =                       -578.7517542554040801

Computation Completed


Properties will be evaluated at   0.000000,   0.000000,   0.000000 [a0]

Properties computed using the SCF density matrix

  Nuclear Dipole Moment: [e a0]
     X:   -11.7111      Y:     0.8316      Z:     0.0018

  Electronic Dipole Moment: [e a0]
     X:    10.8734      Y:    -0.6223      Z:    -0.0017

  Dipole Moment: [e a0]
     X:    -0.8376      Y:     0.2093      Z:     0.0001     Total:     0.8634

  Dipole Moment: [D]
     X:    -2.1290      Y:     0.5321      Z:     0.0002     Total:     2.1945


*** tstop() called on n035 at Wed Jan  5 10:00:23 2022
Module time:
	user time   =     118.80 seconds =       1.98 minutes
	system time =       1.09 seconds =       0.02 minutes
	total time  =         30 seconds =       0.50 minutes
Total time:
	user time   =     118.80 seconds =       1.98 minutes
	system time =       1.09 seconds =       0.02 minutes
	total time  =         30 seconds =       0.50 minutes
Grab this energy -578.751754255404
    Psi4 stopped on: Wednesday, 05 January 2022 10:00AM
    Psi4 wall time for execution: 0:00:30.73

*** Psi4 exiting successfully. Buy a developer a beer!
