
 Primary working directories    : /tmp/943217.142.gen5.q
 Secondary working directories  : /tmp/943217.142.gen5.q
 Wavefunction directory         : /home/vulcan/mel64643/wfu/
 Main file repository           : /tmp/943217.142.gen5.q/

 ARCHNAME  : Linux/x86_64
 FC        : /opt/intel/compilers_and_libraries_2016.1.150/linux/bin/intel64/ifort
 FCVERSION : 16.0.1
 BLASLIB   : -mkl
 id        : ccgc

 Nodes     nprocs
 n070         1
 ga_uses_ma=false, calling ma_init with nominal heap.
 GA-space will be limited to   8.0 MW (determined by -G option)

 Using customized tuning parameters: mindgm=10; mindgv=16; mindgc=4; mindgr=1; noblas=0; mincuda=1000; minvec=7
 default implementation of scratch files=df  

 ***,Optimization of formic acid
 memory,1000,m
 gthresh,energy=1.0d-12,orbital=1.0d-10,oneint=1.0d-16,twoint=1.0d-16,optgrad=1.0d-6,compress=1.0d-13
 geomtyp=xyz
 
 bohr
 geometry = {
  C   -3.5033151544   -0.8316511220    0.0000000000
  O   -3.0972005669    1.6289950528   -0.0000000000
  O   -1.8822716606   -2.4862981990    0.0000000000
  H   -5.5223209098   -1.2753305331    0.0000000000
  H   -1.2452106398    1.9613283860   -0.0000000000
  C    3.5023939599    0.8260697785    0.0000000000
  O    3.0985823424   -1.6206230336   -0.0000000000
  O    1.8813504928    2.4807168817    0.0000000000
  H    5.5213997141    1.2697491947    0.0000000000
  H    1.2465924223   -1.9529564059   -0.0000000000
 }
 
 basis=VDZ
 {rhf;maxit,200}
 {ccsd(t);maxit,200}

 Variables initialized (661), CPU time= 0.01 sec
 Commands  initialized (458), CPU time= 0.01 sec, 486 directives.
 Default parameters read. Elapsed time= 0.11 sec

 Checking input...
 Passed
1


                                         ***  PROGRAM SYSTEM MOLPRO  ***
                         Copyright, University College Cardiff Consultants Limited, 2008

                                    Version 2010.1 linked May 16 2016 07:17:05


 **********************************************************************************************************************************
 LABEL *   Optimization of formic acid                                                   
 Linux-4.4.3/n070(x86_64) 64 bit mpp version                                             DATE: 24-Oct-23          TIME: 10:50:22  
 **********************************************************************************************************************************

 SHA1:             9e8077add272b0f3cad6f7df79ec5211205f459d
 **********************************************************************************************************************************

 THRESHOLDS:

 ZERO    =  1.00D-12  ONEINT  =  1.00D-16  TWOINT  =  1.00D-16  PREFAC  =  1.00D-14  LOCALI  =  1.00D-09  EORDER  =  1.00D-04
 ENERGY  =  1.00D-12  ETEST   =  0.00D+00  EDENS   =  0.00D+00  THRDEDEF=  1.00D-06  GRADIENT=  1.00D-02  STEP    =  1.00D-03
 ORBITAL =  1.00D-10  CIVEC   =  1.00D-05  COEFF   =  1.00D-04  PRINTCI =  5.00D-02  PUNCHCI =  9.90D+01  OPTGRAD =  1.00D-06
 OPTENERG=  1.00D-06  OPTSTEP =  3.00D-04  THRGRAD =  1.00D-10  COMPRESS=  1.00D-13  VARMIN  =  1.00D-07  VARMAX  =  1.00D-03
 THRDOUB =  0.00D+00  THRDIV  =  1.00D-05  THRRED  =  1.00D-07  THRPSP  =  1.00D+00  THRDC   =  1.00D-10  THRCS   =  1.00D-10
 THRNRM  =  1.00D-08  THREQ   =  0.00D+00  THRDE   =  1.00D+00  THRREF  =  1.00D-05  SPARFAC =  1.00D+00  THRDLP  =  1.00D-07
 THRDIA  =  1.00D-10  THRDLS  =  1.00D-07  THRGPS  =  0.00D+00  THRKEX  =  0.00D+00  THRDIS  =  2.00D-01  THRVAR  =  1.00D-10
 THRLOC  =  1.00D-06  THRGAP  =  1.00D-06  THRLOCT = -1.00D+00  THRGAPT = -1.00D+00  THRORB  =  1.00D-06  THRMLTP =  0.00D+00
 THRCPQCI=  1.00D-10  KEXTA   =  0.00D+00  THRCOARS=  0.00D+00  SYMTOL  =  1.00D-06  GRADTOL =  1.00D-06  THROVL  =  1.00D-08
 THRORTH =  1.00D-08  GRID    =  1.00D-06  GRIDMAX =  1.00D-03  DTMAX   =  0.00D+00

 SETTING GEOMTYP        =    XYZ
 ZUNIT=BOHR
 

 Variable memory set to 1000000000 words,  buffer space   230000 words

 SETTING BASIS          =    VDZ


 Recomputing integrals since basis changed


 Using spherical harmonics

 Library entry C      S cc-pVDZ              selected for orbital group  1
 Library entry C      P cc-pVDZ              selected for orbital group  1
 Library entry C      D cc-pVDZ              selected for orbital group  1
 Library entry O      S cc-pVDZ              selected for orbital group  2
 Library entry O      P cc-pVDZ              selected for orbital group  2
 Library entry O      D cc-pVDZ              selected for orbital group  2
 Library entry H      S cc-pVDZ              selected for orbital group  3
 Library entry H      P cc-pVDZ              selected for orbital group  3

1PROGRAM * SEWARD (Integral evaluation for generally contracted gaussian basis sets)     Author: Roland Lindh, 1990

 Geometry written to block  1 of record 700


 Point group  Cs  



 ATOMIC COORDINATES

 NR  ATOM    CHARGE       X              Y              Z

   1  C       6.00   -3.503315154   -0.831651122    0.000000000
   2  O       8.00   -3.097200567    1.628995053    0.000000000
   3  O       8.00   -1.882271661   -2.486298199    0.000000000
   4  H       1.00   -5.522320910   -1.275330533    0.000000000
   5  H       1.00   -1.245210640    1.961328386    0.000000000
   6  C       6.00    3.502393960    0.826069778    0.000000000
   7  O       8.00    3.098582342   -1.620623034    0.000000000
   8  O       8.00    1.881350493    2.480716882    0.000000000
   9  H       1.00    5.521399714    1.269749195    0.000000000
  10  H       1.00    1.246592422   -1.952956406    0.000000000

 Bond lengths in Bohr (Angstrom)

 1-2  2.493934373  1-3  2.316384890  1-4  2.067180607  2-5  1.881571719  6-7  2.479792237
     ( 1.319733231)     ( 1.225778091)     ( 1.093904864)     ( 0.995684871)     ( 1.312249535)

  6- 8  2.316384890   6- 9  2.067180606   7-10  1.881571719
       ( 1.225778091)       ( 1.093904864)       ( 0.995684871)

 Bond angles

  1-2-5  109.54509197   2-1-3  126.21591411   2-1-4  111.76566603   3-1-4  122.01841986

  6- 7-10  109.54509197   7- 6- 8  126.21591624   7- 6- 9  111.76566497   8- 6- 9  122.01841879

 NUCLEAR CHARGE:                   48
 NUMBER OF PRIMITIVE AOS:         190
 NUMBER OF SYMMETRY AOS:          184
 NUMBER OF CONTRACTIONS:          104   (  76A'  +  28A"  )
 NUMBER OF CORE ORBITALS:           6   (   6A'  +   0A"  )
 NUMBER OF VALENCE ORBITALS:       28   (  22A'  +   6A"  )


 NUCLEAR REPULSION ENERGY  235.31651492


 Eigenvalues of metric

         1 0.820E-02 0.872E-02 0.138E-01 0.141E-01 0.165E-01 0.167E-01 0.299E-01 0.307E-01
         2 0.115E+00 0.116E+00 0.174E+00 0.175E+00 0.191E+00 0.194E+00 0.422E+00 0.423E+00


 Contracted 2-electron integrals neglected if value below      1.0D-16
 AO integral compression algorithm  1   Integral accuracy      1.0D-16

     61.604 MB (compressed) written to integral file ( 88.6%)

     Node minimum: 61.604 MB, node maximum: 61.604 MB


 NUMBER OF SORTED TWO-ELECTRON INTEGRALS:    7928690.     BUFFER LENGTH:  32768
 NUMBER OF SEGMENTS:   1  SEGMENT LENGTH:    7928690      RECORD LENGTH: 524288

 Memory used in sort:       8.49 MW

 SORT1 READ     8707167. AND WROTE     7785562. INTEGRALS IN     23 RECORDS. CPU TIME:     0.11 SEC, REAL TIME:     0.17 SEC
 SORT2 READ     7785562. AND WROTE     7928690. INTEGRALS IN    235 RECORDS. CPU TIME:     0.11 SEC, REAL TIME:     0.16 SEC

 FILE SIZES:   FILE 1:    59.0 MBYTE,  FILE 4:    96.5 MBYTE,   TOTAL:    155.5 MBYTE

 OPERATOR DM      FOR CENTER  0  COORDINATES:    0.000000    0.000000    0.000000


 **********************************************************************************************************************************
 DATASETS  * FILE   NREC   LENGTH (MB)   RECORD NAMES
              1      19       59.08       500      610      700      900      950      970     1000      129      960     1100   
                                          VAR    BASINP    GEOM    SYMINP    ZMAT    AOBASIS   BASIS     P2S    ABASIS      S 
                                         1400     1410     1200     1210     1080     1600     1650     1300     1700   
                                           T        V       H0       H01     AOSYM     SMH    MOLCAS    ERIS     OPER   

 PROGRAMS   *        TOTAL       INT
 CPU TIMES  *         2.55      2.41
 REAL TIME  *         3.23 SEC
 DISK USED  *       217.89 MB      
 GA USED    *         0.00 MB       (max)       0.00 MB       (current)
 **********************************************************************************************************************************

1PROGRAM * RHF-SCF (CLOSED SHELL)       Authors: W. Meyer, H.-J. Werner


 NUMBER OF ELECTRONS:      24+   24-
 CONVERGENCE THRESHOLDS:    1.00E-10 (Density)    1.00E-13 (Energy)
 MAX. NUMBER OF ITERATIONS:      200
 INTERPOLATION TYPE:            DIIS
 INTERPOLATION STEPS:              2 (START)      1 (STEP)
 LEVEL SHIFTS:                  0.00 (CLOSED)  0.00 (OPEN) 



 Orbital guess generated from atomic densities. Full valence occupancy:   28   6

 Molecular orbital dump at record        2100.2

 Initial alpha occupancy:  20   4
 Initial beta  occupancy:  20   4
 Wave function symmetry:    1

 ITERATION    DDIFF          GRAD             ENERGY        2-EL.EN.            DIPOLE MOMENTS         DIIS
    1      0.000D+00      0.000D+00      -377.44830142    746.643898    0.00088   -0.02411    0.00000    0
    2      0.000D+00      0.142D-01      -377.53614270    743.795026    0.00113   -0.01143    0.00000    1
    3      0.280D-01      0.883D-02      -377.58358174    746.054582    0.00101   -0.01535    0.00000    2
    4      0.102D-01      0.125D-02      -377.58508523    745.774062    0.00106   -0.01477    0.00000    3
    5      0.198D-02      0.519D-03      -377.58534945    745.799210    0.00113   -0.01459    0.00000    4
    6      0.822D-03      0.148D-03      -377.58539581    745.844056    0.00121   -0.01465    0.00000    5
    7      0.283D-03      0.673D-04      -377.58540716    745.828801    0.00124   -0.01458    0.00000    6
    8      0.169D-03      0.201D-04      -377.58540817    745.833990    0.00127   -0.01464    0.00000    7
    9      0.527D-04      0.689D-05      -377.58540828    745.832560    0.00126   -0.01459    0.00000    8
   10      0.186D-04      0.194D-05      -377.58540829    745.832702    0.00128   -0.01464    0.00000    7
   11      0.532D-05      0.589D-06      -377.58540829    745.832680    0.00126   -0.01460    0.00000    8
   12      0.123D-05      0.288D-06      -377.58540829    745.832668    0.00127   -0.01462    0.00000    9
   13      0.489D-06      0.569D-07      -377.58540829    745.832675    0.00127   -0.01462    0.00000    8
   14      0.141D-06      0.275D-07      -377.58540829    745.832671    0.00127   -0.01462    0.00000    8
   15      0.387D-07      0.809D-08      -377.58540829    745.832672    0.00127   -0.01462    0.00000    8
   16      0.186D-07      0.241D-08      -377.58540829    745.832672    0.00127   -0.01462    0.00000    8
   17      0.525D-08      0.851D-09      -377.58540829    745.832672    0.00127   -0.01462    0.00000    8
   18      0.148D-08      0.181D-09      -377.58540829    745.832672    0.00127   -0.01462    0.00000    8
   19      0.406D-09      0.777D-10      -377.58540829    745.832672    0.00127   -0.01462    0.00000    8
   20      0.163D-09      0.308D-10      -377.58540829    745.832672    0.00127   -0.01462    0.00000    8
   21      0.589D-10      0.625D-11      -377.58540829    745.832672    0.00127   -0.01462    0.00000    8
   22      0.157D-10      0.250D-11      -377.58540829    745.832672    0.00127   -0.01462    0.00000    8
   23      0.487D-11      0.127D-11      -377.58540829    745.832672    0.00127   -0.01462    0.00000    8
   24      0.218D-11      0.313D-12      -377.58540829    745.832672    0.00127   -0.01462    0.00000    8
   25      0.730D-12      0.145D-12      -377.58540829    745.832672    0.00127   -0.01462    0.00000    8
   26      0.276D-12      0.627D-13      -377.58540829    745.832672    0.00127   -0.01462    0.00000    9
   27      0.159D-12      0.296D-13      -377.58540829    745.832672    0.00127   -0.01462    0.00000    9
   28      0.817D-13      0.183D-13      -377.58540829    745.832672    0.00127   -0.01462    0.00000    0

 Final occupancy:  20   4

 !RHF STATE 1.1 Energy               -377.585408287093
 Nuclear energy                       235.31651492
 One-electron energy                 -985.81825915
 Two-electron energy                  372.91633595
 Virial quotient                       -1.00131072
 !RHF STATE 1.1 Dipole moment           0.00126982    -0.01461965     0.00000000
 Dipole moment /Debye                   0.00322736    -0.03715701     0.00000000

 Orbital energies:

         1.1          2.1          3.1          4.1          5.1          6.1          7.1          8.1          9.1         10.1
    -20.614894   -20.613864   -20.576079   -20.574648   -11.413181   -11.412266    -1.481383    -1.468403    -1.382211    -1.368279

        11.1         12.1         13.1         14.1         15.1         16.1         17.1         18.1         19.1         20.1
     -0.914723    -0.878978    -0.762760    -0.727623    -0.718751    -0.688319    -0.614986    -0.573288    -0.489453    -0.467702

        21.1         22.1
      0.203942     0.209534

         1.2          2.2          3.2          4.2          5.2          6.2
     -0.637905    -0.628159    -0.497785    -0.487154     0.159697     0.164962


 **********************************************************************************************************************************
 DATASETS  * FILE   NREC   LENGTH (MB)   RECORD NAMES
              1      19       59.08       500      610      700      900      950      970     1000      129      960     1100   
                                          VAR    BASINP    GEOM    SYMINP    ZMAT    AOBASIS   BASIS     P2S    ABASIS      S 
                                         1400     1410     1200     1210     1080     1600     1650     1300     1700   
                                           T        V       H0       H01     AOSYM     SMH    MOLCAS    ERIS     OPER   

              2       3        0.56       700     1000     2100   
                                         GEOM     BASIS     RHF  

 PROGRAMS   *        TOTAL       RHF       INT
 CPU TIMES  *         3.93      1.38      2.41
 REAL TIME  *         4.90 SEC
 DISK USED  *       217.89 MB      
 GA USED    *         0.00 MB       (max)       0.00 MB       (current)
 **********************************************************************************************************************************


1PROGRAM * CCSD (Closed-shell coupled cluster)     Authors: C. Hampel, H.-J. Werner, 1991, M. Deegan, P.J. Knowles, 1992


 Convergence thresholds:  THRVAR = 1.00D-08  THRDEN = 1.00D-12

 CCSD(T)     terms to be evaluated (factor= 1.000)


 Number of core orbitals:           6 (   6   0 )
 Number of closed-shell orbitals:  18 (  14   4 )
 Number of external orbitals:      80 (  56  24 )

 Molecular orbitals read from record     2100.2  Type=RHF/CANONICAL (state 1.1)

 Number of N-1 electron functions:              18
 Number of N-2 electron functions:             171
 Number of singly external CSFs:               880
 Number of doubly external CSFs:            544720
 Total number of CSFs:                      545601

 Length of J-op  integral file:               0.00 MB
 Length of K-op  integral file:               0.49 MB
 Length of 3-ext integral record:             0.00 MB

 Memory could be reduced to 7.20 Mwords without degradation in triples

 Integral transformation finished. Total CPU:   0.35 sec, npass=  1  Memory used:   4.51 MW

 Reference energy:                   -377.58540829

 MP2 singlet pair energy:              -0.59950111
 MP2 triplet pair energy:              -0.40720415
 MP2 correlation energy:               -1.00670526
 MP2 total energy:                   -378.59211355

 SCS-MP2 correlation energy:           -0.97277281   (PS=  1.200000  PT=  0.333333)
 SCS-MP2 total energy:               -378.55818109

 ITER.      SQ.NORM     CORR.ENERGY   TOTAL ENERGY   ENERGY CHANGE        DEN1      VAR(S)    VAR(P)  DIIS     TIME
   1      1.28206166    -1.02684385  -378.61225214    -0.02013859     0.01079106  0.11D-01  0.55D-02  1  1     1.42
   2      1.30584403    -1.02869805  -378.61410633    -0.00185419    -0.02514105  0.25D-03  0.10D-02  2  2     2.41
   3      1.31901472    -1.02966233  -378.61507062    -0.00096428    -0.00599830  0.21D-03  0.43D-04  3  3     3.40
   4      1.32443517    -1.02942548  -378.61483377     0.00023685    -0.00176907  0.18D-04  0.72D-05  4  4     4.40
   5      1.32654292    -1.02933434  -378.61474262     0.00009115    -0.00046619  0.11D-05  0.70D-06  5  5     5.40
   6      1.32689321    -1.02931343  -378.61472171     0.00002091    -0.00001585  0.10D-06  0.61D-07  6  6     6.40
   7      1.32696334    -1.02930571  -378.61471400     0.00000772    -0.00000456  0.73D-08  0.89D-08  6  2     7.39
   8      1.32696641    -1.02930656  -378.61471485    -0.00000085     0.00000217  0.14D-08  0.87D-09  6  1     8.39
   9      1.32696717    -1.02930624  -378.61471453     0.00000032     0.00000091  0.27D-09  0.14D-09  6  4     9.39
  10      1.32696891    -1.02930609  -378.61471437     0.00000015    -0.00000058  0.75D-10  0.22D-10  6  3    10.39
  11      1.32696837    -1.02930620  -378.61471449    -0.00000012     0.00000025  0.18D-10  0.45D-11  6  5    11.38
  12      1.32696802    -1.02930622  -378.61471451    -0.00000002     0.00000005  0.26D-11  0.99D-12  6  6    12.38
  13      1.32696771    -1.02930626  -378.61471455    -0.00000004     0.00000012  0.31D-12  0.18D-12  6  1    13.37
  14      1.32696761    -1.02930626  -378.61471455    -0.00000000     0.00000002  0.28D-13  0.23D-13  6  2    14.37
  15      1.32696759    -1.02930626  -378.61471455    -0.00000000     0.00000000  0.58D-14  0.29D-14  6  4    15.37
  16      1.32696758    -1.02930627  -378.61471455    -0.00000000     0.00000000  0.91D-15  0.60D-15  6  5    16.40
  17      1.32696758    -1.02930627  -378.61471455     0.00000000    -0.00000000  0.98D-16  0.57D-16  6  3    17.41
  18      1.32696758    -1.02930627  -378.61471455    -0.00000000     0.00000000  0.29D-16  0.14D-16  6  5    18.45
  19      1.32696758    -1.02930627  -378.61471455    -0.00000000     0.00000000  0.18D-17  0.16D-17  6  1    19.44
  20      1.32696758    -1.02930627  -378.61471455    -0.00000000     0.00000000  0.18D-18  0.15D-18  6  6    20.44
  21      1.32696758    -1.02930627  -378.61471455    -0.00000000     0.00000000  0.45D-19  0.18D-19  6  2    21.44
  22      1.32696758    -1.02930627  -378.61471455    -0.00000000     0.00000000  0.13D-19  0.37D-20  6  4    22.44
  23      1.32696758    -1.02930627  -378.61471455     0.00000000    -0.00000000  0.32D-20  0.10D-20  6  3    23.44
  24      1.32696758    -1.02930627  -378.61471455     0.00000000    -0.00000000  0.57D-21  0.25D-21  6  5    24.44
  25      1.32696758    -1.02930627  -378.61471455     0.00000000    -0.00000000  0.70D-22  0.25D-22  6  6    25.46

 Norm of t1 vector:      0.15344612      S-energy:     0.00000000      T1 diagnostic:  0.01808380
                                                                       D1 diagnostic:  0.06552252

 Singles amplitudes (print threshold =  0.500E-01):

         I         SYM. A    A   T(IA)

        15         2         1      0.05804491
        16         2         2     -0.05983370


 Total CPU time for triples:     13.07 sec


 RESULTS
 =======

  Reference energy                   -377.585408287093
  CCSD singlet pair energy             -0.671363639356
  CCSD triplet pair energy             -0.357942626259
  CCSD correlation energy              -1.029306265615

  Triples (T) contribution             -0.032036991346
  Total correlation energy             -1.061343256962

  CCSD total energy                  -378.614714552708
  CCSD[T] energy                     -378.650075605483
  CCSD-T energy                      -378.645662007960
 !CCSD(T) total energy               -378.646751544055

 Timing summary (sec):

 STEP                 CPU(USER)    SYS     CPU(TOT)    WALL
 Transformation          0.38      0.07      0.45      0.44
 CCSD iterations        25.08      0.92     26.00     26.08
 Triples                13.07      0.28     13.35     13.36

 Program statistics:

 Available memory in ccsd:               999998604
 Min. memory needed in ccsd:               1529844
 Max. memory used in ccsd:                 2011076
 Max. memory used in cckext:               2263698 (25 integral passes)



 **********************************************************************************************************************************
 DATASETS  * FILE   NREC   LENGTH (MB)   RECORD NAMES
              1      20       90.97       500      610      700      900      950      970     1000      129      960     1100   
                                          VAR    BASINP    GEOM    SYMINP    ZMAT    AOBASIS   BASIS     P2S    ABASIS      S 
                                         1400     1410     1200     1210     1080     1600     1650     1300     1700     1380   
                                           T        V       H0       H01     AOSYM     SMH    MOLCAS    ERIS     OPER     JKOP   

              2       3        0.56       700     1000     2100   
                                         GEOM     BASIS     RHF  

 PROGRAMS   *        TOTAL   CCSD(T)       RHF       INT
 CPU TIMES  *        42.47     38.54      1.38      2.41
 REAL TIME  *        44.82 SEC
 DISK USED  *       250.51 MB      
 GA USED    *         0.00 MB       (max)       0.00 MB       (current)
 **********************************************************************************************************************************

        CCSD(T)         RHF-SCF 
   -378.64675154   -377.58540829
 **********************************************************************************************************************************
 Variable memory released
