
 Primary working directories    : /tmp/1093664.105.gen4.q
 Secondary working directories  : /tmp/1093664.105.gen4.q
 Wavefunction directory         : /home/vulcan/mel64643/wfu/
 Main file repository           : /tmp/1093664.105.gen4.q/

 ARCHNAME  : Linux/x86_64
 FC        : /opt/intel/compilers_and_libraries_2016.1.150/linux/bin/intel64/ifort
 FCVERSION : 16.0.1
 BLASLIB   : -mkl
 id        : ccgc

 Nodes     nprocs
 n036         1
 ga_uses_ma=false, calling ma_init with nominal heap.
 GA-space will be limited to   8.0 MW (determined by -G option)

 Using customized tuning parameters: mindgm=10; mindgv=16; mindgc=4; mindgr=1; noblas=0; mincuda=1000; minvec=7
 default implementation of scratch files=df  

 ***,Optimization of h2o_2
 memory,1000,m
 gthresh,energy=1.0d-12,orbital=1.0d-10,oneint=1.0d-16,twoint=1.0d-16,optgrad=1.0d-6,compress=1.0d-13
 geomtyp=xyz
 
 
 
 bohr
 geometry = {
  O   -2.8154686297   -0.2111650385    0.0000000000
  H   -3.5512588052    1.4486775918    0.0000000000
  H   -1.0142287350    0.1047745398    0.0000000000
  O    2.6750724339    0.2019447797    0.0000000000
  H    3.3354358720   -0.7021390594   -1.4332471490
  H    3.3354358720   -0.7021390594    1.4332471490
 }
 
 basis=aug-cc-pvtz, H=cc-pvtz
 {rhf;maxit,200}
 {ccsd(t);maxit,200}

 Variables initialized (661), CPU time= 0.00 sec
 Commands  initialized (458), CPU time= 0.01 sec, 486 directives.
 Default parameters read. Elapsed time= 0.06 sec

 Checking input...
 Passed
1


                                         ***  PROGRAM SYSTEM MOLPRO  ***
                         Copyright, University College Cardiff Consultants Limited, 2008

                                    Version 2010.1 linked May 16 2016 07:17:05


 **********************************************************************************************************************************
 LABEL *   Optimization of h2o_2                                                         
 Linux-4.4.3/n036(x86_64) 64 bit mpp version                                             DATE: 12-Jun-24          TIME: 09:44:50  
 **********************************************************************************************************************************

 SHA1:             9e8077add272b0f3cad6f7df79ec5211205f459d
 **********************************************************************************************************************************

 THRESHOLDS:

 ZERO    =  1.00D-12  ONEINT  =  1.00D-16  TWOINT  =  1.00D-16  PREFAC  =  1.00D-14  LOCALI  =  1.00D-09  EORDER  =  1.00D-04
 ENERGY  =  1.00D-12  ETEST   =  0.00D+00  EDENS   =  0.00D+00  THRDEDEF=  1.00D-06  GRADIENT=  1.00D-02  STEP    =  1.00D-03
 ORBITAL =  1.00D-10  CIVEC   =  1.00D-05  COEFF   =  1.00D-04  PRINTCI =  5.00D-02  PUNCHCI =  9.90D+01  OPTGRAD =  1.00D-06
 OPTENERG=  1.00D-06  OPTSTEP =  3.00D-04  THRGRAD =  1.00D-10  COMPRESS=  1.00D-13  VARMIN  =  1.00D-07  VARMAX  =  1.00D-03
 THRDOUB =  0.00D+00  THRDIV  =  1.00D-05  THRRED  =  1.00D-07  THRPSP  =  1.00D+00  THRDC   =  1.00D-10  THRCS   =  1.00D-10
 THRNRM  =  1.00D-08  THREQ   =  0.00D+00  THRDE   =  1.00D+00  THRREF  =  1.00D-05  SPARFAC =  1.00D+00  THRDLP  =  1.00D-07
 THRDIA  =  1.00D-10  THRDLS  =  1.00D-07  THRGPS  =  0.00D+00  THRKEX  =  0.00D+00  THRDIS  =  2.00D-01  THRVAR  =  1.00D-10
 THRLOC  =  1.00D-06  THRGAP  =  1.00D-06  THRLOCT = -1.00D+00  THRGAPT = -1.00D+00  THRORB  =  1.00D-06  THRMLTP =  0.00D+00
 THRCPQCI=  1.00D-10  KEXTA   =  0.00D+00  THRCOARS=  0.00D+00  SYMTOL  =  1.00D-06  GRADTOL =  1.00D-06  THROVL  =  1.00D-08
 THRORTH =  1.00D-08  GRID    =  1.00D-06  GRIDMAX =  1.00D-03  DTMAX   =  0.00D+00

 SETTING GEOMTYP        =    XYZ
 ZUNIT=BOHR
 

 Variable memory set to 1000000000 words,  buffer space   230000 words

 SETTING BASIS          =    AUG-CC-PVTZ,H=CC-PVTZ


 Recomputing integrals since basis changed


 Using spherical harmonics

 Library entry O      S aug-cc-pVTZ          selected for orbital group  1
 Library entry O      P aug-cc-pVTZ          selected for orbital group  1
 Library entry O      D aug-cc-pVTZ          selected for orbital group  1
 Library entry O      F aug-cc-pVTZ          selected for orbital group  1
 Library entry H      S cc-pVTZ              selected for orbital group  2
 Library entry H      P cc-pVTZ              selected for orbital group  2
 Library entry H      D cc-pVTZ              selected for orbital group  2

1PROGRAM * SEWARD (Integral evaluation for generally contracted gaussian basis sets)     Author: Roland Lindh, 1990

 Geometry written to block  1 of record 700


 Point group  Cs  



 ATOMIC COORDINATES

 NR  ATOM    CHARGE       X              Y              Z

   1  O       8.00   -2.815468630   -0.211165039    0.000000000
   2  H       1.00   -3.551258805    1.448677592    0.000000000
   3  H       1.00   -1.014228735    0.104774540    0.000000000
   4  O       8.00    2.675072434    0.201944780    0.000000000
   5  H       1.00    3.335435872   -0.702139059   -1.433247149
   6  H       1.00    3.335435872   -0.702139059    1.433247149

 Bond lengths in Bohr (Angstrom)

 1-2  1.815616903  1-3  1.828738083  4-5  1.818693171  4-6  1.818693171
     ( 0.960783086)     ( 0.967726515)     ( 0.962410976)     ( 0.962410976)

 Bond angles

  2-1-3  103.95864265   5-4-6  104.00996585

 NUCLEAR CHARGE:                   20
 NUMBER OF PRIMITIVE AOS:         202
 NUMBER OF SYMMETRY AOS:          180
 NUMBER OF CONTRACTIONS:          148   (  94A'  +  54A"  )
 NUMBER OF CORE ORBITALS:           2   (   2A'  +   0A"  )
 NUMBER OF VALENCE ORBITALS:       12   (   9A'  +   3A"  )


 NUCLEAR REPULSION ENERGY   36.55434364


 Eigenvalues of metric

         1 0.530E-03 0.582E-03 0.928E-03 0.262E-02 0.320E-02 0.448E-02 0.475E-02 0.606E-02
         2 0.101E-02 0.619E-02 0.135E-01 0.223E-01 0.257E-01 0.379E-01 0.415E-01 0.487E-01


 Contracted 2-electron integrals neglected if value below      1.0D-16
 AO integral compression algorithm  1   Integral accuracy      1.0D-16

     252.445 MB (compressed) written to integral file ( 84.1%)

     Node minimum: 252.445 MB, node maximum: 252.445 MB


 NUMBER OF SORTED TWO-ELECTRON INTEGRALS:   30965275.     BUFFER LENGTH:  32768
 NUMBER OF SEGMENTS:   2  SEGMENT LENGTH:   15989665      RECORD LENGTH: 524288

 Memory used in sort:      16.55 MW

 SORT1 READ    37483000. AND WROTE    29747213. INTEGRALS IN     87 RECORDS. CPU TIME:     0.42 SEC, REAL TIME:     0.62 SEC
 SORT2 READ    29747213. AND WROTE    30965275. INTEGRALS IN    963 RECORDS. CPU TIME:     0.35 SEC, REAL TIME:     0.49 SEC

 FILE SIZES:   FILE 1:   219.7 MBYTE,  FILE 4:   364.9 MBYTE,   TOTAL:    584.6 MBYTE

 OPERATOR DM      FOR CENTER  0  COORDINATES:    0.000000    0.000000    0.000000


 **********************************************************************************************************************************
 DATASETS  * FILE   NREC   LENGTH (MB)   RECORD NAMES
              1      19      219.79       500      610      700      900      950      970     1000      129      960     1100   
                                          VAR    BASINP    GEOM    SYMINP    ZMAT    AOBASIS   BASIS     P2S    ABASIS      S 
                                         1400     1410     1200     1210     1080     1600     1650     1300     1700   
                                           T        V       H0       H01     AOSYM     SMH    MOLCAS    ERIS     OPER   

 PROGRAMS   *        TOTAL       INT
 CPU TIMES  *         2.80      2.73
 REAL TIME  *         3.43 SEC
 DISK USED  *       837.70 MB      
 GA USED    *         0.00 MB       (max)       0.00 MB       (current)
 **********************************************************************************************************************************

1PROGRAM * RHF-SCF (CLOSED SHELL)       Authors: W. Meyer, H.-J. Werner


 NUMBER OF ELECTRONS:      10+   10-
 CONVERGENCE THRESHOLDS:    1.00E-10 (Density)    1.00E-13 (Energy)
 MAX. NUMBER OF ITERATIONS:      200
 INTERPOLATION TYPE:            DIIS
 INTERPOLATION STEPS:              2 (START)      1 (STEP)
 LEVEL SHIFTS:                  0.00 (CLOSED)  0.00 (OPEN) 



 Orbital guess generated from atomic densities. Full valence occupancy:   11   3

 Molecular orbital dump at record        2100.2

 Initial alpha occupancy:   8   2
 Initial beta  occupancy:   8   2
 Wave function symmetry:    1

 ITERATION    DDIFF          GRAD             ENERGY        2-EL.EN.            DIPOLE MOMENTS         DIIS
    1      0.000D+00      0.000D+00      -152.05682539    191.501315    1.37984    0.09099    0.00000    0
    2      0.000D+00      0.753D-02      -152.10721906    184.860783    1.01321    0.02150    0.00000    1
    3      0.129D-01      0.452D-02      -152.12535675    187.725019    1.07858    0.05075    0.00000    2
    4      0.435D-02      0.460D-03      -152.12573731    187.548848    1.06564    0.04887    0.00000    3
    5      0.647D-03      0.118D-03      -152.12577164    187.568788    1.06119    0.05006    0.00000    4
    6      0.187D-03      0.268D-04      -152.12577381    187.568844    1.06019    0.04940    0.00000    5
    7      0.534D-04      0.118D-04      -152.12577402    187.567845    1.05996    0.04978    0.00000    6
    8      0.155D-04      0.283D-05      -152.12577405    187.568096    1.05984    0.04973    0.00000    7
    9      0.698D-05      0.456D-06      -152.12577405    187.568046    1.05981    0.04973    0.00000    6
   10      0.104D-05      0.873D-07      -152.12577405    187.568077    1.05981    0.04973    0.00000    7
   11      0.196D-06      0.249D-07      -152.12577405    187.568069    1.05981    0.04973    0.00000    7
   12      0.537D-07      0.698D-08      -152.12577405    187.568071    1.05981    0.04973    0.00000    7
   13      0.161D-07      0.136D-08      -152.12577405    187.568071    1.05981    0.04973    0.00000    6
   14      0.305D-08      0.324D-09      -152.12577405    187.568071    1.05981    0.04973    0.00000    6
   15      0.788D-09      0.109D-09      -152.12577405    187.568071    1.05981    0.04973    0.00000    7
   16      0.217D-09      0.512D-10      -152.12577405    187.568071    1.05981    0.04973    0.00000    7
   17      0.808D-10      0.154D-10      -152.12577405    187.568071    1.05981    0.04973    0.00000    7
   18      0.376D-10      0.388D-11      -152.12577405    187.568071    1.05981    0.04973    0.00000    7
   19      0.927D-11      0.931D-12      -152.12577405    187.568071    1.05981    0.04973    0.00000    7
   20      0.238D-11      0.234D-12      -152.12577405    187.568071    1.05981    0.04973    0.00000    7
   21      0.853D-12      0.898D-13      -152.12577405    187.568071    1.05981    0.04973    0.00000    8
   22      0.455D-12      0.403D-13      -152.12577405    187.568071    1.05981    0.04973    0.00000    8
   23      0.312D-12      0.268D-13      -152.12577405    187.568071    1.05981    0.04973    0.00000    8
   24      0.175D-12      0.231D-13      -152.12577405    187.568071    1.05981    0.04973    0.00000    9
   25      0.100D-12      0.209D-13      -152.12577405    187.568071    1.05981    0.04973    0.00000    9
   26      0.857D-13      0.230D-13      -152.12577405    187.568071    1.05981    0.04973    0.00000    9
   27      0.770D-13      0.215D-13      -152.12577405    187.568071    1.05981    0.04973    0.00000    9
   28      0.587D-13      0.179D-13      -152.12577405    187.568071    1.05981    0.04973    0.00000    9
   29      0.394D-13      0.237D-13      -152.12577405    187.568071    1.05981    0.04973    0.00000    0

 Final occupancy:   8   2

 !RHF STATE 1.1 Energy               -152.125774053168
 Nuclear energy                        36.55434364
 One-electron energy                 -282.46415308
 Two-electron energy                   93.78403539
 Virial quotient                       -1.00141076
 !RHF STATE 1.1 Dipole moment           1.05980940     0.04973108     0.00000000
 Dipole moment /Debye                   2.69359039     0.12639552     0.00000000

 Orbital energies:

         1.1          2.1          3.1          4.1          5.1          6.1          7.1          8.1          9.1         10.1
    -20.592763   -20.536484    -1.378866    -1.321416    -0.692109    -0.614739    -0.559936    -0.530936     0.091459     0.125155

         1.2          2.2          3.2          4.2
     -0.739430    -0.481362     0.134867     0.200133


 **********************************************************************************************************************************
 DATASETS  * FILE   NREC   LENGTH (MB)   RECORD NAMES
              1      19      219.79       500      610      700      900      950      970     1000      129      960     1100   
                                          VAR    BASINP    GEOM    SYMINP    ZMAT    AOBASIS   BASIS     P2S    ABASIS      S 
                                         1400     1410     1200     1210     1080     1600     1650     1300     1700   
                                           T        V       H0       H01     AOSYM     SMH    MOLCAS    ERIS     OPER   

              2       3        0.60       700     1000     2100   
                                         GEOM     BASIS     RHF  

 PROGRAMS   *        TOTAL       RHF       INT
 CPU TIMES  *         8.09      5.29      2.73
 REAL TIME  *         9.51 SEC
 DISK USED  *       837.70 MB      
 GA USED    *         0.00 MB       (max)       0.00 MB       (current)
 **********************************************************************************************************************************


1PROGRAM * CCSD (Closed-shell coupled cluster)     Authors: C. Hampel, H.-J. Werner, 1991, M. Deegan, P.J. Knowles, 1992


 Convergence thresholds:  THRVAR = 1.00D-08  THRDEN = 1.00D-12

 CCSD(T)     terms to be evaluated (factor= 1.000)


 Number of core orbitals:           2 (   2   0 )
 Number of closed-shell orbitals:   8 (   6   2 )
 Number of external orbitals:     138 (  86  52 )

 Molecular orbitals read from record     2100.2  Type=RHF/CANONICAL (state 1.1)

 Number of N-1 electron functions:               8
 Number of N-2 electron functions:              36
 Number of singly external CSFs:               620
 Number of doubly external CSFs:            309880
 Total number of CSFs:                      310501

 Length of J-op  integral file:               0.00 MB
 Length of K-op  integral file:               0.85 MB
 Length of 3-ext integral record:             0.00 MB

 Memory could be reduced to 15.13 Mwords without degradation in triples

 Integral transformation finished. Total CPU:   0.69 sec, npass=  1  Memory used:   4.93 MW

 Reference energy:                   -152.12577405

 MP2 singlet pair energy:              -0.34092148
 MP2 triplet pair energy:              -0.19742580
 MP2 correlation energy:               -0.53834728
 MP2 total energy:                   -152.66412133

 SCS-MP2 correlation energy:           -0.53194849   (PS=  1.200000  PT=  0.333333)
 SCS-MP2 total energy:               -152.65772254

 ITER.      SQ.NORM     CORR.ENERGY   TOTAL ENERGY   ENERGY CHANGE        DEN1      VAR(S)    VAR(P)  DIIS     TIME
   1      1.12613476    -0.54672956  -152.67250362    -0.00838229     0.00265732  0.18D-02  0.19D-02  1  1     1.46
   2      1.13343566    -0.54733679  -152.67311084    -0.00060723    -0.00955677  0.22D-04  0.23D-03  2  2     2.26
   3      1.13608685    -0.54747236  -152.67324641    -0.00013557    -0.00172554  0.21D-04  0.95D-05  3  3     3.06
   4      1.13696095    -0.54746018  -152.67323423     0.00001218    -0.00040987  0.86D-06  0.11D-05  4  4     3.88
   5      1.13713951    -0.54745480  -152.67322885     0.00000538    -0.00005184  0.31D-06  0.62D-07  5  5     4.70
   6      1.13720530    -0.54744863  -152.67322268     0.00000617    -0.00001345  0.22D-07  0.54D-08  6  6     5.51
   7      1.13721746    -0.54744822  -152.67322228     0.00000041    -0.00000108  0.18D-08  0.96D-09  6  1     6.33
   8      1.13722003    -0.54744812  -152.67322217     0.00000010     0.00000028  0.28D-09  0.11D-09  6  2     7.14
   9      1.13722108    -0.54744803  -152.67322208     0.00000009     0.00000012  0.20D-10  0.98D-11  6  3     7.94
  10      1.13722124    -0.54744801  -152.67322207     0.00000001     0.00000000  0.43D-11  0.12D-11  6  4     8.75
  11      1.13722119    -0.54744802  -152.67322208    -0.00000001     0.00000004  0.88D-12  0.22D-12  6  5     9.56
  12      1.13722117    -0.54744802  -152.67322208    -0.00000000     0.00000001  0.18D-12  0.33D-13  6  6    10.37
  13      1.13722114    -0.54744803  -152.67322208    -0.00000000     0.00000001  0.23D-13  0.61D-14  6  1    11.18
  14      1.13722114    -0.54744803  -152.67322208    -0.00000000     0.00000000  0.38D-14  0.11D-14  6  2    11.98
  15      1.13722114    -0.54744803  -152.67322208    -0.00000000    -0.00000000  0.49D-15  0.14D-15  6  3    12.80
  16      1.13722114    -0.54744803  -152.67322208    -0.00000000    -0.00000000  0.67D-16  0.25D-16  6  4    13.60
  17      1.13722113    -0.54744803  -152.67322208     0.00000000    -0.00000000  0.89D-17  0.41D-17  6  5    14.41
  18      1.13722113    -0.54744803  -152.67322208    -0.00000000     0.00000000  0.98D-18  0.50D-18  6  6    15.20
  19      1.13722113    -0.54744803  -152.67322208    -0.00000000     0.00000000  0.15D-18  0.78D-19  6  1    16.00
  20      1.13722113    -0.54744803  -152.67322208     0.00000000    -0.00000000  0.30D-19  0.11D-19  6  2    16.81
  21      1.13722113    -0.54744803  -152.67322208    -0.00000000    -0.00000000  0.55D-20  0.20D-20  6  3    17.62

 Norm of t1 vector:      0.05681417      S-energy:     0.00000000      T1 diagnostic:  0.01004342
                                                                       D1 diagnostic:  0.02180065


 Total CPU time for triples:     11.43 sec


 RESULTS
 =======

  Reference energy                   -152.125774053168
  CCSD singlet pair energy             -0.371838185730
  CCSD triplet pair energy             -0.175609841740
  CCSD correlation energy              -0.547448027470

  Triples (T) contribution             -0.017591823770
  Total correlation energy             -0.565039851240

  CCSD total energy                  -152.673222080638
  CCSD[T] energy                     -152.691443662312
  CCSD-T energy                      -152.690469063369
 !CCSD(T) total energy               -152.690813904408

 Timing summary (sec):

 STEP                 CPU(USER)    SYS     CPU(TOT)    WALL
 Transformation          0.70      0.09      0.79      0.79
 CCSD iterations        16.92      0.95     17.87     17.93
 Triples                11.43      0.23     11.66     11.66

 Program statistics:

 Available memory in ccsd:               999999644
 Min. memory needed in ccsd:                962213
 Max. memory used in ccsd:                 1225529
 Max. memory used in cckext:               1401808 (21 integral passes)



 **********************************************************************************************************************************
 DATASETS  * FILE   NREC   LENGTH (MB)   RECORD NAMES
              1      20      267.95       500      610      700      900      950      970     1000      129      960     1100   
                                          VAR    BASINP    GEOM    SYMINP    ZMAT    AOBASIS   BASIS     P2S    ABASIS      S 
                                         1400     1410     1200     1210     1080     1600     1650     1300     1700     1380   
                                           T        V       H0       H01     AOSYM     SMH    MOLCAS    ERIS     OPER     JKOP   

              2       3        0.60       700     1000     2100   
                                         GEOM     BASIS     RHF  

 PROGRAMS   *        TOTAL   CCSD(T)       RHF       INT
 CPU TIMES  *        37.15     29.05      5.29      2.73
 REAL TIME  *        39.94 SEC
 DISK USED  *       837.70 MB      
 GA USED    *         0.00 MB       (max)       0.00 MB       (current)
 **********************************************************************************************************************************

        CCSD(T)         RHF-SCF 
   -152.69081390   -152.12577405
 **********************************************************************************************************************************
 Variable memory released
