
 Primary working directories    : /tmp/856074.551.gen4.q
 Secondary working directories  : /tmp/856074.551.gen4.q
 Wavefunction directory         : /home/vulcan/lo21740/wfu/
 Main file repository           : /tmp/856074.551.gen4.q/

 ARCHNAME  : Linux/x86_64
 FC        : /opt/intel/compilers_and_libraries_2016.1.150/linux/bin/intel64/ifort
 FCVERSION : 16.0.1
 BLASLIB   : -mkl
 id        : ccgc

 Nodes     nprocs
 n040         1
 ga_uses_ma=false, calling ma_init with nominal heap.
 GA-space will be limited to   8.0 MW (determined by -G option)

 Using customized tuning parameters: mindgm=10; mindgv=16; mindgc=4; mindgr=1; noblas=0; mincuda=1000; minvec=7
 default implementation of scratch files=df  

 ***,Optimization of h2o_2
 memory,1000,m
 gthresh,energy=1.0d-12,orbital=1.0d-10,oneint=1.0d-16,twoint=1.0d-16,optgrad=1.0d-6,compress=1.0d-13
 geomtyp=xyz
 
 bohr
 geometry = {
  C    0.0012105253   -3.4220710637    0.0000000000
  H   -0.9724050392   -2.7307761118   -1.6851304109
  H   -0.9724050392   -2.7307761118    1.6851304109
  H    1.9413890338   -2.7327797419    0.0000000000
  H    0.0040065574   -5.4809617148    0.0000000000
  C   -0.0012105253    3.4220710637   -0.0000000000
  H   -0.0040065574    5.4809617148   -0.0000000000
  H    0.9724050392    2.7307761118   -1.6851304109
  H    0.9724050392    2.7307761118    1.6851304109
  H   -1.9413890338    2.7327797419   -0.0000000000
 }
 
 basis=VDZ
 {rhf;maxit,200}
 {ccsd(t);maxit,200}

 Variables initialized (661), CPU time= 0.00 sec
 Commands  initialized (458), CPU time= 0.01 sec, 486 directives.
 Default parameters read. Elapsed time= 0.06 sec

 Checking input...
 Passed
1


                                         ***  PROGRAM SYSTEM MOLPRO  ***
                         Copyright, University College Cardiff Consultants Limited, 2008

                                    Version 2010.1 linked May 16 2016 07:17:05


 **********************************************************************************************************************************
 LABEL *   Optimization of h2o_2                                                         
 Linux-4.4.3/n040(x86_64) 64 bit mpp version                                             DATE: 12-Apr-23          TIME: 13:54:36  
 **********************************************************************************************************************************

 SHA1:             9e8077add272b0f3cad6f7df79ec5211205f459d
 **********************************************************************************************************************************

 THRESHOLDS:

 ZERO    =  1.00D-12  ONEINT  =  1.00D-16  TWOINT  =  1.00D-16  PREFAC  =  1.00D-14  LOCALI  =  1.00D-09  EORDER  =  1.00D-04
 ENERGY  =  1.00D-12  ETEST   =  0.00D+00  EDENS   =  0.00D+00  THRDEDEF=  1.00D-06  GRADIENT=  1.00D-02  STEP    =  1.00D-03
 ORBITAL =  1.00D-10  CIVEC   =  1.00D-05  COEFF   =  1.00D-04  PRINTCI =  5.00D-02  PUNCHCI =  9.90D+01  OPTGRAD =  1.00D-06
 OPTENERG=  1.00D-06  OPTSTEP =  3.00D-04  THRGRAD =  1.00D-10  COMPRESS=  1.00D-13  VARMIN  =  1.00D-07  VARMAX  =  1.00D-03
 THRDOUB =  0.00D+00  THRDIV  =  1.00D-05  THRRED  =  1.00D-07  THRPSP  =  1.00D+00  THRDC   =  1.00D-10  THRCS   =  1.00D-10
 THRNRM  =  1.00D-08  THREQ   =  0.00D+00  THRDE   =  1.00D+00  THRREF  =  1.00D-05  SPARFAC =  1.00D+00  THRDLP  =  1.00D-07
 THRDIA  =  1.00D-10  THRDLS  =  1.00D-07  THRGPS  =  0.00D+00  THRKEX  =  0.00D+00  THRDIS  =  2.00D-01  THRVAR  =  1.00D-10
 THRLOC  =  1.00D-06  THRGAP  =  1.00D-06  THRLOCT = -1.00D+00  THRGAPT = -1.00D+00  THRORB  =  1.00D-06  THRMLTP =  0.00D+00
 THRCPQCI=  1.00D-10  KEXTA   =  0.00D+00  THRCOARS=  0.00D+00  SYMTOL  =  1.00D-06  GRADTOL =  1.00D-06  THROVL  =  1.00D-08
 THRORTH =  1.00D-08  GRID    =  1.00D-06  GRIDMAX =  1.00D-03  DTMAX   =  0.00D+00

 SETTING GEOMTYP        =    XYZ
 ZUNIT=BOHR
 

 Variable memory set to 1000000000 words,  buffer space   230000 words

 SETTING BASIS          =    VDZ


 Recomputing integrals since basis changed


 Using spherical harmonics

 Library entry C      S cc-pVDZ              selected for orbital group  1
 Library entry C      P cc-pVDZ              selected for orbital group  1
 Library entry C      D cc-pVDZ              selected for orbital group  1
 Library entry H      S cc-pVDZ              selected for orbital group  2
 Library entry H      P cc-pVDZ              selected for orbital group  2

1PROGRAM * SEWARD (Integral evaluation for generally contracted gaussian basis sets)     Author: Roland Lindh, 1990

 Geometry written to block  1 of record 700


 Point group  C2h 



 ATOMIC COORDINATES

 NR  ATOM    CHARGE       X              Y              Z

   1  C       6.00    0.001210525   -3.422071064    0.000000000
   2  C       6.00   -0.001210525    3.422071064    0.000000000
   3  H       1.00   -0.972405039   -2.730776112   -1.685130411
   4  H       1.00   -0.972405039   -2.730776112    1.685130411
   5  H       1.00    0.972405039    2.730776112   -1.685130411
   6  H       1.00    0.972405039    2.730776112    1.685130411
   7  H       1.00    1.941389034   -2.732779742    0.000000000
   8  H       1.00   -1.941389034    2.732779742    0.000000000
   9  H       1.00    0.004006557   -5.480961715    0.000000000
  10  H       1.00   -0.004006557    5.480961715    0.000000000

 Bond lengths in Bohr (Angstrom)

 1-3  2.065303968  1-4  2.065303968  1-7  2.058984014  1-9  2.058892550  2-5  2.065303968
     ( 1.092911789)     ( 1.092911789)     ( 1.089567414)     ( 1.089519013)     ( 1.092911789)

  2- 6  2.065303968   2- 8  2.058984014   2-10  2.058892550
       ( 1.092911789)       ( 1.089567414)       ( 1.089519013)

 Bond angles

  3-1-4  109.35759155   3-1-7  109.39990191   3-1-9  109.59431812   4-1-7  109.39990191

  4- 1- 9  109.59431812   5- 2- 6  109.35759155   5- 2- 8  109.39990191   5- 2-10  109.59431812

  6- 2- 8  109.39990191   6- 2-10  109.59431812   7- 1- 9  109.48089796   8- 2-10  109.48089796

 NUCLEAR CHARGE:                   20
 NUMBER OF PRIMITIVE AOS:         110
 NUMBER OF SYMMETRY AOS:          108
 NUMBER OF CONTRACTIONS:           68   (  23Ag  +  11Au  +  23Bu  +  11Bg  )
 NUMBER OF CORE ORBITALS:           2   (   1Ag  +   0Au  +   1Bu  +   0Bg  )
 NUMBER OF VALENCE ORBITALS:       16   (   6Ag  +   2Au  +   6Bu  +   2Bg  )


 NUCLEAR REPULSION ENERGY   41.31126914


 Eigenvalues of metric

         1 0.127E-01 0.349E-01 0.375E-01 0.513E-01 0.559E-01 0.667E-01 0.127E+00 0.131E+00
         2 0.387E-01 0.582E-01 0.144E+00 0.292E+00 0.415E+00 0.917E+00 0.917E+00 0.112E+01
         3 0.113E-01 0.356E-01 0.384E-01 0.415E-01 0.513E-01 0.580E-01 0.965E-01 0.132E+00
         4 0.351E-01 0.563E-01 0.127E+00 0.292E+00 0.412E+00 0.917E+00 0.917E+00 0.110E+01


 Contracted 2-electron integrals neglected if value below      1.0D-16
 AO integral compression algorithm  1   Integral accuracy      1.0D-16

     8.126 MB (compressed) written to integral file (100.0%)

     Node minimum: 8.126 MB, node maximum: 8.126 MB


 NUMBER OF SORTED TWO-ELECTRON INTEGRALS:     733089.     BUFFER LENGTH:  32768
 NUMBER OF SEGMENTS:   1  SEGMENT LENGTH:     733089      RECORD LENGTH: 524288

 Memory used in sort:       1.29 MW

 SORT1 READ      983360. AND WROTE      733089. INTEGRALS IN      3 RECORDS. CPU TIME:     0.02 SEC, REAL TIME:     0.02 SEC
 SORT2 READ      733089. AND WROTE      733089. INTEGRALS IN     31 RECORDS. CPU TIME:     0.03 SEC, REAL TIME:     0.04 SEC

 FILE SIZES:   FILE 1:     8.8 MBYTE,  FILE 4:    12.6 MBYTE,   TOTAL:     21.4 MBYTE

 OPERATOR DM      FOR CENTER  0  COORDINATES:    0.000000    0.000000    0.000000


 **********************************************************************************************************************************
 DATASETS  * FILE   NREC   LENGTH (MB)   RECORD NAMES
              1      19        8.77       500      610      700      900      950      970     1000      129      960     1100   
                                          VAR    BASINP    GEOM    SYMINP    ZMAT    AOBASIS   BASIS     P2S    ABASIS      S 
                                         1400     1410     1200     1210     1080     1600     1650     1300     1700   
                                           T        V       H0       H01     AOSYM     SMH    MOLCAS    ERIS     OPER   

 PROGRAMS   *        TOTAL       INT
 CPU TIMES  *         0.48      0.42
 REAL TIME  *         0.66 SEC
 DISK USED  *        30.27 MB      
 GA USED    *         0.00 MB       (max)       0.00 MB       (current)
 **********************************************************************************************************************************

1PROGRAM * RHF-SCF (CLOSED SHELL)       Authors: W. Meyer, H.-J. Werner


 NUMBER OF ELECTRONS:      10+   10-
 CONVERGENCE THRESHOLDS:    1.00E-10 (Density)    1.00E-13 (Energy)
 MAX. NUMBER OF ITERATIONS:      200
 INTERPOLATION TYPE:            DIIS
 INTERPOLATION STEPS:              2 (START)      1 (STEP)
 LEVEL SHIFTS:                  0.00 (CLOSED)  0.00 (OPEN) 



 Orbital guess generated from atomic densities. Full valence occupancy:    7   2   7   2

 Molecular orbital dump at record        2100.2

 Initial alpha occupancy:   4   1   4   1
 Initial beta  occupancy:   4   1   4   1
 Wave function symmetry:    1

 ITERATION    DDIFF          GRAD             ENERGY        2-EL.EN.            DIPOLE MOMENTS         DIIS
    1      0.000D+00      0.000D+00       -80.35972818    134.768491    0.00000    0.00000    0.00000    0
    2      0.000D+00      0.118D-01       -80.39229393    132.497364    0.00000    0.00000    0.00000    1
    3      0.244D-01      0.433D-02       -80.39614543    133.297540    0.00000    0.00000    0.00000    2
    4      0.852D-02      0.117D-02       -80.39667369    133.160409    0.00000    0.00000    0.00000    3
    5      0.307D-02      0.123D-03       -80.39667821    133.166464    0.00000    0.00000    0.00000    4
    6      0.433D-03      0.727D-05       -80.39667823    133.166327    0.00000    0.00000    0.00000    5
    7      0.381D-04      0.433D-06       -80.39667823    133.166325    0.00000    0.00000    0.00000    5
    8      0.139D-05      0.817D-07       -80.39667823    133.166327    0.00000    0.00000    0.00000    4
    9      0.232D-06      0.227D-07       -80.39667823    133.166328    0.00000    0.00000    0.00000    4
   10      0.801D-07      0.383D-08       -80.39667823    133.166328    0.00000    0.00000    0.00000    5
   11      0.126D-07      0.515D-09       -80.39667823    133.166328    0.00000    0.00000    0.00000    5
   12      0.154D-08      0.125D-09       -80.39667823    133.166328    0.00000    0.00000    0.00000    6
   13      0.344D-09      0.372D-10       -80.39667823    133.166328    0.00000    0.00000    0.00000    6
   14      0.975D-10      0.102D-10       -80.39667823    133.166328    0.00000    0.00000    0.00000    0

 Final occupancy:   4   1   4   1

 !RHF STATE 1.1 Energy                -80.396678234160
 Nuclear energy                        41.31126914
 One-electron energy                 -188.29111141
 Two-electron energy                   66.58316404
 Virial quotient                       -1.00246629
 !RHF STATE 1.1 Dipole moment           0.00000000     0.00000000     0.00000000
 Dipole moment /Debye                   0.00000000     0.00000000     0.00000000

 Orbital energies:

         1.1          2.1          3.1          4.1          5.1          6.1
    -11.215837    -0.943747    -0.549744    -0.537962     0.172346     0.263837

         1.2          2.2          3.2
     -0.544472     0.256840     0.584994

         1.3          2.3          3.3          4.3          5.3          6.3
    -11.215840    -0.937879    -0.545284    -0.534524     0.229063     0.257065

         1.4          2.4          3.4
     -0.537103     0.296379     0.602289


 **********************************************************************************************************************************
 DATASETS  * FILE   NREC   LENGTH (MB)   RECORD NAMES
              1      19        8.77       500      610      700      900      950      970     1000      129      960     1100   
                                          VAR    BASINP    GEOM    SYMINP    ZMAT    AOBASIS   BASIS     P2S    ABASIS      S 
                                         1400     1410     1200     1210     1080     1600     1650     1300     1700   
                                           T        V       H0       H01     AOSYM     SMH    MOLCAS    ERIS     OPER   

              2       3        0.44       700     1000     2100   
                                         GEOM     BASIS     RHF  

 PROGRAMS   *        TOTAL       RHF       INT
 CPU TIMES  *         0.53      0.04      0.42
 REAL TIME  *         0.73 SEC
 DISK USED  *        30.27 MB      
 GA USED    *         0.00 MB       (max)       0.00 MB       (current)
 **********************************************************************************************************************************


1PROGRAM * CCSD (Closed-shell coupled cluster)     Authors: C. Hampel, H.-J. Werner, 1991, M. Deegan, P.J. Knowles, 1992


 Convergence thresholds:  THRVAR = 1.00D-08  THRDEN = 1.00D-12

 CCSD(T)     terms to be evaluated (factor= 1.000)


 Number of core orbitals:           2 (   1   0   1   0 )
 Number of closed-shell orbitals:   8 (   3   1   3   1 )
 Number of external orbitals:      58 (  19  10  19  10 )

 Molecular orbitals read from record     2100.2  Type=RHF/CANONICAL (state 1.1)

 Number of N-1 electron functions:               8
 Number of N-2 electron functions:              36
 Number of singly external CSFs:               134
 Number of doubly external CSFs:             27792
 Total number of CSFs:                       27927

 Length of J-op  integral file:               0.00 MB
 Length of K-op  integral file:               0.12 MB
 Length of 3-ext integral record:             0.00 MB

 Memory could be reduced to 0.90 Mwords without degradation in triples

 Integral transformation finished. Total CPU:   0.01 sec, npass=  1  Memory used:   0.22 MW

 Reference energy:                    -80.39667823

 MP2 singlet pair energy:              -0.23219305
 MP2 triplet pair energy:              -0.09154694
 MP2 correlation energy:               -0.32374000
 MP2 total energy:                    -80.72041823

 SCS-MP2 correlation energy:           -0.33559421   (PS=  1.200000  PT=  0.333333)
 SCS-MP2 total energy:                -80.73227244

 ITER.      SQ.NORM     CORR.ENERGY   TOTAL ENERGY   ENERGY CHANGE        DEN1      VAR(S)    VAR(P)  DIIS     TIME
   1      1.13439098    -0.36766864   -80.76434688    -0.04392865    -0.03298563  0.50D-03  0.24D-02  1  1     0.05
   2      1.14704183    -0.37047533   -80.76715356    -0.00280669    -0.01278806  0.15D-04  0.97D-04  2  2     0.07
   3      1.14884607    -0.37064790   -80.76732613    -0.00017257    -0.00096109  0.18D-05  0.56D-05  3  3     0.10
   4      1.14921690    -0.37066826   -80.76734649    -0.00002036    -0.00016697  0.25D-07  0.36D-06  4  4     0.13
   5      1.14926326    -0.37066577   -80.76734401     0.00000248    -0.00002409  0.19D-08  0.18D-07  5  5     0.17
   6      1.14926459    -0.37066571   -80.76734395     0.00000006    -0.00000012  0.20D-09  0.12D-08  6  6     0.19
   7      1.14926468    -0.37066598   -80.76734421    -0.00000026     0.00000013  0.13D-10  0.72D-10  6  1     0.23
   8      1.14926486    -0.37066597   -80.76734421     0.00000001    -0.00000013  0.15D-11  0.42D-11  6  2     0.26
   9      1.14926488    -0.37066596   -80.76734419     0.00000001    -0.00000003  0.15D-12  0.26D-12  6  3     0.29
  10      1.14926488    -0.37066596   -80.76734419     0.00000000     0.00000001  0.12D-13  0.24D-13  6  4     0.32
  11      1.14926487    -0.37066596   -80.76734419    -0.00000000     0.00000001  0.83D-15  0.19D-14  6  5     0.35
  12      1.14926486    -0.37066596   -80.76734419    -0.00000000     0.00000000  0.45D-16  0.23D-15  6  6     0.38
  13      1.14926486    -0.37066596   -80.76734419    -0.00000000     0.00000000  0.35D-17  0.28D-16  6  1     0.41
  14      1.14926486    -0.37066596   -80.76734419     0.00000000     0.00000000  0.61D-18  0.38D-17  6  2     0.44
  15      1.14926486    -0.37066596   -80.76734419     0.00000000     0.00000000  0.74D-19  0.38D-18  6  3     0.47
  16      1.14926486    -0.37066596   -80.76734419    -0.00000000     0.00000000  0.16D-20  0.21D-19  6  5     0.50
  17      1.14926486    -0.37066596   -80.76734419    -0.00000000     0.00000000  0.19D-21  0.58D-21  6  4     0.53
  18      1.14926486    -0.37066596   -80.76734419     0.00000000    -0.00000000  0.47D-22  0.53D-22  6  6     0.56

 Norm of t1 vector:      0.03067717      S-energy:    -0.00000000      T1 diagnostic:  0.00542301
                                                                       D1 diagnostic:  0.00877263


 Total CPU time for triples:      0.23 sec


 RESULTS
 =======

  Reference energy                    -80.396678234160
  CCSD singlet pair energy             -0.282020977928
  CCSD triplet pair energy             -0.088644980178
  CCSD correlation energy              -0.370665958107

  Triples (T) contribution             -0.007548788996
  Total correlation energy             -0.378214747103

  CCSD total energy                   -80.767344192267
  CCSD[T] energy                      -80.775070180250
  CCSD-T energy                       -80.774798070687
 !CCSD(T) total energy                -80.774892981263

 Timing summary (sec):

 STEP                 CPU(USER)    SYS     CPU(TOT)    WALL
 Transformation          0.01      0.01      0.02      0.02
 CCSD iterations         0.56      0.04      0.60      0.62
 Triples                 0.23      0.01      0.24      0.24

 Program statistics:

 Available memory in ccsd:               999999644
 Min. memory needed in ccsd:                 94603
 Max. memory used in ccsd:                  117097
 Max. memory used in cckext:                139739 (18 integral passes)



 **********************************************************************************************************************************
 DATASETS  * FILE   NREC   LENGTH (MB)   RECORD NAMES
              1      20       10.99       500      610      700      900      950      970     1000      129      960     1100   
                                          VAR    BASINP    GEOM    SYMINP    ZMAT    AOBASIS   BASIS     P2S    ABASIS      S 
                                         1400     1410     1200     1210     1080     1600     1650     1300     1700     1380   
                                           T        V       H0       H01     AOSYM     SMH    MOLCAS    ERIS     OPER     JKOP   

              2       3        0.44       700     1000     2100   
                                         GEOM     BASIS     RHF  

 PROGRAMS   *        TOTAL   CCSD(T)       RHF       INT
 CPU TIMES  *         1.34      0.81      0.04      0.42
 REAL TIME  *         1.65 SEC
 DISK USED  *        30.27 MB      
 GA USED    *         0.00 MB       (max)       0.00 MB       (current)
 **********************************************************************************************************************************

        CCSD(T)         RHF-SCF 
    -80.77489298    -80.39667823
 **********************************************************************************************************************************
 Variable memory released
