
 Primary working directories    : /tmp/984684.105.gen4.q
 Secondary working directories  : /tmp/984684.105.gen4.q
 Wavefunction directory         : /home/vulcan/mel64643/wfu/
 Main file repository           : /tmp/984684.105.gen4.q/

 ARCHNAME  : Linux/x86_64
 FC        : /opt/intel/compilers_and_libraries_2016.1.150/linux/bin/intel64/ifort
 FCVERSION : 16.0.1
 BLASLIB   : -mkl
 id        : ccgc

 Nodes     nprocs
 n066         1
 ga_uses_ma=false, calling ma_init with nominal heap.
 GA-space will be limited to   8.0 MW (determined by -G option)

 Using customized tuning parameters: mindgm=10; mindgv=16; mindgc=4; mindgr=1; noblas=0; mincuda=1000; minvec=7
 default implementation of scratch files=df  

 ***,Optimization of nh3_h20
 memory,1000,m
 gthresh,energy=1.0d-12,orbital=1.0d-10,oneint=1.0d-16,twoint=1.0d-16,optgrad=1.0d-6,compress=1.0d-13
 geomtyp=xyz
 
 
 
 bohr
 geometry = {
  O   -3.2246492120    0.0734593967    0.0068190137
  H   -1.4001274840   -0.1587972557   -0.0028965043
  H   -3.9047361983   -1.6096936283   -0.0036775437
  N    2.3278191401   -0.0216371532   -0.0003674679
  H    2.6990327829    1.8525488841   -0.0013727693
  H    3.2098313600   -0.7561315149   -1.5419221730
  H    3.2076614833   -0.7540468936    1.5434174445
 }
 
 basis=cc-pvdz
 {rhf;maxit,200}
 {mp2}

 Variables initialized (661), CPU time= 0.01 sec
 Commands  initialized (458), CPU time= 0.00 sec, 486 directives.
 Default parameters read. Elapsed time= 0.04 sec

 Checking input...
 Passed
1


                                         ***  PROGRAM SYSTEM MOLPRO  ***
                         Copyright, University College Cardiff Consultants Limited, 2008

                                    Version 2010.1 linked May 16 2016 07:17:05


 **********************************************************************************************************************************
 LABEL *   Optimization of nh3_h20                                                       
 Linux-4.4.3/n066(x86_64) 64 bit mpp version                                             DATE: 22-Jan-24          TIME: 10:55:15  
 **********************************************************************************************************************************

 SHA1:             9e8077add272b0f3cad6f7df79ec5211205f459d
 **********************************************************************************************************************************

 THRESHOLDS:

 ZERO    =  1.00D-12  ONEINT  =  1.00D-16  TWOINT  =  1.00D-16  PREFAC  =  1.00D-14  LOCALI  =  1.00D-09  EORDER  =  1.00D-04
 ENERGY  =  1.00D-12  ETEST   =  0.00D+00  EDENS   =  0.00D+00  THRDEDEF=  1.00D-06  GRADIENT=  1.00D-02  STEP    =  1.00D-03
 ORBITAL =  1.00D-10  CIVEC   =  1.00D-05  COEFF   =  1.00D-04  PRINTCI =  5.00D-02  PUNCHCI =  9.90D+01  OPTGRAD =  1.00D-06
 OPTENERG=  1.00D-06  OPTSTEP =  3.00D-04  THRGRAD =  1.00D-10  COMPRESS=  1.00D-13  VARMIN  =  1.00D-07  VARMAX  =  1.00D-03
 THRDOUB =  0.00D+00  THRDIV  =  1.00D-05  THRRED  =  1.00D-07  THRPSP  =  1.00D+00  THRDC   =  1.00D-10  THRCS   =  1.00D-10
 THRNRM  =  1.00D-08  THREQ   =  0.00D+00  THRDE   =  1.00D+00  THRREF  =  1.00D-05  SPARFAC =  1.00D+00  THRDLP  =  1.00D-07
 THRDIA  =  1.00D-10  THRDLS  =  1.00D-07  THRGPS  =  0.00D+00  THRKEX  =  0.00D+00  THRDIS  =  2.00D-01  THRVAR  =  1.00D-10
 THRLOC  =  1.00D-06  THRGAP  =  1.00D-06  THRLOCT = -1.00D+00  THRGAPT = -1.00D+00  THRORB  =  1.00D-06  THRMLTP =  0.00D+00
 THRCPQCI=  1.00D-10  KEXTA   =  0.00D+00  THRCOARS=  0.00D+00  SYMTOL  =  1.00D-06  GRADTOL =  1.00D-06  THROVL  =  1.00D-08
 THRORTH =  1.00D-08  GRID    =  1.00D-06  GRIDMAX =  1.00D-03  DTMAX   =  0.00D+00

 SETTING GEOMTYP        =    XYZ
 ZUNIT=BOHR
 

 Variable memory set to 1000000000 words,  buffer space   230000 words

 SETTING BASIS          =    CC-PVDZ


 Recomputing integrals since basis changed


 Using spherical harmonics

 Library entry O      S cc-pVDZ              selected for orbital group  1
 Library entry O      P cc-pVDZ              selected for orbital group  1
 Library entry O      D cc-pVDZ              selected for orbital group  1
 Library entry H      S cc-pVDZ              selected for orbital group  2
 Library entry H      P cc-pVDZ              selected for orbital group  2
 Library entry N      S cc-pVDZ              selected for orbital group  3
 Library entry N      P cc-pVDZ              selected for orbital group  3
 Library entry N      D cc-pVDZ              selected for orbital group  3

1PROGRAM * SEWARD (Integral evaluation for generally contracted gaussian basis sets)     Author: Roland Lindh, 1990

 Geometry written to block  1 of record 700


 Point group  C1  



 ATOMIC COORDINATES

 NR  ATOM    CHARGE       X              Y              Z

   1  O       8.00   -3.224649212    0.073459397    0.006819014
   2  H       1.00   -1.400127484   -0.158797256   -0.002896504
   3  H       1.00   -3.904736198   -1.609693628   -0.003677544
   4  N       7.00    2.327819140   -0.021637153   -0.000367468
   5  H       1.00    2.699032783    1.852548884   -0.001372769
   6  H       1.00    3.209831360   -0.756131515   -1.541922173
   7  H       1.00    3.207661483   -0.754046894    1.543417444

 Bond lengths in Bohr (Angstrom)

 1-2  1.839270801  1-3  1.815387725  4-5  1.910595164  4-6  1.921930912  4-7  1.921930913
     ( 0.973300189)     ( 0.960661810)     ( 1.011043417)     ( 1.017042036)     ( 1.017042036)

 Bond angles

  2-1-3  104.74458361   5-4-6  106.57651613   5-4-7  106.57651965   6-4-7  106.77108657

 NUCLEAR CHARGE:                   20
 NUMBER OF PRIMITIVE AOS:          89
 NUMBER OF SYMMETRY AOS:           87
 NUMBER OF CONTRACTIONS:           53   (  53A   )
 NUMBER OF CORE ORBITALS:           2   (   2A   )
 NUMBER OF VALENCE ORBITALS:       13   (  13A   )


 NUCLEAR REPULSION ENERGY   38.80153174


 Eigenvalues of metric

         1 0.154E-01 0.165E-01 0.391E-01 0.409E-01 0.419E-01 0.453E-01 0.465E-01 0.664E-01


 Contracted 2-electron integrals neglected if value below      1.0D-16
 AO integral compression algorithm  1   Integral accuracy      1.0D-16

     8.651 MB (compressed) written to integral file ( 90.3%)

     Node minimum: 8.651 MB, node maximum: 8.651 MB


 NUMBER OF SORTED TWO-ELECTRON INTEGRALS:    1024596.     BUFFER LENGTH:  32768
 NUMBER OF SEGMENTS:   1  SEGMENT LENGTH:    1024596      RECORD LENGTH: 524288

 Memory used in sort:       1.58 MW

 SORT1 READ     1216809. AND WROTE     1013158. INTEGRALS IN      3 RECORDS. CPU TIME:     0.01 SEC, REAL TIME:     0.02 SEC
 SORT2 READ     1013158. AND WROTE     1024596. INTEGRALS IN     33 RECORDS. CPU TIME:     0.02 SEC, REAL TIME:     0.03 SEC

 FILE SIZES:   FILE 1:    10.0 MBYTE,  FILE 4:    12.6 MBYTE,   TOTAL:     22.6 MBYTE

 OPERATOR DM      FOR CENTER  0  COORDINATES:    0.000000    0.000000    0.000000


 **********************************************************************************************************************************
 DATASETS  * FILE   NREC   LENGTH (MB)   RECORD NAMES
              1      19       10.01       500      610      700      900      950      970     1000      129      960     1100   
                                          VAR    BASINP    GEOM    SYMINP    ZMAT    AOBASIS   BASIS     P2S    ABASIS      S 
                                         1400     1410     1200     1210     1080     1600     1650     1300     1700   
                                           T        V       H0       H01     AOSYM     SMH    MOLCAS    ERIS     OPER   

 PROGRAMS   *        TOTAL       INT
 CPU TIMES  *         0.26      0.22
 REAL TIME  *         0.46 SEC
 DISK USED  *        31.90 MB      
 GA USED    *         0.00 MB       (max)       0.00 MB       (current)
 **********************************************************************************************************************************

1PROGRAM * RHF-SCF (CLOSED SHELL)       Authors: W. Meyer, H.-J. Werner


 NUMBER OF ELECTRONS:      10+   10-    SPACE SYMMETRY=1    SPIN SYMMETRY: Singlet 
 CONVERGENCE THRESHOLDS:    1.00E-10 (Density)    1.00E-13 (Energy)
 MAX. NUMBER OF ITERATIONS:      200
 INTERPOLATION TYPE:            DIIS
 INTERPOLATION STEPS:              2 (START)      1 (STEP)
 LEVEL SHIFTS:                  0.00 (CLOSED)  0.00 (OPEN) 



 Orbital guess generated from atomic densities. Full valence occupancy:   15

 Molecular orbital dump at record        2100.2

 ITERATION    DDIFF          GRAD             ENERGY        2-EL.EN.            DIPOLE MOMENTS         DIIS
    1      0.000D+00      0.000D+00      -132.17165388    177.634940    1.77535   -0.81561   -0.00992    0
    2      0.000D+00      0.136D-01      -132.21973248    172.707897    1.38383   -0.48297   -0.00626    1
    3      0.257D-01      0.674D-02      -132.23120091    174.651280    1.42155   -0.55568   -0.00704    2
    4      0.827D-02      0.950D-03      -132.23166897    174.501505    1.39978   -0.54363   -0.00691    3
    5      0.198D-02      0.229D-03      -132.23169750    174.498838    1.39251   -0.54205   -0.00689    4
    6      0.479D-03      0.672D-04      -132.23169947    174.506628    1.39145   -0.54133   -0.00688    5
    7      0.125D-03      0.211D-04      -132.23169973    174.504309    1.39075   -0.54129   -0.00688    6
    8      0.413D-04      0.310D-05      -132.23169973    174.504287    1.39061   -0.54123   -0.00688    7
    9      0.883D-05      0.499D-06      -132.23169973    174.504274    1.39059   -0.54124   -0.00688    6
   10      0.113D-05      0.127D-06      -132.23169973    174.504271    1.39059   -0.54124   -0.00688    6
   11      0.300D-06      0.358D-07      -132.23169973    174.504276    1.39059   -0.54124   -0.00688    6
   12      0.953D-07      0.102D-07      -132.23169973    174.504274    1.39059   -0.54124   -0.00688    6
   13      0.215D-07      0.383D-08      -132.23169973    174.504275    1.39059   -0.54124   -0.00688    6
   14      0.727D-08      0.830D-09      -132.23169973    174.504275    1.39059   -0.54124   -0.00688    7
   15      0.181D-08      0.276D-09      -132.23169973    174.504275    1.39059   -0.54124   -0.00688    7
   16      0.541D-09      0.903D-10      -132.23169973    174.504275    1.39059   -0.54124   -0.00688    7
   17      0.198D-09      0.185D-10      -132.23169973    174.504275    1.39059   -0.54124   -0.00688    7
   18      0.539D-10      0.296D-11      -132.23169973    174.504275    1.39059   -0.54124   -0.00688    7
   19      0.628D-11      0.605D-12      -132.23169973    174.504275    1.39059   -0.54124   -0.00688    0

 Final occupancy:  10

 !RHF STATE 1.1 Energy               -132.231699734810
 Nuclear energy                        38.80153174
 One-electron energy                 -258.28536875
 Two-electron energy                   87.25213727
 Virial quotient                       -1.00119802
 !RHF STATE 1.1 Dipole moment           1.39058616    -0.54123763    -0.00688149
 Dipole moment /Debye                   3.53428598    -1.37559874    -0.01748985

 Orbital energies:

         1.1          2.1          3.1          4.1          5.1          6.1          7.1          8.1          9.1         10.1
    -20.502797   -15.568227    -1.288223    -1.161188    -0.658255    -0.644106    -0.643278    -0.529059    -0.449182    -0.446232

        11.1         12.1
      0.166221     0.237461


 **********************************************************************************************************************************
 DATASETS  * FILE   NREC   LENGTH (MB)   RECORD NAMES
              1      19       10.01       500      610      700      900      950      970     1000      129      960     1100   
                                          VAR    BASINP    GEOM    SYMINP    ZMAT    AOBASIS   BASIS     P2S    ABASIS      S 
                                         1400     1410     1200     1210     1080     1600     1650     1300     1700   
                                           T        V       H0       H01     AOSYM     SMH    MOLCAS    ERIS     OPER   

              2       3        0.42       700     1000     2100   
                                         GEOM     BASIS     RHF  

 PROGRAMS   *        TOTAL       RHF       INT
 CPU TIMES  *         0.41      0.15      0.22
 REAL TIME  *         0.65 SEC
 DISK USED  *        31.90 MB      
 GA USED    *         0.00 MB       (max)       0.00 MB       (current)
 **********************************************************************************************************************************


1PROGRAM * MP2 (Closed-shell)     Authors: C. Hampel, H.-J. Werner, 1991, M. Deegan, P.J. Knowles, 1992


 Convergence thresholds:  THRVAR = 1.00D-08  THRDEN = 1.00D-12

 Number of core orbitals:           2 (   2 )
 Number of closed-shell orbitals:   8 (   8 )
 Number of external orbitals:      43 (  43 )

 Molecular orbitals read from record     2100.2  Type=RHF/CANONICAL (state 1.1)

 Number of N-1 electron functions:               8
 Number of N-2 electron functions:              36
 Number of singly external CSFs:               344
 Number of doubly external CSFs:             59340
 Total number of CSFs:                       59685

 Length of J-op  integral file:               0.00 MB
 Length of K-op  integral file:               0.22 MB

 Integral transformation finished. Total CPU:   0.01 sec, npass=  1  Memory used:   0.28 MW

 Memory needed for MP2:                      0.01 MW

 SCS-MP2 correlation energy:           -0.387754246643   (PS=  1.200000  PT=  0.333333)
 SCS-MP2 total energy:               -132.619453981453


  Reference energy                   -132.231699734810
  MP2 singlet pair energy              -0.249282037170
  MP2 triplet pair energy              -0.142418253276
  MP2 correlation energy               -0.391700290446

 !MP2 total energy                   -132.623400025256


 **********************************************************************************************************************************
 DATASETS  * FILE   NREC   LENGTH (MB)   RECORD NAMES
              1      20       11.28       500      610      700      900      950      970     1000      129      960     1100   
                                          VAR    BASINP    GEOM    SYMINP    ZMAT    AOBASIS   BASIS     P2S    ABASIS      S 
                                         1400     1410     1200     1210     1080     1600     1650     1300     1700     1380   
                                           T        V       H0       H01     AOSYM     SMH    MOLCAS    ERIS     OPER     JKOP   

              2       3        0.42       700     1000     2100   
                                         GEOM     BASIS     RHF  

 PROGRAMS   *        TOTAL       MP2       RHF       INT
 CPU TIMES  *         0.44      0.02      0.15      0.22
 REAL TIME  *         0.70 SEC
 DISK USED  *        31.90 MB      
 GA USED    *         0.00 MB       (max)       0.00 MB       (current)
 **********************************************************************************************************************************

        MP2             RHF-SCF 
   -132.62340003   -132.23169973
 **********************************************************************************************************************************
 Variable memory released
