
 Primary working directories    : /tmp/943420.167.gen4.q
 Secondary working directories  : /tmp/943420.167.gen4.q
 Wavefunction directory         : /home/vulcan/mel64643/wfu/
 Main file repository           : /tmp/943420.167.gen4.q/

 ARCHNAME  : Linux/x86_64
 FC        : /opt/intel/compilers_and_libraries_2016.1.150/linux/bin/intel64/ifort
 FCVERSION : 16.0.1
 BLASLIB   : -mkl
 id        : ccgc

 Nodes     nprocs
 n049         1
 ga_uses_ma=false, calling ma_init with nominal heap.
 GA-space will be limited to   8.0 MW (determined by -G option)

 Using customized tuning parameters: mindgm=10; mindgv=16; mindgc=4; mindgr=1; noblas=0; mincuda=1000; minvec=7
 default implementation of scratch files=df  

 ***,Optimization of nh3_nitrosmethane
 memory,1000,m
 gthresh,energy=1.0d-12,orbital=1.0d-10,oneint=1.0d-16,twoint=1.0d-16,optgrad=1.0d-6,compress=1.0d-13
 geomtyp=xyz
 
 bohr
 geometry = {
  N   -5.2215013273   -0.1867235024    0.0003778354
  H   -6.2962624308    0.2275559365   -1.5338311757
  H   -3.7578779709    1.0572073417    0.0000103520
  H   -6.2958742443    0.2280057117    1.5347372088
  H   -0.9279352927   -2.3954630036   -0.0044449191
  H    1.8776423898   -3.4409368657   -1.6667080801
  H    1.8790843738   -3.4228811462    1.6666187527
  C    1.1325308146   -2.4671482275   -0.0049478647
  N    2.2649697397    0.0997880619    0.0042449129
  O    0.7093424381    1.7776527024    0.0039429777
 }
 
 basis=aug-cc-pvdz, H=cc-pvdz
 {rhf;maxit,200}
 {ccsd(t);maxit,200}

 Variables initialized (661), CPU time= 0.01 sec
 Commands  initialized (458), CPU time= 0.00 sec, 486 directives.
 Default parameters read. Elapsed time= 0.04 sec

 Checking input...
 Passed
1


                                         ***  PROGRAM SYSTEM MOLPRO  ***
                         Copyright, University College Cardiff Consultants Limited, 2008

                                    Version 2010.1 linked May 16 2016 07:17:05


 **********************************************************************************************************************************
 LABEL *   Optimization of nh3_nitrosmethane                                             
 Linux-4.4.3/n049(x86_64) 64 bit mpp version                                             DATE: 26-Oct-23          TIME: 07:35:49  
 **********************************************************************************************************************************

 SHA1:             9e8077add272b0f3cad6f7df79ec5211205f459d
 **********************************************************************************************************************************

 THRESHOLDS:

 ZERO    =  1.00D-12  ONEINT  =  1.00D-16  TWOINT  =  1.00D-16  PREFAC  =  1.00D-14  LOCALI  =  1.00D-09  EORDER  =  1.00D-04
 ENERGY  =  1.00D-12  ETEST   =  0.00D+00  EDENS   =  0.00D+00  THRDEDEF=  1.00D-06  GRADIENT=  1.00D-02  STEP    =  1.00D-03
 ORBITAL =  1.00D-10  CIVEC   =  1.00D-05  COEFF   =  1.00D-04  PRINTCI =  5.00D-02  PUNCHCI =  9.90D+01  OPTGRAD =  1.00D-06
 OPTENERG=  1.00D-06  OPTSTEP =  3.00D-04  THRGRAD =  1.00D-10  COMPRESS=  1.00D-13  VARMIN  =  1.00D-07  VARMAX  =  1.00D-03
 THRDOUB =  0.00D+00  THRDIV  =  1.00D-05  THRRED  =  1.00D-07  THRPSP  =  1.00D+00  THRDC   =  1.00D-10  THRCS   =  1.00D-10
 THRNRM  =  1.00D-08  THREQ   =  0.00D+00  THRDE   =  1.00D+00  THRREF  =  1.00D-05  SPARFAC =  1.00D+00  THRDLP  =  1.00D-07
 THRDIA  =  1.00D-10  THRDLS  =  1.00D-07  THRGPS  =  0.00D+00  THRKEX  =  0.00D+00  THRDIS  =  2.00D-01  THRVAR  =  1.00D-10
 THRLOC  =  1.00D-06  THRGAP  =  1.00D-06  THRLOCT = -1.00D+00  THRGAPT = -1.00D+00  THRORB  =  1.00D-06  THRMLTP =  0.00D+00
 THRCPQCI=  1.00D-10  KEXTA   =  0.00D+00  THRCOARS=  0.00D+00  SYMTOL  =  1.00D-06  GRADTOL =  1.00D-06  THROVL  =  1.00D-08
 THRORTH =  1.00D-08  GRID    =  1.00D-06  GRIDMAX =  1.00D-03  DTMAX   =  0.00D+00

 SETTING GEOMTYP        =    XYZ
 ZUNIT=BOHR
 

 Variable memory set to 1000000000 words,  buffer space   230000 words

 SETTING BASIS          =    AUG-CC-PVDZ,H=CC-PVDZ


 Recomputing integrals since basis changed


 Using spherical harmonics

 Library entry N      S aug-cc-pVDZ          selected for orbital group  1
 Library entry N      P aug-cc-pVDZ          selected for orbital group  1
 Library entry N      D aug-cc-pVDZ          selected for orbital group  1
 Library entry H      S cc-pVDZ              selected for orbital group  2
 Library entry H      P cc-pVDZ              selected for orbital group  2
 Library entry C      S aug-cc-pVDZ          selected for orbital group  3
 Library entry C      P aug-cc-pVDZ          selected for orbital group  3
 Library entry C      D aug-cc-pVDZ          selected for orbital group  3
 Library entry O      S aug-cc-pVDZ          selected for orbital group  5
 Library entry O      P aug-cc-pVDZ          selected for orbital group  5
 Library entry O      D aug-cc-pVDZ          selected for orbital group  5

1PROGRAM * SEWARD (Integral evaluation for generally contracted gaussian basis sets)     Author: Roland Lindh, 1990

 Geometry written to block  1 of record 700


 Point group  C1  



 ATOMIC COORDINATES

 NR  ATOM    CHARGE       X              Y              Z

   1  N       7.00   -5.221501327   -0.186723502    0.000377835
   2  H       1.00   -6.296262431    0.227555937   -1.533831176
   3  H       1.00   -3.757877971    1.057207342    0.000010352
   4  H       1.00   -6.295874244    0.228005712    1.534737209
   5  H       1.00   -0.927935293   -2.395463004   -0.004444919
   6  H       1.00    1.877642390   -3.440936866   -1.666708080
   7  H       1.00    1.879084374   -3.422881146    1.666618753
   8  C       6.00    1.132530815   -2.467148228   -0.004947865
   9  N       7.00    2.264969740    0.099788062    0.004244913
  10  O       8.00    0.709342438    1.777652702    0.003942978

 Bond lengths in Bohr (Angstrom)

 1-2  1.918472354  1-3  1.920822066  1-4  1.918472354  5-8  2.061712784  6-8  2.065164058
     ( 1.015211846)     ( 1.016455260)     ( 1.015211846)     ( 1.091011417)     ( 1.092837752)

  7- 8  2.065164058   8- 9  2.805648649   9-10  2.288057286
       ( 1.092837752)       ( 1.484685321)       ( 1.210787769)

 Bond angles

  2-1-3  106.67095379   2-1-4  106.21107417   3-1-4  106.67095379   5-8-6  112.15870103

  5-8-7  112.15870610   5-8-9  111.81259324   6-8-7  107.61715626   6-8-9  106.76333339

  7- 8- 9  105.95305143   8- 9-10  113.35946296

 NUCLEAR CHARGE:                   34
 NUMBER OF PRIMITIVE AOS:         190
 NUMBER OF SYMMETRY AOS:          182
 NUMBER OF CONTRACTIONS:          122   ( 122A   )
 NUMBER OF CORE ORBITALS:           4   (   4A   )
 NUMBER OF VALENCE ORBITALS:       22   (  22A   )


 NUCLEAR REPULSION ENERGY  117.53199564


 Eigenvalues of metric

         1 0.460E-03 0.141E-02 0.195E-02 0.431E-02 0.524E-02 0.748E-02 0.799E-02 0.855E-02


 Contracted 2-electron integrals neglected if value below      1.0D-16
 AO integral compression algorithm  1   Integral accuracy      1.0D-16

     236.192 MB (compressed) written to integral file ( 87.9%)

     Node minimum: 236.192 MB, node maximum: 236.192 MB


 NUMBER OF SORTED TWO-ELECTRON INTEGRALS:   28151256.     BUFFER LENGTH:  32768
 NUMBER OF SEGMENTS:   2  SEGMENT LENGTH:   15997996      RECORD LENGTH: 524288

 Memory used in sort:      16.56 MW

 SORT1 READ    33603451. AND WROTE    27861219. INTEGRALS IN     81 RECORDS. CPU TIME:     0.34 SEC, REAL TIME:     0.51 SEC
 SORT2 READ    27861219. AND WROTE    28151256. INTEGRALS IN    901 RECORDS. CPU TIME:     0.26 SEC, REAL TIME:     0.39 SEC

 FILE SIZES:   FILE 1:   203.1 MBYTE,  FILE 4:   339.8 MBYTE,   TOTAL:    542.9 MBYTE

 OPERATOR DM      FOR CENTER  0  COORDINATES:    0.000000    0.000000    0.000000


 **********************************************************************************************************************************
 DATASETS  * FILE   NREC   LENGTH (MB)   RECORD NAMES
              1      19      203.32       500      610      700      900      950      970     1000      129      960     1100   
                                          VAR    BASINP    GEOM    SYMINP    ZMAT    AOBASIS   BASIS     P2S    ABASIS      S 
                                         1400     1410     1200     1210     1080     1600     1650     1300     1700   
                                           T        V       H0       H01     AOSYM     SMH    MOLCAS    ERIS     OPER   

 PROGRAMS   *        TOTAL       INT
 CPU TIMES  *         2.16      2.11
 REAL TIME  *         2.74 SEC
 DISK USED  *       779.89 MB      
 GA USED    *         0.00 MB       (max)       0.00 MB       (current)
 **********************************************************************************************************************************

1PROGRAM * RHF-SCF (CLOSED SHELL)       Authors: W. Meyer, H.-J. Werner


 NUMBER OF ELECTRONS:      17+   17-    SPACE SYMMETRY=1    SPIN SYMMETRY: Singlet 
 CONVERGENCE THRESHOLDS:    1.00E-10 (Density)    1.00E-13 (Energy)
 MAX. NUMBER OF ITERATIONS:      200
 INTERPOLATION TYPE:            DIIS
 INTERPOLATION STEPS:              2 (START)      1 (STEP)
 LEVEL SHIFTS:                  0.00 (CLOSED)  0.00 (OPEN) 



 Orbital guess generated from atomic densities. Full valence occupancy:   26

 Molecular orbital dump at record        2100.2

 ITERATION    DDIFF          GRAD             ENERGY        2-EL.EN.            DIPOLE MOMENTS         DIIS
    1      0.000D+00      0.000D+00      -224.96649257    393.349669    0.05819   -0.55402   -0.00132    0
    2      0.000D+00      0.707D-02      -225.02754804    392.990487   -0.57949   -0.37252   -0.00414    1
    3      0.131D-01      0.488D-02      -225.06038188    393.527530   -0.24293   -0.54223   -0.00331    2
    4      0.566D-02      0.983D-03      -225.06261241    393.362126   -0.31995   -0.44713   -0.00338    3
    5      0.145D-02      0.390D-03      -225.06302905    393.375208   -0.31764   -0.47654   -0.00347    4
    6      0.632D-03      0.948D-04      -225.06307093    393.401914   -0.32297   -0.47376   -0.00349    5
    7      0.217D-03      0.362D-04      -225.06307693    393.386024   -0.32460   -0.47389   -0.00349    6
    8      0.863D-04      0.146D-04      -225.06307789    393.392496   -0.32560   -0.47382   -0.00349    7
    9      0.328D-04      0.618D-05      -225.06307809    393.391341   -0.32586   -0.47353   -0.00349    8
   10      0.178D-04      0.187D-05      -225.06307811    393.391062   -0.32594   -0.47335   -0.00349    8
   11      0.537D-05      0.632D-06      -225.06307812    393.391166   -0.32596   -0.47327   -0.00349    8
   12      0.177D-05      0.193D-06      -225.06307812    393.391132   -0.32596   -0.47324   -0.00349    8
   13      0.665D-06      0.607D-07      -225.06307812    393.391126   -0.32596   -0.47324   -0.00349    8
   14      0.161D-06      0.323D-07      -225.06307812    393.391128   -0.32596   -0.47324   -0.00349    9
   15      0.806D-07      0.942D-08      -225.06307812    393.391128   -0.32596   -0.47324   -0.00349    8
   16      0.264D-07      0.706D-08      -225.06307812    393.391128   -0.32596   -0.47324   -0.00349    7
   17      0.493D-07      0.335D-08      -225.06307812    393.391128   -0.32596   -0.47324   -0.00349    8
   18      0.317D-07      0.104D-08      -225.06307812    393.391128   -0.32596   -0.47324   -0.00349    9
   19      0.698D-08      0.247D-09      -225.06307812    393.391128   -0.32596   -0.47324   -0.00349    9
   20      0.858D-09      0.837D-10      -225.06307812    393.391128   -0.32596   -0.47324   -0.00349    9
   21      0.227D-09      0.273D-10      -225.06307812    393.391128   -0.32596   -0.47324   -0.00349    9
   22      0.693D-10      0.983D-11      -225.06307812    393.391128   -0.32596   -0.47324   -0.00349    8
   23      0.254D-10      0.421D-11      -225.06307812    393.391128   -0.32596   -0.47324   -0.00349    9
   24      0.105D-10      0.183D-11      -225.06307812    393.391128   -0.32596   -0.47324   -0.00349    8
   25      0.398D-11      0.108D-11      -225.06307812    393.391128   -0.32596   -0.47324   -0.00349    9
   26      0.283D-11      0.317D-12      -225.06307812    393.391128   -0.32596   -0.47324   -0.00349    9
   27      0.901D-12      0.110D-12      -225.06307812    393.391128   -0.32596   -0.47324   -0.00349    9
   28      0.867D-12      0.735D-13      -225.06307812    393.391128   -0.32596   -0.47324   -0.00349    9
   29      0.532D-12      0.553D-13      -225.06307812    393.391128   -0.32596   -0.47324   -0.00349    9
   30      0.412D-12      0.464D-13      -225.06307812    393.391128   -0.32596   -0.47324   -0.00349    9
   31      0.294D-12      0.444D-13      -225.06307812    393.391128   -0.32596   -0.47324   -0.00349    9
   32      0.375D-12      0.483D-13      -225.06307812    393.391128   -0.32596   -0.47324   -0.00349    9
   33      0.236D-12      0.350D-13      -225.06307812    393.391128   -0.32596   -0.47324   -0.00349    9
   34      0.234D-12      0.378D-13      -225.06307812    393.391128   -0.32596   -0.47324   -0.00349    9
   35      0.205D-12      0.336D-13      -225.06307812    393.391128   -0.32596   -0.47324   -0.00349    9
   36      0.176D-12      0.342D-13      -225.06307812    393.391128   -0.32596   -0.47324   -0.00349    9
   37      0.210D-12      0.276D-13      -225.06307812    393.391128   -0.32596   -0.47324   -0.00349    0

 Final occupancy:  17

 !RHF STATE 1.1 Energy               -225.063078115774
 Nuclear energy                       117.53199564
 One-electron energy                 -539.29063784
 Two-electron energy                  196.69556408
 Virial quotient                       -1.00210253
 !RHF STATE 1.1 Dipole moment          -0.32595897    -0.47323776    -0.00348865
 Dipole moment /Debye                  -0.82845079    -1.20277162    -0.00886669

 Orbital energies:

         1.1          2.1          3.1          4.1          5.1          6.1          7.1          8.1          9.1         10.1
    -20.640173   -15.713881   -15.549007   -11.270571    -1.519529    -1.140172    -1.075446    -0.862131    -0.692818    -0.676903

        11.1         12.1         13.1         14.1         15.1         16.1         17.1         18.1         19.1
     -0.637205    -0.624006    -0.623479    -0.555801    -0.535668    -0.428229    -0.404736     0.077701     0.085682


 **********************************************************************************************************************************
 DATASETS  * FILE   NREC   LENGTH (MB)   RECORD NAMES
              1      19      203.32       500      610      700      900      950      970     1000      129      960     1100   
                                          VAR    BASINP    GEOM    SYMINP    ZMAT    AOBASIS   BASIS     P2S    ABASIS      S 
                                         1400     1410     1200     1210     1080     1600     1650     1300     1700   
                                           T        V       H0       H01     AOSYM     SMH    MOLCAS    ERIS     OPER   

              2       3        0.72       700     1000     2100   
                                         GEOM     BASIS     RHF  

 PROGRAMS   *        TOTAL       RHF       INT
 CPU TIMES  *        10.58      8.42      2.11
 REAL TIME  *        12.05 SEC
 DISK USED  *       779.89 MB      
 GA USED    *         0.00 MB       (max)       0.00 MB       (current)
 **********************************************************************************************************************************


1PROGRAM * CCSD (Closed-shell coupled cluster)     Authors: C. Hampel, H.-J. Werner, 1991, M. Deegan, P.J. Knowles, 1992


 Convergence thresholds:  THRVAR = 1.00D-08  THRDEN = 1.00D-12

 CCSD(T)     terms to be evaluated (factor= 1.000)


 Number of core orbitals:           4 (   4 )
 Number of closed-shell orbitals:  13 (  13 )
 Number of external orbitals:     105 ( 105 )

 Molecular orbitals read from record     2100.2  Type=RHF/CANONICAL (state 1.1)

 Number of N-1 electron functions:              13
 Number of N-2 electron functions:              91
 Number of singly external CSFs:              1365
 Number of doubly external CSFs:            932295
 Total number of CSFs:                      933661

 Length of J-op  integral file:               0.00 MB
 Length of K-op  integral file:               1.06 MB
 Length of 3-ext integral record:             0.00 MB

 Memory could be reduced to 20.68 Mwords without degradation in triples

 Integral transformation finished. Total CPU:   1.27 sec, npass=  1  Memory used:  15.40 MW

 Reference energy:                   -225.06307812

 MP2 singlet pair energy:              -0.44805510
 MP2 triplet pair energy:              -0.26425149
 MP2 correlation energy:               -0.71230659
 MP2 total energy:                   -225.77538471

 SCS-MP2 correlation energy:           -0.70208927   (PS=  1.200000  PT=  0.333333)
 SCS-MP2 total energy:               -225.76516739

 ITER.      SQ.NORM     CORR.ENERGY   TOTAL ENERGY   ENERGY CHANGE        DEN1      VAR(S)    VAR(P)  DIIS     TIME
   1      1.24104200    -0.74647994  -225.80955806    -0.03417335    -0.01061057  0.52D-02  0.49D-02  1  1     3.90
   2      1.26270484    -0.74960054  -225.81267866    -0.00312060    -0.02100679  0.16D-03  0.85D-03  2  2     6.56
   3      1.27256149    -0.75028920  -225.81336732    -0.00068866    -0.00455970  0.12D-03  0.61D-04  3  3     9.24
   4      1.27663732    -0.75025544  -225.81333355     0.00003377    -0.00135297  0.11D-04  0.11D-04  4  4    11.89
   5      1.27824295    -0.75027246  -225.81335057    -0.00001702    -0.00035147  0.19D-05  0.16D-05  5  5    14.57
   6      1.27869089    -0.75024273  -225.81332085     0.00002973    -0.00005356  0.15D-06  0.33D-06  6  6    17.25
   7      1.27879008    -0.75023991  -225.81331802     0.00000282    -0.00000375  0.33D-07  0.86D-07  6  2    19.93
   8      1.27881396    -0.75024068  -225.81331879    -0.00000077    -0.00000042  0.43D-08  0.20D-07  6  1    22.61
   9      1.27881415    -0.75024012  -225.81331824     0.00000055     0.00000431  0.25D-08  0.31D-08  6  4    25.28
  10      1.27881634    -0.75024090  -225.81331901    -0.00000078    -0.00000116  0.51D-09  0.42D-09  6  3    27.95
  11      1.27881425    -0.75024111  -225.81331922    -0.00000021     0.00000043  0.17D-09  0.75D-10  6  5    30.62
  12      1.27881275    -0.75024118  -225.81331929    -0.00000007     0.00000031  0.39D-10  0.16D-10  6  6    33.29
  13      1.27881117    -0.75024129  -225.81331941    -0.00000012     0.00000039  0.59D-11  0.38D-11  6  1    35.97
  14      1.27881051    -0.75024131  -225.81331942    -0.00000001     0.00000017  0.16D-11  0.56D-12  6  2    38.65
  15      1.27881026    -0.75024131  -225.81331943    -0.00000001     0.00000004  0.47D-12  0.11D-12  6  4    41.33
  16      1.27881020    -0.75024132  -225.81331943    -0.00000000     0.00000001  0.26D-12  0.41D-13  6  3    44.00
  17      1.27881018    -0.75024132  -225.81331943     0.00000000    -0.00000000  0.15D-12  0.18D-13  6  6    46.67
  18      1.27881017    -0.75024132  -225.81331943    -0.00000000    -0.00000000  0.79D-13  0.94D-14  6  5    49.35
  19      1.27881018    -0.75024132  -225.81331943     0.00000000    -0.00000000  0.33D-13  0.55D-14  6  2    52.03
  20      1.27881018    -0.75024132  -225.81331943    -0.00000000     0.00000000  0.89D-14  0.23D-14  6  1    54.69
  21      1.27881018    -0.75024132  -225.81331943     0.00000000    -0.00000000  0.11D-14  0.71D-15  6  3    57.37
  22      1.27881018    -0.75024132  -225.81331943     0.00000000     0.00000000  0.16D-15  0.16D-15  6  4    60.04
  23      1.27881018    -0.75024132  -225.81331943    -0.00000000    -0.00000000  0.23D-16  0.32D-16  6  5    62.71
  24      1.27881019    -0.75024132  -225.81331943     0.00000000    -0.00000000  0.63D-17  0.95D-17  6  6    65.39
  25      1.27881019    -0.75024132  -225.81331943     0.00000000    -0.00000000  0.18D-17  0.30D-17  6  2    68.07
  26      1.27881019    -0.75024132  -225.81331943    -0.00000000     0.00000000  0.40D-18  0.10D-17  6  4    70.76
  27      1.27881019    -0.75024132  -225.81331943    -0.00000000     0.00000000  0.21D-18  0.14D-18  6  1    73.43
  28      1.27881019    -0.75024132  -225.81331943    -0.00000000     0.00000000  0.11D-18  0.29D-19  6  3    76.09

 Norm of t1 vector:      0.11021531      S-energy:    -0.00000000      T1 diagnostic:  0.01528411
                                                                       D1 diagnostic:  0.04846829

 Doubles amplitudes (print threshold =  0.500E-01):

         I         J         SYM. A    SYM. B    A         B      T(IJ, AB)

        11        11         1         1         2         2     -0.05265944


 Total CPU time for triples:     39.06 sec


 RESULTS
 =======

  Reference energy                   -225.063078115774
  CCSD singlet pair energy             -0.516302385231
  CCSD triplet pair energy             -0.233938930125
  CCSD correlation energy              -0.750241315358

  Triples (T) contribution             -0.026154709505
  Total correlation energy             -0.776396024862

  CCSD total energy                  -225.813319431132
  CCSD[T] energy                     -225.841053562076
  CCSD-T energy                      -225.838985440896
 !CCSD(T) total energy               -225.839474140637

 Timing summary (sec):

 STEP                 CPU(USER)    SYS     CPU(TOT)    WALL
 Transformation          1.32      0.12      1.44      1.44
 CCSD iterations        74.78      2.01     76.79     76.88
 Triples                39.06      0.75     39.81     39.82

 Program statistics:

 Available memory in ccsd:               999999224
 Min. memory needed in ccsd:               2510565
 Max. memory used in ccsd:                 3320127
 Max. memory used in cckext:               2903072 (28 integral passes)



 **********************************************************************************************************************************
 DATASETS  * FILE   NREC   LENGTH (MB)   RECORD NAMES
              1      20      280.72       500      610      700      900      950      970     1000      129      960     1100   
                                          VAR    BASINP    GEOM    SYMINP    ZMAT    AOBASIS   BASIS     P2S    ABASIS      S 
                                         1400     1410     1200     1210     1080     1600     1650     1300     1700     1380   
                                           T        V       H0       H01     AOSYM     SMH    MOLCAS    ERIS     OPER     JKOP   

              2       3        0.72       700     1000     2100   
                                         GEOM     BASIS     RHF  

 PROGRAMS   *        TOTAL   CCSD(T)       RHF       INT
 CPU TIMES  *       125.76    115.17      8.42      2.11
 REAL TIME  *       130.23 SEC
 DISK USED  *       779.89 MB      
 GA USED    *         0.00 MB       (max)       0.00 MB       (current)
 **********************************************************************************************************************************

        CCSD(T)         RHF-SCF 
   -225.83947414   -225.06307812
 **********************************************************************************************************************************
 Variable memory released
