
 Primary working directories    : /tmp/1059987.672.gen6.q
 Secondary working directories  : /tmp/1059987.672.gen6.q
 Wavefunction directory         : /home/vulcan/jj04645/wfu/
 Main file repository           : /tmp/1059987.672.gen6.q/

 ARCHNAME  : Linux/x86_64
 FC        : /opt/intel/compilers_and_libraries_2016.1.150/linux/bin/intel64/ifort
 FCVERSION : 16.0.1
 BLASLIB   : -mkl
 id        : ccgc

 Nodes     nprocs
 n090         1
 ga_uses_ma=false, calling ma_init with nominal heap.
 GA-space will be limited to   8.0 MW (determined by -G option)

 Using customized tuning parameters: mindgm=10; mindgv=16; mindgc=4; mindgr=1; noblas=0; mincuda=1000; minvec=7
 default implementation of scratch files=df  

 ***,Optimization of 1_4_cyclohexadiene
 memory,1000,m
 gthresh,energy=1.0d-12,orbital=1.0d-10,oneint=1.0d-16,twoint=1.0d-16,optgrad=1.0d-6,compress=1.0d-13
 geomtyp=xyz
 
 bohr
 geometry = {
  H    4.1088911029   -0.0000000000   -1.6373690860
  C    2.8410724209   -0.0000000000    0.0036681833
  C   -1.2651113948    2.3673532499   -0.0028911553
  C   -1.2651113948   -2.3673532499   -0.0028911553
  C   -2.8410724209   -0.0000000000    0.0036681833
  C    1.2651113948   -2.3673532499   -0.0028911553
  C    1.2651113948    2.3673532499   -0.0028911553
  H   -2.2708744639    4.1604642599   -0.0078594137
  H    2.2708744639    4.1604642599   -0.0078594137
  H   -4.1088911029   -0.0000000000   -1.6373690860
  H    2.2708744639   -4.1604642599   -0.0078594137
  H   -2.2708744639   -4.1604642599   -0.0078594137
  H    4.0951870277   -0.0000000000    1.6552020408
  H   -4.0951870277   -0.0000000000    1.6552020408
 }
 
 basis=VDZ
 {rhf;maxit,200}
 {ccsd(t);maxit,200}

 Variables initialized (661), CPU time= 0.00 sec
 Commands  initialized (458), CPU time= 0.01 sec, 486 directives.
 Default parameters read. Elapsed time= 0.05 sec

 Checking input...
 Passed
1


                                         ***  PROGRAM SYSTEM MOLPRO  ***
                         Copyright, University College Cardiff Consultants Limited, 2008

                                    Version 2010.1 linked May 16 2016 07:17:05


 **********************************************************************************************************************************
 LABEL *   Optimization of 1_4_cyclohexadiene                                            
 Linux-4.4.3/n090(x86_64) 64 bit mpp version                                             DATE: 06-May-24          TIME: 15:40:51  
 **********************************************************************************************************************************

 SHA1:             9e8077add272b0f3cad6f7df79ec5211205f459d
 **********************************************************************************************************************************

 THRESHOLDS:

 ZERO    =  1.00D-12  ONEINT  =  1.00D-16  TWOINT  =  1.00D-16  PREFAC  =  1.00D-14  LOCALI  =  1.00D-09  EORDER  =  1.00D-04
 ENERGY  =  1.00D-12  ETEST   =  0.00D+00  EDENS   =  0.00D+00  THRDEDEF=  1.00D-06  GRADIENT=  1.00D-02  STEP    =  1.00D-03
 ORBITAL =  1.00D-10  CIVEC   =  1.00D-05  COEFF   =  1.00D-04  PRINTCI =  5.00D-02  PUNCHCI =  9.90D+01  OPTGRAD =  1.00D-06
 OPTENERG=  1.00D-06  OPTSTEP =  3.00D-04  THRGRAD =  1.00D-10  COMPRESS=  1.00D-13  VARMIN  =  1.00D-07  VARMAX  =  1.00D-03
 THRDOUB =  0.00D+00  THRDIV  =  1.00D-05  THRRED  =  1.00D-07  THRPSP  =  1.00D+00  THRDC   =  1.00D-10  THRCS   =  1.00D-10
 THRNRM  =  1.00D-08  THREQ   =  0.00D+00  THRDE   =  1.00D+00  THRREF  =  1.00D-05  SPARFAC =  1.00D+00  THRDLP  =  1.00D-07
 THRDIA  =  1.00D-10  THRDLS  =  1.00D-07  THRGPS  =  0.00D+00  THRKEX  =  0.00D+00  THRDIS  =  2.00D-01  THRVAR  =  1.00D-10
 THRLOC  =  1.00D-06  THRGAP  =  1.00D-06  THRLOCT = -1.00D+00  THRGAPT = -1.00D+00  THRORB  =  1.00D-06  THRMLTP =  0.00D+00
 THRCPQCI=  1.00D-10  KEXTA   =  0.00D+00  THRCOARS=  0.00D+00  SYMTOL  =  1.00D-06  GRADTOL =  1.00D-06  THROVL  =  1.00D-08
 THRORTH =  1.00D-08  GRID    =  1.00D-06  GRIDMAX =  1.00D-03  DTMAX   =  0.00D+00

 SETTING GEOMTYP        =    XYZ
 ZUNIT=BOHR
 

 Variable memory set to 1000000000 words,  buffer space   230000 words

 SETTING BASIS          =    VDZ


 Recomputing integrals since basis changed


 Using spherical harmonics

 Library entry H      S cc-pVDZ              selected for orbital group  1
 Library entry H      P cc-pVDZ              selected for orbital group  1
 Library entry C      S cc-pVDZ              selected for orbital group  2
 Library entry C      P cc-pVDZ              selected for orbital group  2
 Library entry C      D cc-pVDZ              selected for orbital group  2

1PROGRAM * SEWARD (Integral evaluation for generally contracted gaussian basis sets)     Author: Roland Lindh, 1990

 Geometry written to block  1 of record 700


 Point group  C2v 



 ATOMIC COORDINATES

 NR  ATOM    CHARGE       X              Y              Z

   1  H       1.00    4.108891103    0.000000000   -1.637369086
   2  H       1.00   -4.108891103    0.000000000   -1.637369086
   3  C       6.00    2.841072421    0.000000000    0.003668183
   4  C       6.00   -2.841072421    0.000000000    0.003668183
   5  C       6.00   -1.265111395    2.367353250   -0.002891155
   6  C       6.00   -1.265111395   -2.367353250   -0.002891155
   7  C       6.00    1.265111395   -2.367353250   -0.002891155
   8  C       6.00    1.265111395    2.367353250   -0.002891155
   9  H       1.00   -2.270874464    4.160464260   -0.007859414
  10  H       1.00    2.270874464    4.160464260   -0.007859414
  11  H       1.00    2.270874464   -4.160464260   -0.007859414
  12  H       1.00   -2.270874464   -4.160464260   -0.007859414
  13  H       1.00    4.095187028    0.000000000    1.655202041
  14  H       1.00   -4.095187028    0.000000000    1.655202041

 Bond lengths in Bohr (Angstrom)

  1- 3  2.073732753   2- 4  2.073732753   3- 7  2.843951053   3- 8  2.843951053   3-13  2.073732753
       ( 1.097372110)       ( 1.097372110)       ( 1.504954081)       ( 1.504954081)       ( 1.097372110)

  4- 5  2.843951053   4- 6  2.843951053   4-14  2.073732753   5- 8  2.530222790   5- 9  2.055925857
       ( 1.504954081)       ( 1.504954081)       ( 1.097372110)       ( 1.338936234)       ( 1.087949107)

  6- 7  2.530222790   6-12  2.055925857   7-11  2.055925857   8-10  2.055925857
       ( 1.338936234)       ( 1.087949107)       ( 1.087949107)       ( 1.087949107)

 Bond angles

  1- 3- 7  109.69192643   1- 3- 8  109.69192643   1- 3-13  105.09963504   2- 4- 5  109.69192643

  2- 4- 6  109.69192643   2- 4-14  105.09963504   3- 7- 6  123.65183911   3- 7-11  117.06001515

  3- 8- 5  123.65183911   3- 8-10  117.06001515   4- 5- 8  123.65183911   4- 5- 9  117.06001515

  4- 6- 7  123.65183911   4- 6-12  117.06001515   5- 4- 6  112.69566103   5- 4-14  109.69192644

  5- 8-10  119.28814573   6- 4-14  109.69192644   6- 7-11  119.28814573   7- 3- 8  112.69566103

  7- 3-13  109.69192644   7- 6-12  119.28814573   8- 3-13  109.69192644   8- 5- 9  119.28814573

 NUCLEAR CHARGE:                   44
 NUMBER OF PRIMITIVE AOS:         218
 NUMBER OF SYMMETRY AOS:          212
 NUMBER OF CONTRACTIONS:          124   (  37A1  +  37B1  +  25B2  +  25A2  )
 NUMBER OF CORE ORBITALS:           6   (   2A1  +   2B1  +   1B2  +   1A2  )
 NUMBER OF VALENCE ORBITALS:       32   (  10A1  +  10B1  +   6B2  +   6A2  )


 NUCLEAR REPULSION ENERGY  217.70796739


 Eigenvalues of metric

         1 0.345E-02 0.183E-01 0.274E-01 0.356E-01 0.382E-01 0.394E-01 0.438E-01 0.796E-01
         2 0.670E-03 0.315E-02 0.164E-01 0.227E-01 0.261E-01 0.321E-01 0.366E-01 0.454E-01
         3 0.562E-02 0.258E-01 0.362E-01 0.539E-01 0.124E+00 0.132E+00 0.139E+00 0.170E+00
         4 0.168E-02 0.432E-02 0.144E-01 0.315E-01 0.605E-01 0.863E-01 0.990E-01 0.103E+00


 Contracted 2-electron integrals neglected if value below      1.0D-16
 AO integral compression algorithm  1   Integral accuracy      1.0D-16

     82.313 MB (compressed) written to integral file ( 98.2%)

     Node minimum: 82.313 MB, node maximum: 82.313 MB


 NUMBER OF SORTED TWO-ELECTRON INTEGRALS:    7708939.     BUFFER LENGTH:  32768
 NUMBER OF SEGMENTS:   1  SEGMENT LENGTH:    7708939      RECORD LENGTH: 524288

 Memory used in sort:       8.27 MW

 SORT1 READ    10470800. AND WROTE     7535067. INTEGRALS IN     22 RECORDS. CPU TIME:     0.15 SEC, REAL TIME:     0.20 SEC
 SORT2 READ     7535067. AND WROTE     7708939. INTEGRALS IN    314 RECORDS. CPU TIME:     0.11 SEC, REAL TIME:     0.15 SEC

 FILE SIZES:   FILE 1:    64.6 MBYTE,  FILE 4:    92.3 MBYTE,   TOTAL:    156.9 MBYTE

 OPERATOR DM      FOR CENTER  0  COORDINATES:    0.000000    0.000000    0.000000


 **********************************************************************************************************************************
 DATASETS  * FILE   NREC   LENGTH (MB)   RECORD NAMES
              1      19       64.64       500      610      700      900      950      970     1000      129      960     1100   
                                          VAR    BASINP    GEOM    SYMINP    ZMAT    AOBASIS   BASIS     P2S    ABASIS      S 
                                         1400     1410     1200     1210     1080     1600     1650     1300     1700   
                                           T        V       H0       H01     AOSYM     SMH    MOLCAS    ERIS     OPER   

 PROGRAMS   *        TOTAL       INT
 CPU TIMES  *         1.88      1.84
 REAL TIME  *         2.19 SEC
 DISK USED  *       240.15 MB      
 GA USED    *         0.00 MB       (max)       0.00 MB       (current)
 **********************************************************************************************************************************

1PROGRAM * RHF-SCF (CLOSED SHELL)       Authors: W. Meyer, H.-J. Werner


 NUMBER OF ELECTRONS:      22+   22-
 CONVERGENCE THRESHOLDS:    1.00E-10 (Density)    1.00E-13 (Energy)
 MAX. NUMBER OF ITERATIONS:      200
 INTERPOLATION TYPE:            DIIS
 INTERPOLATION STEPS:              2 (START)      1 (STEP)
 LEVEL SHIFTS:                  0.00 (CLOSED)  0.00 (OPEN) 



 Orbital guess generated from atomic densities. Full valence occupancy:   12  12   7   7

 Molecular orbital dump at record        2100.2

 Initial alpha occupancy:   8   6   5   3
 Initial beta  occupancy:   8   6   5   3
 Wave function symmetry:    1

 ITERATION    DDIFF          GRAD             ENERGY        2-EL.EN.            DIPOLE MOMENTS         DIIS
    1      0.000D+00      0.000D+00      -231.78151875    590.390196    0.00000    0.00000    0.00224    0
    2      0.000D+00      0.879D-02      -231.84383181    585.526084    0.00000    0.00000    0.00079    1
    3      0.178D-01      0.346D-02      -231.85139355    587.856637    0.00000    0.00000    0.00102    2
    4      0.662D-02      0.118D-02      -231.85263918    587.244557    0.00000    0.00000    0.00089    3
    5      0.246D-02      0.120D-03      -231.85265756    587.249685    0.00000    0.00000    0.00087    4
    6      0.452D-03      0.256D-04      -231.85265815    587.246616    0.00000    0.00000    0.00088    5
    7      0.631D-04      0.853D-05      -231.85265822    587.247649    0.00000    0.00000    0.00088    6
    8      0.245D-04      0.167D-05      -231.85265822    587.247535    0.00000    0.00000    0.00088    7
    9      0.580D-05      0.341D-06      -231.85265822    587.247572    0.00000    0.00000    0.00088    6
   10      0.129D-05      0.703D-07      -231.85265822    587.247565    0.00000    0.00000    0.00088    6
   11      0.269D-06      0.103D-07      -231.85265822    587.247568    0.00000    0.00000    0.00088    6
   12      0.303D-07      0.257D-08      -231.85265822    587.247567    0.00000    0.00000    0.00088    6
   13      0.802D-08      0.881D-09      -231.85265822    587.247567    0.00000    0.00000    0.00088    6
   14      0.207D-08      0.246D-09      -231.85265822    587.247567    0.00000    0.00000    0.00088    6
   15      0.721D-09      0.532D-10      -231.85265822    587.247567    0.00000    0.00000    0.00088    6
   16      0.129D-09      0.213D-10      -231.85265822    587.247567    0.00000    0.00000    0.00088    7
   17      0.532D-10      0.639D-11      -231.85265822    587.247567    0.00000    0.00000    0.00088    7
   18      0.181D-10      0.149D-11      -231.85265822    587.247567    0.00000    0.00000    0.00088    0

 Final occupancy:   8   6   5   3

 !RHF STATE 1.1 Energy               -231.852658219908
 Nuclear energy                       217.70796739
 One-electron energy                 -743.18440920
 Two-electron energy                  293.62378360
 Virial quotient                       -1.00122329
 !RHF STATE 1.1 Dipole moment           0.00000000     0.00000000     0.00087815
 Dipole moment /Debye                   0.00000000     0.00000000     0.00223190

 Orbital energies:

         1.1          2.1          3.1          4.1          5.1          6.1          7.1          8.1          9.1         10.1
    -11.233890   -11.229577    -1.122173    -0.861887    -0.677858    -0.595339    -0.490773    -0.329838     0.180583     0.245342

         1.2          2.2          3.2          4.2          5.2          6.2          7.2          8.2
    -11.233890   -11.227976    -1.004924    -0.653916    -0.561795    -0.531671     0.193411     0.217530

         1.3          2.3          3.3          4.3          5.3          6.3          7.3
    -11.229640    -1.008182    -0.597410    -0.561249    -0.358858     0.223426     0.414217

         1.4          2.4          3.4          4.4          5.4
    -11.228012    -0.784069    -0.445492     0.174461     0.257829


 **********************************************************************************************************************************
 DATASETS  * FILE   NREC   LENGTH (MB)   RECORD NAMES
              1      19       64.64       500      610      700      900      950      970     1000      129      960     1100   
                                          VAR    BASINP    GEOM    SYMINP    ZMAT    AOBASIS   BASIS     P2S    ABASIS      S 
                                         1400     1410     1200     1210     1080     1600     1650     1300     1700   
                                           T        V       H0       H01     AOSYM     SMH    MOLCAS    ERIS     OPER   

              2       3        0.58       700     1000     2100   
                                         GEOM     BASIS     RHF  

 PROGRAMS   *        TOTAL       RHF       INT
 CPU TIMES  *         2.20      0.32      1.84
 REAL TIME  *         2.60 SEC
 DISK USED  *       240.15 MB      
 GA USED    *         0.00 MB       (max)       0.00 MB       (current)
 **********************************************************************************************************************************


1PROGRAM * CCSD (Closed-shell coupled cluster)     Authors: C. Hampel, H.-J. Werner, 1991, M. Deegan, P.J. Knowles, 1992


 Convergence thresholds:  THRVAR = 1.00D-08  THRDEN = 1.00D-12

 CCSD(T)     terms to be evaluated (factor= 1.000)


 Number of core orbitals:           6 (   2   2   1   1 )
 Number of closed-shell orbitals:  16 (   6   4   4   2 )
 Number of external orbitals:     102 (  29  31  20  22 )

 Molecular orbitals read from record     2100.2  Type=RHF/CANONICAL (state 1.1)

 Number of N-1 electron functions:              16
 Number of N-2 electron functions:             136
 Number of singly external CSFs:               422
 Number of doubly external CSFs:            334424
 Total number of CSFs:                      334847

 Length of J-op  integral file:               0.00 MB
 Length of K-op  integral file:               0.31 MB
 Length of 3-ext integral record:             0.00 MB

 Memory could be reduced to 6.15 Mwords without degradation in triples

 Integral transformation finished. Total CPU:   0.12 sec, npass=  1  Memory used:   1.74 MW

 Reference energy:                   -231.85265822

 MP2 singlet pair energy:              -0.50654449
 MP2 triplet pair energy:              -0.29381766
 MP2 correlation energy:               -0.80036215
 MP2 total energy:                   -232.65302037

 SCS-MP2 correlation energy:           -0.79067327   (PS=  1.200000  PT=  0.333333)
 SCS-MP2 total energy:               -232.64333149

 ITER.      SQ.NORM     CORR.ENERGY   TOTAL ENERGY   ENERGY CHANGE        DEN1      VAR(S)    VAR(P)  DIIS     TIME
   1      1.31843583    -0.85481999  -232.70747821    -0.05445783    -0.03134170  0.31D-02  0.54D-02  1  1     0.45
   2      1.34667987    -0.86065605  -232.71331427    -0.00583607    -0.02423417  0.69D-04  0.70D-03  2  2     0.78
   3      1.35508424    -0.86096959  -232.71362781    -0.00031353    -0.00387424  0.20D-04  0.69D-04  3  3     1.13
   4      1.35863319    -0.86109093  -232.71374915    -0.00012135    -0.00108010  0.10D-05  0.68D-05  4  4     1.46
   5      1.35946992    -0.86110287  -232.71376109    -0.00001194    -0.00017857  0.50D-07  0.66D-06  5  5     1.80
   6      1.35962802    -0.86109519  -232.71375341     0.00000767    -0.00002595  0.49D-08  0.36D-07  6  6     2.13
   7      1.35964350    -0.86109586  -232.71375408    -0.00000066     0.00000107  0.17D-08  0.32D-08  6  2     2.48
   8      1.35964817    -0.86109572  -232.71375394     0.00000014    -0.00000094  0.56D-10  0.35D-09  6  1     2.81
   9      1.35964822    -0.86109579  -232.71375401    -0.00000007     0.00000044  0.18D-10  0.52D-10  6  3     3.15
  10      1.35964814    -0.86109583  -232.71375405    -0.00000004     0.00000017  0.80D-12  0.83D-11  6  4     3.50
  11      1.35964758    -0.86109586  -232.71375408    -0.00000003     0.00000022  0.85D-13  0.11D-11  6  6     3.83
  12      1.35964747    -0.86109587  -232.71375409    -0.00000001     0.00000005  0.20D-13  0.98D-13  6  5     4.17
  13      1.35964747    -0.86109587  -232.71375409     0.00000000    -0.00000000  0.76D-14  0.15D-13  6  2     4.51
  14      1.35964749    -0.86109586  -232.71375408     0.00000000    -0.00000001  0.56D-15  0.13D-14  6  1     4.85
  15      1.35964750    -0.86109586  -232.71375408     0.00000000    -0.00000000  0.17D-15  0.15D-15  6  3     5.19
  16      1.35964750    -0.86109586  -232.71375408     0.00000000    -0.00000000  0.19D-16  0.24D-16  6  4     5.52
  17      1.35964750    -0.86109586  -232.71375408    -0.00000000     0.00000000  0.35D-17  0.38D-17  6  6     5.86
  18      1.35964750    -0.86109586  -232.71375408    -0.00000000     0.00000000  0.23D-18  0.65D-18  6  5     6.21
  19      1.35964750    -0.86109586  -232.71375408     0.00000000     0.00000000  0.29D-19  0.15D-18  6  2     6.55
  20      1.35964750    -0.86109586  -232.71375408     0.00000000    -0.00000000  0.71D-21  0.26D-19  6  1     6.89
  21      1.35964750    -0.86109586  -232.71375408     0.00000000    -0.00000000  0.15D-21  0.18D-20  6  4     7.23
  22      1.35964750    -0.86109586  -232.71375408     0.00000000    -0.00000000  0.18D-22  0.86D-22  6  3     7.56

 Norm of t1 vector:      0.07885892      S-energy:     0.00000000      T1 diagnostic:  0.00985736
                                                                       D1 diagnostic:  0.02884555

 Doubles amplitudes (print threshold =  0.500E-01):

         I         J         SYM. A    SYM. B    A         B      T(IJ, AB)

         6         6         2         2         1         1     -0.05813148
        14        14         4         4         1         1     -0.07472674
        14         6         4         2         1         1     -0.06107565


 Total CPU time for triples:      5.62 sec


 RESULTS
 =======

  Reference energy                   -231.852658219907
  CCSD singlet pair energy             -0.593783200625
  CCSD triplet pair energy             -0.267312663295
  CCSD correlation energy              -0.861095863919

  Triples (T) contribution             -0.032250580236
  Total correlation energy             -0.893346444156

  CCSD total energy                  -232.713754083826
  CCSD[T] energy                     -232.746739139970
  CCSD-T energy                      -232.745685272745
 !CCSD(T) total energy               -232.746004664063

 Timing summary (sec):

 STEP                 CPU(USER)    SYS     CPU(TOT)    WALL
 Transformation          0.13      0.04      0.17      0.17
 CCSD iterations         7.43      0.44      7.87      7.90
 Triples                 5.62      0.19      5.81      5.81

 Program statistics:

 Available memory in ccsd:               999998876
 Min. memory needed in ccsd:                897175
 Max. memory used in ccsd:                 1197405
 Max. memory used in cckext:               1174895 (22 integral passes)



 **********************************************************************************************************************************
 DATASETS  * FILE   NREC   LENGTH (MB)   RECORD NAMES
              1      20       88.65       500      610      700      900      950      970     1000      129      960     1100   
                                          VAR    BASINP    GEOM    SYMINP    ZMAT    AOBASIS   BASIS     P2S    ABASIS      S 
                                         1400     1410     1200     1210     1080     1600     1650     1300     1700     1380   
                                           T        V       H0       H01     AOSYM     SMH    MOLCAS    ERIS     OPER     JKOP   

              2       3        0.58       700     1000     2100   
                                         GEOM     BASIS     RHF  

 PROGRAMS   *        TOTAL   CCSD(T)       RHF       INT
 CPU TIMES  *        15.39     13.18      0.32      1.84
 REAL TIME  *        16.51 SEC
 DISK USED  *       240.15 MB      
 GA USED    *         0.00 MB       (max)       0.00 MB       (current)
 **********************************************************************************************************************************

        CCSD(T)         RHF-SCF 
   -232.74600466   -231.85265822
 **********************************************************************************************************************************
 Variable memory released
