
 Primary working directories    : /tmp/1049102.1386.gen4.q
 Secondary working directories  : /tmp/1049102.1386.gen4.q
 Wavefunction directory         : /home/vulcan/mel64643/wfu/
 Main file repository           : /tmp/1049102.1386.gen4.q/

 ARCHNAME  : Linux/x86_64
 FC        : /opt/intel/compilers_and_libraries_2016.1.150/linux/bin/intel64/ifort
 FCVERSION : 16.0.1
 BLASLIB   : -mkl
 id        : ccgc

 Nodes     nprocs
 n067         1
 ga_uses_ma=false, calling ma_init with nominal heap.
 GA-space will be limited to   8.0 MW (determined by -G option)

 Using customized tuning parameters: mindgm=10; mindgv=16; mindgc=4; mindgr=1; noblas=0; mincuda=1000; minvec=7
 default implementation of scratch files=df  

 ***,Optimization of h2o_3
 memory,1000,m
 gthresh,energy=1.0d-12,orbital=1.0d-10,oneint=1.0d-16,twoint=1.0d-16,optgrad=1.0d-6,compress=1.0d-13
 geomtyp=xyz
 
 
 
 bohr
 geometry = {
  C    0.9156238369    1.4073290858   -2.2719307179
  C    0.7393537006    2.7110161669    0.0195826562
  C    0.9979860061    1.4076058228    2.3035864924
  C    1.4312902818   -1.1995441001    2.2960780155
  C    1.6082876301   -2.5027395915    0.0046069120
  C    1.3497137355   -1.1991055970   -2.2791927847
  H    0.7071831376    2.4094146434   -4.0459090856
  H    0.3879531787    4.7284885727    0.0212646625
  H    0.8567561128    2.4139598578    4.0819968009
  H    1.6302286372   -2.2169788834    4.0628101283
  H    1.9420326999   -4.5236628244   -0.0054291620
  H    1.4851165206   -2.2132187797   -4.0539307463
  N   -5.4421294417   -0.3596976332   -0.0697962335
  H   -5.5939304526   -1.5677203145   -1.5526757364
  H   -6.0725867868   -1.3143683515    1.4704205953
  H   -3.5619469295   -0.0725676721    0.1985958803
 }
 
 basis=aug-cc-pvdz, H=cc-pvdz
 {rhf;maxit,200}
 {ccsd(t)}

 Variables initialized (661), CPU time= 0.00 sec
 Commands  initialized (458), CPU time= 0.00 sec, 486 directives.
 Default parameters read. Elapsed time= 0.04 sec

 Checking input...
 Passed
1


                                         ***  PROGRAM SYSTEM MOLPRO  ***
                         Copyright, University College Cardiff Consultants Limited, 2008

                                    Version 2010.1 linked May 16 2016 07:17:05


 **********************************************************************************************************************************
 LABEL *   Optimization of h2o_3                                                         
 Linux-4.4.3/n067(x86_64) 64 bit mpp version                                             DATE: 21-Mar-24          TIME: 01:10:36  
 **********************************************************************************************************************************

 SHA1:             9e8077add272b0f3cad6f7df79ec5211205f459d
 **********************************************************************************************************************************

 THRESHOLDS:

 ZERO    =  1.00D-12  ONEINT  =  1.00D-16  TWOINT  =  1.00D-16  PREFAC  =  1.00D-14  LOCALI  =  1.00D-09  EORDER  =  1.00D-04
 ENERGY  =  1.00D-12  ETEST   =  0.00D+00  EDENS   =  0.00D+00  THRDEDEF=  1.00D-06  GRADIENT=  1.00D-02  STEP    =  1.00D-03
 ORBITAL =  1.00D-10  CIVEC   =  1.00D-05  COEFF   =  1.00D-04  PRINTCI =  5.00D-02  PUNCHCI =  9.90D+01  OPTGRAD =  1.00D-06
 OPTENERG=  1.00D-06  OPTSTEP =  3.00D-04  THRGRAD =  1.00D-10  COMPRESS=  1.00D-13  VARMIN  =  1.00D-07  VARMAX  =  1.00D-03
 THRDOUB =  0.00D+00  THRDIV  =  1.00D-05  THRRED  =  1.00D-07  THRPSP  =  1.00D+00  THRDC   =  1.00D-10  THRCS   =  1.00D-10
 THRNRM  =  1.00D-08  THREQ   =  0.00D+00  THRDE   =  1.00D+00  THRREF  =  1.00D-05  SPARFAC =  1.00D+00  THRDLP  =  1.00D-07
 THRDIA  =  1.00D-10  THRDLS  =  1.00D-07  THRGPS  =  0.00D+00  THRKEX  =  0.00D+00  THRDIS  =  2.00D-01  THRVAR  =  1.00D-10
 THRLOC  =  1.00D-06  THRGAP  =  1.00D-06  THRLOCT = -1.00D+00  THRGAPT = -1.00D+00  THRORB  =  1.00D-06  THRMLTP =  0.00D+00
 THRCPQCI=  1.00D-10  KEXTA   =  0.00D+00  THRCOARS=  0.00D+00  SYMTOL  =  1.00D-06  GRADTOL =  1.00D-06  THROVL  =  1.00D-08
 THRORTH =  1.00D-08  GRID    =  1.00D-06  GRIDMAX =  1.00D-03  DTMAX   =  0.00D+00

 SETTING GEOMTYP        =    XYZ
 ZUNIT=BOHR
 

 Variable memory set to 1000000000 words,  buffer space   230000 words

 SETTING BASIS          =    AUG-CC-PVDZ,H=CC-PVDZ


 Recomputing integrals since basis changed


 Using spherical harmonics

 Library entry C      S aug-cc-pVDZ          selected for orbital group  1
 Library entry C      P aug-cc-pVDZ          selected for orbital group  1
 Library entry C      D aug-cc-pVDZ          selected for orbital group  1
 Library entry H      S cc-pVDZ              selected for orbital group  2
 Library entry H      P cc-pVDZ              selected for orbital group  2
 Library entry N      S aug-cc-pVDZ          selected for orbital group  3
 Library entry N      P aug-cc-pVDZ          selected for orbital group  3
 Library entry N      D aug-cc-pVDZ          selected for orbital group  3

1PROGRAM * SEWARD (Integral evaluation for generally contracted gaussian basis sets)     Author: Roland Lindh, 1990

 Geometry written to block  1 of record 700


 Point group  C1  



 ATOMIC COORDINATES

 NR  ATOM    CHARGE       X              Y              Z

   1  C       6.00    0.915623837    1.407329086   -2.271930718
   2  C       6.00    0.739353701    2.711016167    0.019582656
   3  C       6.00    0.997986006    1.407605823    2.303586492
   4  C       6.00    1.431290282   -1.199544100    2.296078016
   5  C       6.00    1.608287630   -2.502739592    0.004606912
   6  C       6.00    1.349713735   -1.199105597   -2.279192785
   7  H       1.00    0.707183138    2.409414643   -4.045909086
   8  H       1.00    0.387953179    4.728488573    0.021264662
   9  H       1.00    0.856756113    2.413959858    4.081996801
  10  H       1.00    1.630228637   -2.216978883    4.062810128
  11  H       1.00    1.942032700   -4.523662824   -0.005429162
  12  H       1.00    1.485116521   -2.213218780   -4.053930746
  13  N       7.00   -5.442129442   -0.359697633   -0.069796233
  14  H       1.00   -5.593930453   -1.567720315   -1.552675736
  15  H       1.00   -6.072586787   -1.314368351    1.470420595
  16  H       1.00   -3.561946929   -0.072567672    0.198595880

 Bond lengths in Bohr (Angstrom)

 1-2  2.642291564  1-6  2.642345271  1-7  2.048077694  2-3  2.642431214  2-8  2.047847666
     ( 1.398240475)     ( 1.398268896)     ( 1.083796038)     ( 1.398314375)     ( 1.083674312)

  3- 4  2.642922567   3- 9  2.048276727   4- 5  2.642061008   4-10  2.048436566   5- 6  2.642359382
       ( 1.398574387)       ( 1.083901362)       ( 1.398118470)       ( 1.083985945)       ( 1.398276363)

  5-11  2.048320582   6-12  2.048524907  13-14  1.918669843  13-15  1.918629856  13-16  1.920823839
       ( 1.083924569)       ( 1.084032693)       ( 1.015316352)       ( 1.015295192)       ( 1.016456198)

 Bond angles

  1- 2- 3  119.98067263   1- 2- 8  119.88321888   1- 6- 5  120.02353240   1- 6-12  120.10308916

  2-1-6  120.00199112   2-1-7  120.19749222   2-3-4  120.01167877   2-3-9  120.09125358

  3- 2- 8  120.13443147   3- 4- 5  120.00136305   3- 4-10  120.22769273   4- 3- 9  119.89673592

  4- 5- 6  119.98073410   4- 5-11  120.12028745   5- 4-10  119.77093951   5- 6-12  119.87336390

  6- 1- 7  119.79977675   6- 5-11  119.89886445  14-13-15  106.32907601  14-13-16  106.23343369

 15-13-16  106.49045712

 NUCLEAR CHARGE:                   52
 NUMBER OF PRIMITIVE AOS:         322
 NUMBER OF SYMMETRY AOS:          308
 NUMBER OF CONTRACTIONS:          206   ( 206A   )
 NUMBER OF CORE ORBITALS:           7   (   7A   )
 NUMBER OF VALENCE ORBITALS:       37   (  37A   )


 NUCLEAR REPULSION ENERGY  273.70583628


 Eigenvalues of metric

         1 0.861E-05 0.184E-04 0.228E-04 0.532E-04 0.643E-04 0.644E-04 0.107E-03 0.107E-03


 Contracted 2-electron integrals neglected if value below      1.0D-16
 AO integral compression algorithm  1   Integral accuracy      1.0D-16

     1892.155 MB (compressed) written to integral file ( 94.5%)

     Node minimum: 1892.155 MB, node maximum: 1892.155 MB


 NUMBER OF SORTED TWO-ELECTRON INTEGRALS:  227303181.     BUFFER LENGTH:  32768
 NUMBER OF SEGMENTS:  15  SEGMENT LENGTH:   15999503      RECORD LENGTH: 524288

 Memory used in sort:      16.56 MW

 SORT1 READ   250230130. AND WROTE   226405697. INTEGRALS IN    654 RECORDS. CPU TIME:     2.46 SEC, REAL TIME:     3.70 SEC
 SORT2 READ   226405697. AND WROTE   227303181. INTEGRALS IN   7218 RECORDS. CPU TIME:     1.47 SEC, REAL TIME:     2.34 SEC

 FILE SIZES:   FILE 1:  1743.0 MBYTE,  FILE 4:  2743.1 MBYTE,   TOTAL:   4486.1 MBYTE

 OPERATOR DM      FOR CENTER  0  COORDINATES:    0.000000    0.000000    0.000000


 **********************************************************************************************************************************
 DATASETS  * FILE   NREC   LENGTH (MB)   RECORD NAMES
              1      19     1743.51       500      610      700      900      950      970     1000      129      960     1100   
                                          VAR    BASINP    GEOM    SYMINP    ZMAT    AOBASIS   BASIS     P2S    ABASIS      S 
                                         1400     1410     1200     1210     1080     1600     1650     1300     1700   
                                           T        V       H0       H01     AOSYM     SMH    MOLCAS    ERIS     OPER   

 PROGRAMS   *        TOTAL       INT
 CPU TIMES  *        14.76     14.73
 REAL TIME  *        17.96 SEC
 DISK USED  *         6.38 GB      
 GA USED    *         0.01 MB       (max)       0.00 MB       (current)
 **********************************************************************************************************************************

1PROGRAM * RHF-SCF (CLOSED SHELL)       Authors: W. Meyer, H.-J. Werner


 NUMBER OF ELECTRONS:      26+   26-    SPACE SYMMETRY=1    SPIN SYMMETRY: Singlet 
 CONVERGENCE THRESHOLDS:    1.00E-10 (Density)    1.00E-13 (Energy)
 MAX. NUMBER OF ITERATIONS:      200
 INTERPOLATION TYPE:            DIIS
 INTERPOLATION STEPS:              2 (START)      1 (STEP)
 LEVEL SHIFTS:                  0.00 (CLOSED)  0.00 (OPEN) 



 Orbital guess generated from atomic densities. Full valence occupancy:   44

 Molecular orbital dump at record        2100.2

 ITERATION    DDIFF          GRAD             ENERGY        2-EL.EN.            DIPOLE MOMENTS         DIIS
    1      0.000D+00      0.000D+00      -286.85328012    740.879285    0.51702   -0.76539    0.13496    0
    2      0.000D+00      0.322D-02      -286.92081281    735.085588    0.43373   -0.38538    0.06074    1
    3      0.827D-02      0.133D-02      -286.93013803    737.718646    0.44992   -0.52185    0.09131    2
    4      0.218D-02      0.381D-03      -286.93135574    737.198434    0.44864   -0.49590    0.08326    3
    5      0.783D-03      0.524D-04      -286.93137941    737.187289    0.45441   -0.50565    0.08739    4
    6      0.135D-03      0.175D-04      -286.93138180    737.202169    0.45328   -0.50031    0.08520    5
    7      0.509D-04      0.550D-05      -286.93138207    737.199045    0.45394   -0.50250    0.08599    6
    8      0.148D-04      0.129D-05      -286.93138209    737.198061    0.45409   -0.50214    0.08584    7
    9      0.415D-05      0.537D-06      -286.93138210    737.198515    0.45412   -0.50223    0.08587    7
   10      0.147D-05      0.142D-06      -286.93138210    737.198465    0.45412   -0.50224    0.08587    7
   11      0.513D-06      0.408D-07      -286.93138210    737.198450    0.45413   -0.50224    0.08587    7
   12      0.141D-06      0.174D-07      -286.93138210    737.198464    0.45413   -0.50224    0.08587    8
   13      0.614D-07      0.763D-08      -286.93138210    737.198459    0.45413   -0.50224    0.08587    8
   14      0.340D-07      0.362D-08      -286.93138210    737.198461    0.45413   -0.50224    0.08587    8
   15      0.201D-07      0.137D-08      -286.93138210    737.198460    0.45413   -0.50224    0.08587    8
   16      0.710D-08      0.453D-09      -286.93138210    737.198460    0.45413   -0.50224    0.08587    9
   17      0.210D-08      0.123D-09      -286.93138210    737.198460    0.45413   -0.50224    0.08587    9
   18      0.398D-09      0.386D-10      -286.93138210    737.198460    0.45413   -0.50224    0.08587    9
   19      0.311D-09      0.167D-10      -286.93138210    737.198460    0.45413   -0.50224    0.08587    9
   20      0.216D-09      0.874D-11      -286.93138210    737.198460    0.45413   -0.50224    0.08587    9
   21      0.122D-09      0.414D-11      -286.93138210    737.198460    0.45413   -0.50224    0.08587    9
   22      0.242D-09      0.128D-11      -286.93138210    737.198460    0.45413   -0.50224    0.08587    9
   23      0.153D-09      0.730D-12      -286.93138210    737.198460    0.45413   -0.50224    0.08587    9
   24      0.831D-10      0.699D-12      -286.93138210    737.198460    0.45413   -0.50224    0.08587    0

 Final occupancy:  26

 !RHF STATE 1.1 Energy               -286.931382096456
 Nuclear energy                       273.70583628
 One-electron energy                 -929.23644859
 Two-electron energy                  368.59923022
 Virial quotient                       -1.00146804
 !RHF STATE 1.1 Dipole moment           0.45413028    -0.50223909     0.08587138
 Dipole moment /Debye                   1.15420844    -1.27648082     0.21824898

 Orbital energies:

         1.1          2.1          3.1          4.1          5.1          6.1          7.1          8.1          9.1         10.1
    -15.534903   -11.250567   -11.249967   -11.249699   -11.248762   -11.248640   -11.247885    -1.157483    -1.125302    -1.022038

        11.1         12.1         13.1         14.1         15.1         16.1         17.1         18.1         19.1         20.1
     -1.021933    -0.830621    -0.830521    -0.714485    -0.650439    -0.623903    -0.611906    -0.610059    -0.593560    -0.593437

        21.1         22.1         23.1         24.1         25.1         26.1         27.1         28.1
     -0.504887    -0.500085    -0.500005    -0.412983    -0.342957    -0.341967     0.063901     0.066428


 **********************************************************************************************************************************
 DATASETS  * FILE   NREC   LENGTH (MB)   RECORD NAMES
              1      19     1743.51       500      610      700      900      950      970     1000      129      960     1100   
                                          VAR    BASINP    GEOM    SYMINP    ZMAT    AOBASIS   BASIS     P2S    ABASIS      S 
                                         1400     1410     1200     1210     1080     1600     1650     1300     1700   
                                           T        V       H0       H01     AOSYM     SMH    MOLCAS    ERIS     OPER   

              2       3        1.40       700     1000     2100   
                                         GEOM     BASIS     RHF  

 PROGRAMS   *        TOTAL       RHF       INT
 CPU TIMES  *        57.11     42.35     14.73
 REAL TIME  *        64.90 SEC
 DISK USED  *         6.38 GB      
 GA USED    *         0.01 MB       (max)       0.00 MB       (current)
 **********************************************************************************************************************************


1PROGRAM * CCSD (Closed-shell coupled cluster)     Authors: C. Hampel, H.-J. Werner, 1991, M. Deegan, P.J. Knowles, 1992


 Convergence thresholds:  THRVAR = 1.00D-08  THRDEN = 1.00D-12

 CCSD(T)     terms to be evaluated (factor= 1.000)


 Number of core orbitals:           7 (   7 )
 Number of closed-shell orbitals:  19 (  19 )
 Number of external orbitals:     180 ( 180 )

 Molecular orbitals read from record     2100.2  Type=RHF/CANONICAL (state 1.1)

 Number of N-1 electron functions:              19
 Number of N-2 electron functions:             190
 Number of singly external CSFs:              3420
 Number of doubly external CSFs:           5849910
 Total number of CSFs:                     5853331

 Length of J-op  integral file:               0.00 MB
 Length of K-op  integral file:               2.96 MB
 Length of 3-ext integral record:             0.00 MB

 Memory could be reduced to 140.12 Mwords without degradation in triples

 Integral transformation finished. Total CPU:  14.03 sec, npass=  1  Memory used: 101.90 MW

 Reference energy:                   -286.93138210

 MP2 singlet pair energy:              -0.62062513
 MP2 triplet pair energy:              -0.38983189
 MP2 correlation energy:               -1.01045702
 MP2 total energy:                   -287.94183912

 SCS-MP2 correlation energy:           -0.98731222   (PS=  1.200000  PT=  0.333333)
 SCS-MP2 total energy:               -287.91869431

 ITER.      SQ.NORM     CORR.ENERGY   TOTAL ENERGY   ENERGY CHANGE        DEN1      VAR(S)    VAR(P)  DIIS     TIME
   1      1.38487684    -1.05474887  -287.98613097    -0.04429185    -0.01721441  0.36D-02  0.80D-02  1  1    51.05
   2      1.41438889    -1.06061137  -287.99199347    -0.00586251    -0.02705193  0.63D-04  0.10D-02  2  2    88.51
   3      1.42351960    -1.06070708  -287.99208918    -0.00009571    -0.00464311  0.27D-04  0.84D-04  3  3   126.00
   4      1.42745711    -1.06087581  -287.99225790    -0.00016872    -0.00121410  0.22D-05  0.11D-04  4  4   163.48
   5      1.42867093    -1.06090675  -287.99228884    -0.00003094    -0.00027323  0.27D-06  0.13D-05  5  5   200.93
   6      1.42897353    -1.06089651  -287.99227860     0.00001024    -0.00004348  0.23D-07  0.79D-07  6  6   238.40
   7      1.42901427    -1.06089813  -287.99228023    -0.00000163    -0.00000103  0.34D-08  0.82D-08  6  2   275.87
   8      1.42902346    -1.06089799  -287.99228009     0.00000014    -0.00000117  0.75D-09  0.76D-09  6  1   313.33
   9      1.42902329    -1.06089813  -287.99228022    -0.00000013     0.00000123  0.21D-09  0.92D-10  6  4   350.80
  10      1.42902448    -1.06089814  -287.99228023    -0.00000001    -0.00000018  0.57D-10  0.14D-10  6  3   388.27
  11      1.42902442    -1.06089815  -287.99228025    -0.00000002     0.00000013  0.14D-10  0.36D-11  6  5   425.73
  12      1.42902438    -1.06089816  -287.99228025    -0.00000000     0.00000003  0.15D-11  0.10D-11  6  6   463.17
  13      1.42902421    -1.06089816  -287.99228026    -0.00000000     0.00000006  0.70D-13  0.20D-12  6  2   500.65
  14      1.42902411    -1.06089816  -287.99228026    -0.00000000     0.00000002  0.81D-14  0.40D-13  6  1   538.11
  15      1.42902405    -1.06089816  -287.99228026    -0.00000000     0.00000001  0.89D-15  0.53D-14  6  3   575.58
  16      1.42902403    -1.06089816  -287.99228026    -0.00000000     0.00000000  0.12D-15  0.37D-15  6  4   613.03
  17      1.42902402    -1.06089816  -287.99228026    -0.00000000     0.00000000  0.31D-16  0.44D-16  6  5   650.48
  18      1.42902402    -1.06089816  -287.99228026    -0.00000000     0.00000000  0.81D-17  0.71D-17  6  6   687.92
  19      1.42902402    -1.06089816  -287.99228026    -0.00000000     0.00000000  0.24D-17  0.77D-18  6  2   725.36
  20      1.42902402    -1.06089816  -287.99228026    -0.00000000     0.00000000  0.77D-18  0.18D-18  6  1   762.82
  21      1.42902402    -1.06089816  -287.99228026    -0.00000000     0.00000000  0.29D-18  0.76D-19  6  3   800.28
  22      1.42902402    -1.06089816  -287.99228026    -0.00000000     0.00000000  0.11D-18  0.35D-19  6  4   837.74
  23      1.42902402    -1.06089816  -287.99228026    -0.00000000     0.00000000  0.52D-19  0.20D-19  6  6   875.21

 Norm of t1 vector:      0.08386473      S-energy:    -0.00000000      T1 diagnostic:  0.00961994
                                                                       D1 diagnostic:  0.02620733

 Doubles amplitudes (print threshold =  0.500E-01):

         I         J         SYM. A    SYM. B    A         B      T(IJ, AB)

        18        18         1         1         6         6     -0.05107707
        19        19         1         1         7         7     -0.05450092


 Total CPU time for triples:    733.53 sec


 RESULTS
 =======

  Reference energy                   -286.931382096456
  CCSD singlet pair energy             -0.711147670155
  CCSD triplet pair energy             -0.349750492313
  CCSD correlation energy              -1.060898162469

  Triples (T) contribution             -0.045600650118
  Total correlation energy             -1.106498812586

  CCSD total energy                  -287.992280258924
  CCSD[T] energy                     -288.038751235397
  CCSD-T energy                      -288.037492370199
 !CCSD(T) total energy               -288.037880909042

 Timing summary (sec):

 STEP                 CPU(USER)    SYS     CPU(TOT)    WALL
 Transformation         14.45      0.83     15.28     15.28
 CCSD iterations       860.78     12.34    873.12    873.42
 Triples               733.53     11.03    744.56    744.55

 Program statistics:

 Available memory in ccsd:               999998456
 Min. memory needed in ccsd:              14392275
 Max. memory used in ccsd:                19775697
 Max. memory used in cckext:              16737545 (23 integral passes)



 **********************************************************************************************************************************
 DATASETS  * FILE   NREC   LENGTH (MB)   RECORD NAMES
              1      20     2287.12       500      610      700      900      950      970     1000      129      960     1100   
                                          VAR    BASINP    GEOM    SYMINP    ZMAT    AOBASIS   BASIS     P2S    ABASIS      S 
                                         1400     1410     1200     1210     1080     1600     1650     1300     1700     1380   
                                           T        V       H0       H01     AOSYM     SMH    MOLCAS    ERIS     OPER     JKOP   

              2       3        1.40       700     1000     2100   
                                         GEOM     BASIS     RHF  

 PROGRAMS   *        TOTAL   CCSD(T)       RHF       INT
 CPU TIMES  *      1665.88   1608.77     42.35     14.73
 REAL TIME  *      1698.26 SEC
 DISK USED  *         6.38 GB      
 GA USED    *         0.01 MB       (max)       0.00 MB       (current)
 **********************************************************************************************************************************

        CCSD(T)         RHF-SCF 
   -288.03788091   -286.93138210
 **********************************************************************************************************************************
 Variable memory released
