
 Primary working directories    : /tmp/985636.996.gen6.q
 Secondary working directories  : /tmp/985636.996.gen6.q
 Wavefunction directory         : /home/vulcan/jj04645/wfu/
 Main file repository           : /tmp/985636.996.gen6.q/

 ARCHNAME  : Linux/x86_64
 FC        : /opt/intel/compilers_and_libraries_2016.1.150/linux/bin/intel64/ifort
 FCVERSION : 16.0.1
 BLASLIB   : -mkl
 id        : ccgc

 Nodes     nprocs
 n083         1
 ga_uses_ma=false, calling ma_init with nominal heap.
 GA-space will be limited to   8.0 MW (determined by -G option)

 Using customized tuning parameters: mindgm=10; mindgv=16; mindgc=4; mindgr=1; noblas=0; mincuda=1000; minvec=7
 default implementation of scratch files=df  

 ***,Optimization of tetrahydrothiopyran
 memory,1000,m
 gthresh,energy=1.0d-12,orbital=1.0d-10,oneint=1.0d-16,twoint=1.0d-16,optgrad=1.0d-6,compress=1.0d-13
 geomtyp=xyz
 
 bohr
 geometry = {
  S    0.3527741416    2.6998917878   -0.0000000000
  C   -0.3296713179   -3.3652181401   -0.0000000000
  C   -0.6625002615    0.6691283202   -2.5812259528
  C   -0.6625002615    0.6691283202    2.5812259528
  C    0.4722666642   -1.9814797466   -2.4139026872
  C    0.4722666642   -1.9814797466    2.4139026872
  H   -2.7287466225    0.5709267014   -2.5850519542
  H   -2.7287466225    0.5709267014    2.5850519542
  H   -0.0733423661    1.6242824383   -4.3116043712
  H   -0.0733423661    1.6242824383    4.3116043712
  H    2.5343018509   -1.8362928081   -2.4808009287
  H    2.5343018509   -1.8362928081    2.4808009287
  H   -0.1276206355   -3.0743991817   -4.0655826162
  H   -0.1276206355   -3.0743991817    4.0655826162
  H    0.4686001765   -5.2784803350   -0.0000000000
  H   -2.3991552758   -3.5803461764   -0.0000000000
 }
 
 basis=VDZ
 {rhf;maxit,200}
 {ccsd(t);maxit,200}

 Variables initialized (661), CPU time= 0.00 sec
 Commands  initialized (458), CPU time= 0.00 sec, 486 directives.
 Default parameters read. Elapsed time= 0.05 sec

 Checking input...
 Passed
1


                                         ***  PROGRAM SYSTEM MOLPRO  ***
                         Copyright, University College Cardiff Consultants Limited, 2008

                                    Version 2010.1 linked May 16 2016 07:17:05


 **********************************************************************************************************************************
 LABEL *   Optimization of tetrahydrothiopyran                                           
 Linux-4.4.3/n083(x86_64) 64 bit mpp version                                             DATE: 26-Jan-24          TIME: 15:51:30  
 **********************************************************************************************************************************

 SHA1:             9e8077add272b0f3cad6f7df79ec5211205f459d
 **********************************************************************************************************************************

 THRESHOLDS:

 ZERO    =  1.00D-12  ONEINT  =  1.00D-16  TWOINT  =  1.00D-16  PREFAC  =  1.00D-14  LOCALI  =  1.00D-09  EORDER  =  1.00D-04
 ENERGY  =  1.00D-12  ETEST   =  0.00D+00  EDENS   =  0.00D+00  THRDEDEF=  1.00D-06  GRADIENT=  1.00D-02  STEP    =  1.00D-03
 ORBITAL =  1.00D-10  CIVEC   =  1.00D-05  COEFF   =  1.00D-04  PRINTCI =  5.00D-02  PUNCHCI =  9.90D+01  OPTGRAD =  1.00D-06
 OPTENERG=  1.00D-06  OPTSTEP =  3.00D-04  THRGRAD =  1.00D-10  COMPRESS=  1.00D-13  VARMIN  =  1.00D-07  VARMAX  =  1.00D-03
 THRDOUB =  0.00D+00  THRDIV  =  1.00D-05  THRRED  =  1.00D-07  THRPSP  =  1.00D+00  THRDC   =  1.00D-10  THRCS   =  1.00D-10
 THRNRM  =  1.00D-08  THREQ   =  0.00D+00  THRDE   =  1.00D+00  THRREF  =  1.00D-05  SPARFAC =  1.00D+00  THRDLP  =  1.00D-07
 THRDIA  =  1.00D-10  THRDLS  =  1.00D-07  THRGPS  =  0.00D+00  THRKEX  =  0.00D+00  THRDIS  =  2.00D-01  THRVAR  =  1.00D-10
 THRLOC  =  1.00D-06  THRGAP  =  1.00D-06  THRLOCT = -1.00D+00  THRGAPT = -1.00D+00  THRORB  =  1.00D-06  THRMLTP =  0.00D+00
 THRCPQCI=  1.00D-10  KEXTA   =  0.00D+00  THRCOARS=  0.00D+00  SYMTOL  =  1.00D-06  GRADTOL =  1.00D-06  THROVL  =  1.00D-08
 THRORTH =  1.00D-08  GRID    =  1.00D-06  GRIDMAX =  1.00D-03  DTMAX   =  0.00D+00

 SETTING GEOMTYP        =    XYZ
 ZUNIT=BOHR
 

 Variable memory set to 1000000000 words,  buffer space   230000 words

 SETTING BASIS          =    VDZ


 Recomputing integrals since basis changed


 Using spherical harmonics

 Library entry S      S cc-pVDZ              selected for orbital group  1
 Library entry S      P cc-pVDZ              selected for orbital group  1
 Library entry S      D cc-pVDZ              selected for orbital group  1
 Library entry C      S cc-pVDZ              selected for orbital group  2
 Library entry C      P cc-pVDZ              selected for orbital group  2
 Library entry C      D cc-pVDZ              selected for orbital group  2
 Library entry H      S cc-pVDZ              selected for orbital group  3
 Library entry H      P cc-pVDZ              selected for orbital group  3

1PROGRAM * SEWARD (Integral evaluation for generally contracted gaussian basis sets)     Author: Roland Lindh, 1990

 Geometry written to block  1 of record 700


 Point group  Cs  



 ATOMIC COORDINATES

 NR  ATOM    CHARGE       X              Y              Z

   1  S      16.00    0.352774142    2.699891788    0.000000000
   2  C       6.00   -0.329671318   -3.365218140    0.000000000
   3  C       6.00   -0.662500261    0.669128320   -2.581225953
   4  C       6.00   -0.662500261    0.669128320    2.581225953
   5  C       6.00    0.472266664   -1.981479747   -2.413902687
   6  C       6.00    0.472266664   -1.981479747    2.413902687
   7  H       1.00   -2.728746623    0.570926701   -2.585051954
   8  H       1.00   -2.728746623    0.570926701    2.585051954
   9  H       1.00   -0.073342366    1.624282438   -4.311604371
  10  H       1.00   -0.073342366    1.624282438    4.311604371
  11  H       1.00    2.534301851   -1.836292808   -2.480800929
  12  H       1.00    2.534301851   -1.836292808    2.480800929
  13  H       1.00   -0.127620635   -3.074399182   -4.065582616
  14  H       1.00   -0.127620635   -3.074399182    4.065582616
  15  H       1.00    0.468600177   -5.278480335    0.000000000
  16  H       1.00   -2.399155276   -3.580346176    0.000000000

 Bond lengths in Bohr (Angstrom)

  1- 3  3.437660512   1- 4  3.437660512   2- 5  2.895645464   2- 6  2.895645464   2-15  2.073115917
       ( 1.819131595)       ( 1.819131595)       ( 1.532309585)       ( 1.532309585)       ( 1.097045695)

  2-16  2.080635462   3- 5  2.888150996   3- 7  2.068582176   3- 9  2.062434456   4- 6  2.888150996
       ( 1.101024867)       ( 1.528343683)       ( 1.094646543)       ( 1.091393309)       ( 1.528343683)

  4- 8  2.068582176   4-10  2.062434456   5-11  2.068222361   5-13  2.069392242   6-12  2.068222361
       ( 1.094646543)       ( 1.091393309)       ( 1.094456136)       ( 1.095075211)       ( 1.094456136)

  6-14  2.069392242
       ( 1.095075211)

 Bond angles

  1-3-5  112.49558548   1-3-7  108.93154217   1-3-9  105.78484502   1-4-6  112.49558548

  1- 4- 8  108.93154217   1- 4-10  105.78484502   2- 5- 3  112.21281560   2- 5-11  109.67156755

  2- 5-13  109.43267532   2- 6- 4  112.21281560   2- 6-12  109.67156755   2- 6-14  109.43267532

  3- 1- 4   97.33107795   3- 5-11  108.99161310   3- 5-13  108.93892968   4- 6-12  108.99161310

  4- 6-14  108.93892968   5- 2- 6  112.94731819   5- 2-15  109.53488175   5- 2-16  108.95777536

  5- 3- 7  110.42612600   5- 3- 9  111.18611357   6- 2-15  109.53488175   6- 2-16  108.95777536

  6- 4- 8  110.42612600   6- 4-10  111.18611357   7- 3- 9  107.80465606   8- 4-10  107.80465606

 11- 5-13  107.47420355  12- 6-14  107.47420355  15- 2-16  106.71266590

 NUCLEAR CHARGE:                   56
 NUMBER OF PRIMITIVE AOS:         247
 NUMBER OF SYMMETRY AOS:          241
 NUMBER OF CONTRACTIONS:          138   (  79A'  +  59A"  )
 NUMBER OF CORE ORBITALS:          10   (   7A'  +   3A"  )
 NUMBER OF VALENCE ORBITALS:       34   (  20A'  +  14A"  )


 NUCLEAR REPULSION ENERGY  312.09065210


 Eigenvalues of metric

         1 0.305E-02 0.426E-02 0.634E-02 0.157E-01 0.198E-01 0.238E-01 0.285E-01 0.343E-01
         2 0.286E-02 0.704E-02 0.151E-01 0.196E-01 0.220E-01 0.343E-01 0.351E-01 0.358E-01


 Contracted 2-electron integrals neglected if value below      1.0D-16
 AO integral compression algorithm  1   Integral accuracy      1.0D-16

     207.094 MB (compressed) written to integral file ( 97.6%)

     Node minimum: 207.094 MB, node maximum: 207.094 MB


 NUMBER OF SORTED TWO-ELECTRON INTEGRALS:   23341315.     BUFFER LENGTH:  32768
 NUMBER OF SEGMENTS:   2  SEGMENT LENGTH:   15994315      RECORD LENGTH: 524288

 Memory used in sort:      16.55 MW

 SORT1 READ    26508670. AND WROTE    23261988. INTEGRALS IN     68 RECORDS. CPU TIME:     0.29 SEC, REAL TIME:     0.75 SEC
 SORT2 READ    23261988. AND WROTE    23341315. INTEGRALS IN    790 RECORDS. CPU TIME:     0.20 SEC, REAL TIME:     0.31 SEC

 FILE SIZES:   FILE 1:   187.9 MBYTE,  FILE 4:   285.2 MBYTE,   TOTAL:    473.2 MBYTE

 OPERATOR DM      FOR CENTER  0  COORDINATES:    0.000000    0.000000    0.000000


 **********************************************************************************************************************************
 DATASETS  * FILE   NREC   LENGTH (MB)   RECORD NAMES
              1      19      188.02       500      610      700      900      950      970     1000      129      960     1100   
                                          VAR    BASINP    GEOM    SYMINP    ZMAT    AOBASIS   BASIS     P2S    ABASIS      S 
                                         1400     1410     1200     1210     1080     1600     1650     1300     1700   
                                           T        V       H0       H01     AOSYM     SMH    MOLCAS    ERIS     OPER   

 PROGRAMS   *        TOTAL       INT
 CPU TIMES  *         2.99      2.95
 REAL TIME  *         3.85 SEC
 DISK USED  *       681.25 MB      
 GA USED    *         0.00 MB       (max)       0.00 MB       (current)
 **********************************************************************************************************************************

1PROGRAM * RHF-SCF (CLOSED SHELL)       Authors: W. Meyer, H.-J. Werner


 NUMBER OF ELECTRONS:      28+   28-
 CONVERGENCE THRESHOLDS:    1.00E-10 (Density)    1.00E-13 (Energy)
 MAX. NUMBER OF ITERATIONS:      200
 INTERPOLATION TYPE:            DIIS
 INTERPOLATION STEPS:              2 (START)      1 (STEP)
 LEVEL SHIFTS:                  0.00 (CLOSED)  0.00 (OPEN) 



 Orbital guess generated from atomic densities. Full valence occupancy:   27  17

 Molecular orbital dump at record        2100.2

 Initial alpha occupancy:  18  10
 Initial beta  occupancy:  18  10
 Wave function symmetry:    1

 ITERATION    DDIFF          GRAD             ENERGY        2-EL.EN.            DIPOLE MOMENTS         DIIS
    1      0.000D+00      0.000D+00      -592.64388322   1056.752067   -0.40860   -0.80673    0.00000    0
    2      0.000D+00      0.552D-02      -592.70489674   1054.165074   -0.20670   -0.73768    0.00000    1
    3      0.109D-01      0.185D-02      -592.71083250   1055.603027   -0.27963   -0.67534    0.00000    2
    4      0.375D-02      0.753D-03      -592.71184281   1054.982386   -0.25209   -0.70805    0.00000    3
    5      0.130D-02      0.108D-03      -592.71186863   1055.045780   -0.24813   -0.69950    0.00000    4
    6      0.253D-03      0.373D-04      -592.71187116   1055.014896   -0.24988   -0.69976    0.00000    5
    7      0.705D-04      0.863D-05      -592.71187137   1055.018039   -0.24920   -0.69964    0.00000    6
    8      0.230D-04      0.243D-05      -592.71187139   1055.017175   -0.24919   -0.69950    0.00000    7
    9      0.753D-05      0.638D-06      -592.71187139   1055.017060   -0.24917   -0.69946    0.00000    7
   10      0.178D-05      0.228D-06      -592.71187139   1055.017097   -0.24916   -0.69946    0.00000    7
   11      0.678D-06      0.480D-07      -592.71187139   1055.017082   -0.24916   -0.69946    0.00000    7
   12      0.160D-06      0.970D-08      -592.71187139   1055.017088   -0.24916   -0.69946    0.00000    7
   13      0.257D-07      0.406D-08      -592.71187139   1055.017085   -0.24916   -0.69946    0.00000    7
   14      0.892D-08      0.119D-08      -592.71187139   1055.017086   -0.24916   -0.69946    0.00000    7
   15      0.318D-08      0.388D-09      -592.71187139   1055.017086   -0.24916   -0.69946    0.00000    7
   16      0.931D-09      0.118D-09      -592.71187139   1055.017086   -0.24916   -0.69946    0.00000    8
   17      0.287D-09      0.253D-10      -592.71187139   1055.017086   -0.24916   -0.69946    0.00000    7
   18      0.670D-10      0.739D-11      -592.71187139   1055.017086   -0.24916   -0.69946    0.00000    7
   19      0.231D-10      0.242D-11      -592.71187139   1055.017086   -0.24916   -0.69946    0.00000    8
   20      0.671D-11      0.703D-12      -592.71187139   1055.017086   -0.24916   -0.69946    0.00000    7
   21      0.204D-11      0.237D-12      -592.71187139   1055.017086   -0.24916   -0.69946    0.00000    7
   22      0.857D-12      0.858D-13      -592.71187139   1055.017086   -0.24916   -0.69946    0.00000    8
   23      0.317D-12      0.415D-13      -592.71187139   1055.017086   -0.24916   -0.69946    0.00000    8
   24      0.185D-12      0.286D-13      -592.71187139   1055.017086   -0.24916   -0.69946    0.00000    8
   25      0.107D-12      0.326D-13      -592.71187139   1055.017086   -0.24916   -0.69946    0.00000    9
   26      0.519D-13      0.272D-13      -592.71187139   1055.017086   -0.24916   -0.69946    0.00000    9
   27      0.597D-13      0.282D-13      -592.71187139   1055.017086   -0.24916   -0.69946    0.00000    9
   28      0.478D-13      0.246D-13      -592.71187139   1055.017086   -0.24916   -0.69946    0.00000    9
   29      0.502D-13      0.193D-13      -592.71187139   1055.017086   -0.24916   -0.69946    0.00000    0

 Final occupancy:  18  10

 !RHF STATE 1.1 Energy               -592.711871389742
 Nuclear energy                       312.09065210
 One-electron energy                -1432.31106642
 Two-electron energy                  527.50854293
 Virial quotient                       -1.00021356
 !RHF STATE 1.1 Dipole moment          -0.24916407    -0.69945733     0.00000000
 Dipole moment /Debye                  -0.63327042    -1.77772676     0.00000000

 Orbital energies:

         1.1          2.1          3.1          4.1          5.1          6.1          7.1          8.1          9.1         10.1
    -91.929802   -11.255010   -11.231188   -11.229930    -8.933691    -6.614154    -6.611952    -1.119511    -1.006270    -0.835469

        11.1         12.1         13.1         14.1         15.1         16.1         17.1         18.1         19.1         20.1
     -0.755444    -0.646441    -0.609602    -0.578210    -0.495262    -0.472646    -0.411702    -0.328722     0.176808     0.201066

         1.2          2.2          3.2          4.2          5.2          6.2          7.2          8.2          9.2         10.2
    -11.255023   -11.231042    -6.615586    -1.020014    -0.842466    -0.614483    -0.547066    -0.523699    -0.497883    -0.434720

        11.2         12.2
      0.190269     0.222989


 **********************************************************************************************************************************
 DATASETS  * FILE   NREC   LENGTH (MB)   RECORD NAMES
              1      19      188.02       500      610      700      900      950      970     1000      129      960     1100   
                                          VAR    BASINP    GEOM    SYMINP    ZMAT    AOBASIS   BASIS     P2S    ABASIS      S 
                                         1400     1410     1200     1210     1080     1600     1650     1300     1700   
                                           T        V       H0       H01     AOSYM     SMH    MOLCAS    ERIS     OPER   

              2       3        0.73       700     1000     2100   
                                         GEOM     BASIS     RHF  

 PROGRAMS   *        TOTAL       RHF       INT
 CPU TIMES  *         5.66      2.67      2.95
 REAL TIME  *         7.06 SEC
 DISK USED  *       681.25 MB      
 GA USED    *         0.00 MB       (max)       0.00 MB       (current)
 **********************************************************************************************************************************


1PROGRAM * CCSD (Closed-shell coupled cluster)     Authors: C. Hampel, H.-J. Werner, 1991, M. Deegan, P.J. Knowles, 1992


 Convergence thresholds:  THRVAR = 1.00D-08  THRDEN = 1.00D-12

 CCSD(T)     terms to be evaluated (factor= 1.000)


 Number of core orbitals:          10 (   7   3 )
 Number of closed-shell orbitals:  18 (  11   7 )
 Number of external orbitals:     110 (  61  49 )

 Molecular orbitals read from record     2100.2  Type=RHF/CANONICAL (state 1.1)

 Number of N-1 electron functions:              18
 Number of N-2 electron functions:             171
 Number of singly external CSFs:              1014
 Number of doubly external CSFs:            981666
 Total number of CSFs:                      982681

 Length of J-op  integral file:               0.00 MB
 Length of K-op  integral file:               0.70 MB
 Length of 3-ext integral record:             0.00 MB

 Memory could be reduced to 16.31 Mwords without degradation in triples

 Integral transformation finished. Total CPU:   0.74 sec, npass=  1  Memory used:  10.63 MW

 Reference energy:                   -592.71187139

 MP2 singlet pair energy:              -0.53955434
 MP2 triplet pair energy:              -0.30437750
 MP2 correlation energy:               -0.84393184
 MP2 total energy:                   -593.55580323

 SCS-MP2 correlation energy:           -0.83685565   (PS=  1.200000  PT=  0.333333)
 SCS-MP2 total energy:               -593.54872704

 ITER.      SQ.NORM     CORR.ENERGY   TOTAL ENERGY   ENERGY CHANGE        DEN1      VAR(S)    VAR(P)  DIIS     TIME
   1      1.33985238    -0.91091899  -593.62279038    -0.06698715    -0.04301222  0.26D-02  0.55D-02  1  1     2.30
   2      1.36687939    -0.91627314  -593.62814453    -0.00535415    -0.02579461  0.69D-04  0.46D-03  2  2     3.91
   3      1.37222389    -0.91640176  -593.62827315    -0.00012862    -0.00304310  0.16D-04  0.28D-04  3  3     5.52
   4      1.37371960    -0.91646001  -593.62833140    -0.00005825    -0.00059486  0.76D-06  0.20D-05  4  4     7.13
   5      1.37396059    -0.91646664  -593.62833803    -0.00000663    -0.00007096  0.17D-06  0.16D-06  5  5     8.75
   6      1.37400629    -0.91646219  -593.62833358     0.00000445    -0.00001395  0.30D-07  0.14D-07  6  6    10.37
   7      1.37401386    -0.91646208  -593.62833347     0.00000011     0.00000064  0.53D-08  0.23D-08  6  2    12.00
   8      1.37401994    -0.91646177  -593.62833316     0.00000031    -0.00000125  0.73D-09  0.27D-09  6  1    13.62
   9      1.37402076    -0.91646171  -593.62833310     0.00000006     0.00000051  0.66D-10  0.44D-10  6  4    15.23
  10      1.37402165    -0.91646167  -593.62833306     0.00000003    -0.00000011  0.48D-11  0.35D-11  6  3    16.84
  11      1.37402166    -0.91646167  -593.62833306    -0.00000000     0.00000004  0.12D-11  0.54D-12  6  5    18.46
  12      1.37402163    -0.91646168  -593.62833307    -0.00000000     0.00000002  0.17D-12  0.77D-13  6  6    20.08
  13      1.37402157    -0.91646168  -593.62833307    -0.00000000     0.00000002  0.24D-13  0.11D-13  6  1    21.69
  14      1.37402156    -0.91646168  -593.62833307    -0.00000000     0.00000000  0.31D-14  0.12D-14  6  2    23.32
  15      1.37402156    -0.91646168  -593.62833307     0.00000000    -0.00000000  0.67D-15  0.31D-15  6  4    24.94
  16      1.37402157    -0.91646168  -593.62833307     0.00000000    -0.00000000  0.32D-16  0.23D-16  6  5    26.55
  17      1.37402157    -0.91646168  -593.62833307     0.00000000    -0.00000000  0.57D-17  0.24D-17  6  3    28.17
  18      1.37402157    -0.91646168  -593.62833307     0.00000000    -0.00000000  0.18D-17  0.49D-18  6  6    29.79
  19      1.37402157    -0.91646168  -593.62833307     0.00000000    -0.00000000  0.37D-18  0.12D-18  6  1    31.41
  20      1.37402157    -0.91646168  -593.62833307     0.00000000     0.00000000  0.46D-19  0.17D-19  6  2    33.04
  21      1.37402157    -0.91646168  -593.62833307    -0.00000000     0.00000000  0.82D-20  0.35D-20  6  4    34.67

 Norm of t1 vector:      0.07016951      S-energy:    -0.00000000      T1 diagnostic:  0.00826956
                                                                       D1 diagnostic:  0.02108238


 Total CPU time for triples:     29.99 sec


 RESULTS
 =======

  Reference energy                   -592.711871389746
  CCSD singlet pair energy             -0.634353089578
  CCSD triplet pair energy             -0.282108588805
  CCSD correlation energy              -0.916461678383

  Triples (T) contribution             -0.029883465040
  Total correlation energy             -0.946345143423

  CCSD total energy                  -593.628333068129
  CCSD[T] energy                     -593.658836665597
  CCSD-T energy                      -593.657905019738
 !CCSD(T) total energy               -593.658216533169

 Timing summary (sec):

 STEP                 CPU(USER)    SYS     CPU(TOT)    WALL
 Transformation          0.77      0.11      0.88      0.88
 CCSD iterations        33.90      1.24     35.14     35.36
 Triples                29.99      0.98     30.97     30.98

 Program statistics:

 Available memory in ccsd:               999998604
 Min. memory needed in ccsd:               2548392
 Max. memory used in ccsd:                 3412984
 Max. memory used in cckext:               3730705 (21 integral passes)



 **********************************************************************************************************************************
 DATASETS  * FILE   NREC   LENGTH (MB)   RECORD NAMES
              1      20      256.19       500      610      700      900      950      970     1000      129      960     1100   
                                          VAR    BASINP    GEOM    SYMINP    ZMAT    AOBASIS   BASIS     P2S    ABASIS      S 
                                         1400     1410     1200     1210     1080     1600     1650     1300     1700     1380   
                                           T        V       H0       H01     AOSYM     SMH    MOLCAS    ERIS     OPER     JKOP   

              2       3        0.73       700     1000     2100   
                                         GEOM     BASIS     RHF  

 PROGRAMS   *        TOTAL   CCSD(T)       RHF       INT
 CPU TIMES  *        70.33     64.67      2.67      2.95
 REAL TIME  *        74.32 SEC
 DISK USED  *       681.25 MB      
 GA USED    *         0.00 MB       (max)       0.00 MB       (current)
 **********************************************************************************************************************************

        CCSD(T)         RHF-SCF 
   -593.65821653   -592.71187139
 **********************************************************************************************************************************
 Variable memory released
