
 Primary working directories    : /tmp/985636.1530.gen6.q
 Secondary working directories  : /tmp/985636.1530.gen6.q
 Wavefunction directory         : /home/vulcan/jj04645/wfu/
 Main file repository           : /tmp/985636.1530.gen6.q/

 ARCHNAME  : Linux/x86_64
 FC        : /opt/intel/compilers_and_libraries_2016.1.150/linux/bin/intel64/ifort
 FCVERSION : 16.0.1
 BLASLIB   : -mkl
 id        : ccgc

 Nodes     nprocs
 n088         1
 ga_uses_ma=false, calling ma_init with nominal heap.
 GA-space will be limited to   8.0 MW (determined by -G option)

 Using customized tuning parameters: mindgm=10; mindgv=16; mindgc=4; mindgr=1; noblas=0; mincuda=1000; minvec=7
 default implementation of scratch files=df  

 ***,Optimization of tetrahydrothiopyran
 memory,1000,m
 gthresh,energy=1.0d-12,orbital=1.0d-10,oneint=1.0d-16,twoint=1.0d-16,optgrad=1.0d-6,compress=1.0d-13
 geomtyp=xyz
 
 bohr
 geometry = {
  S    0.3412307070    2.7014237517   -0.0000000000
  C   -0.3269506170   -3.3672050261   -0.0000000000
  C   -0.6654498894    0.6686466907   -2.5830062735
  C   -0.6654498894    0.6686466907    2.5830062735
  C    0.4687666547   -1.9821674046   -2.4152158184
  C    0.4687666547   -1.9821674046    2.4152158184
  H   -2.7318357377    0.5762592223   -2.6063794482
  H   -2.7318357377    0.5762592223    2.6063794482
  H   -0.0580545859    1.6232887009   -4.3073512115
  H   -0.0580545859    1.6232887009    4.3073512115
  H    2.5306562995   -1.8370506539   -2.4866017756
  H    2.5306562995   -1.8370506539    2.4866017756
  H   -0.1340346985   -3.0755986560   -4.0654954553
  H   -0.1340346985   -3.0755986560    4.0654954553
  H    0.4754302181   -5.2710764278   -0.0000000000
  H   -2.3885414102   -3.5897195136   -0.0000000000
 }
 
 basis=VDZ
 {rhf;maxit,200}
 {ccsd(t);maxit,200}

 Variables initialized (661), CPU time= 0.00 sec
 Commands  initialized (458), CPU time= 0.01 sec, 486 directives.
 Default parameters read. Elapsed time= 0.04 sec

 Checking input...
 Passed
1


                                         ***  PROGRAM SYSTEM MOLPRO  ***
                         Copyright, University College Cardiff Consultants Limited, 2008

                                    Version 2010.1 linked May 16 2016 07:17:05


 **********************************************************************************************************************************
 LABEL *   Optimization of tetrahydrothiopyran                                           
 Linux-4.4.3/n088(x86_64) 64 bit mpp version                                             DATE: 26-Jan-24          TIME: 18:24:15  
 **********************************************************************************************************************************

 SHA1:             9e8077add272b0f3cad6f7df79ec5211205f459d
 **********************************************************************************************************************************

 THRESHOLDS:

 ZERO    =  1.00D-12  ONEINT  =  1.00D-16  TWOINT  =  1.00D-16  PREFAC  =  1.00D-14  LOCALI  =  1.00D-09  EORDER  =  1.00D-04
 ENERGY  =  1.00D-12  ETEST   =  0.00D+00  EDENS   =  0.00D+00  THRDEDEF=  1.00D-06  GRADIENT=  1.00D-02  STEP    =  1.00D-03
 ORBITAL =  1.00D-10  CIVEC   =  1.00D-05  COEFF   =  1.00D-04  PRINTCI =  5.00D-02  PUNCHCI =  9.90D+01  OPTGRAD =  1.00D-06
 OPTENERG=  1.00D-06  OPTSTEP =  3.00D-04  THRGRAD =  1.00D-10  COMPRESS=  1.00D-13  VARMIN  =  1.00D-07  VARMAX  =  1.00D-03
 THRDOUB =  0.00D+00  THRDIV  =  1.00D-05  THRRED  =  1.00D-07  THRPSP  =  1.00D+00  THRDC   =  1.00D-10  THRCS   =  1.00D-10
 THRNRM  =  1.00D-08  THREQ   =  0.00D+00  THRDE   =  1.00D+00  THRREF  =  1.00D-05  SPARFAC =  1.00D+00  THRDLP  =  1.00D-07
 THRDIA  =  1.00D-10  THRDLS  =  1.00D-07  THRGPS  =  0.00D+00  THRKEX  =  0.00D+00  THRDIS  =  2.00D-01  THRVAR  =  1.00D-10
 THRLOC  =  1.00D-06  THRGAP  =  1.00D-06  THRLOCT = -1.00D+00  THRGAPT = -1.00D+00  THRORB  =  1.00D-06  THRMLTP =  0.00D+00
 THRCPQCI=  1.00D-10  KEXTA   =  0.00D+00  THRCOARS=  0.00D+00  SYMTOL  =  1.00D-06  GRADTOL =  1.00D-06  THROVL  =  1.00D-08
 THRORTH =  1.00D-08  GRID    =  1.00D-06  GRIDMAX =  1.00D-03  DTMAX   =  0.00D+00

 SETTING GEOMTYP        =    XYZ
 ZUNIT=BOHR
 

 Variable memory set to 1000000000 words,  buffer space   230000 words

 SETTING BASIS          =    VDZ


 Recomputing integrals since basis changed


 Using spherical harmonics

 Library entry S      S cc-pVDZ              selected for orbital group  1
 Library entry S      P cc-pVDZ              selected for orbital group  1
 Library entry S      D cc-pVDZ              selected for orbital group  1
 Library entry C      S cc-pVDZ              selected for orbital group  2
 Library entry C      P cc-pVDZ              selected for orbital group  2
 Library entry C      D cc-pVDZ              selected for orbital group  2
 Library entry H      S cc-pVDZ              selected for orbital group  3
 Library entry H      P cc-pVDZ              selected for orbital group  3

1PROGRAM * SEWARD (Integral evaluation for generally contracted gaussian basis sets)     Author: Roland Lindh, 1990

 Geometry written to block  1 of record 700


 Point group  Cs  



 ATOMIC COORDINATES

 NR  ATOM    CHARGE       X              Y              Z

   1  S      16.00    0.341230707    2.701423752    0.000000000
   2  C       6.00   -0.326950617   -3.367205026    0.000000000
   3  C       6.00   -0.665449889    0.668646691   -2.583006274
   4  C       6.00   -0.665449889    0.668646691    2.583006274
   5  C       6.00    0.468766655   -1.982167405   -2.415215818
   6  C       6.00    0.468766655   -1.982167405    2.415215818
   7  H       1.00   -2.731835738    0.576259222   -2.606379448
   8  H       1.00   -2.731835738    0.576259222    2.606379448
   9  H       1.00   -0.058054586    1.623288701   -4.307351212
  10  H       1.00   -0.058054586    1.623288701    4.307351212
  11  H       1.00    2.530656299   -1.837050654   -2.486601776
  12  H       1.00    2.530656299   -1.837050654    2.486601776
  13  H       1.00   -0.134034698   -3.075598656   -4.065495455
  14  H       1.00   -0.134034698   -3.075598656    4.065495455
  15  H       1.00    0.475430218   -5.271076428    0.000000000
  16  H       1.00   -2.388541410   -3.589719514    0.000000000

 Bond lengths in Bohr (Angstrom)

  1- 3  3.437660514   1- 4  3.437660514   2- 5  2.895645462   2- 6  2.895645462   2-15  2.066044849
       ( 1.819131596)       ( 1.819131596)       ( 1.532309584)       ( 1.532309584)       ( 1.093303847)

  2-16  2.073564394   3- 5  2.888150996   3- 7  2.068582177   3- 9  2.062434457   4- 6  2.888150996
       ( 1.097283019)       ( 1.528343683)       ( 1.094646543)       ( 1.091393309)       ( 1.528343683)

  4- 8  2.068582177   4-10  2.062434457   5-11  2.068222361   5-13  2.069392242   6-12  2.068222361
       ( 1.094646543)       ( 1.091393309)       ( 1.094456136)       ( 1.095075211)       ( 1.094456136)

  6-14  2.069392242
       ( 1.095075211)

 Bond angles

  1-3-5  112.58654296   1-3-7  109.11273073   1-3-9  105.56089129   1-4-6  112.58654296

  1- 4- 8  109.11273073   1- 4-10  105.56089129   2- 5- 3  112.30589873   2- 5-11  109.65200996

  2- 5-13  109.41311773   2- 6- 4  112.30589873   2- 6-12  109.65200996   2- 6-14  109.41311773

  3- 1- 4   97.42097366   3- 5-11  108.97205551   3- 5-13  108.91937209   4- 6-12  108.97205551

  4- 6-14  108.91937209   5- 2- 6  113.04146257   5- 2-15  109.51477878   5- 2-16  108.93767243

  5- 3- 7  110.60731452   5- 3- 9  110.96215979   6- 2-15  109.51477878   6- 2-16  108.93767243

  6- 4- 8  110.60731452   6- 4-10  110.96215979   7- 3- 9  107.78327349   8- 4-10  107.78327349

 11- 5-13  107.45464595  12- 6-14  107.45464595  15- 2-16  106.69256299

 NUCLEAR CHARGE:                   56
 NUMBER OF PRIMITIVE AOS:         247
 NUMBER OF SYMMETRY AOS:          241
 NUMBER OF CONTRACTIONS:          138   (  79A'  +  59A"  )
 NUMBER OF CORE ORBITALS:          10   (   7A'  +   3A"  )
 NUMBER OF VALENCE ORBITALS:       34   (  20A'  +  14A"  )


 NUCLEAR REPULSION ENERGY  312.04113622


 Eigenvalues of metric

         1 0.305E-02 0.426E-02 0.633E-02 0.157E-01 0.197E-01 0.237E-01 0.284E-01 0.343E-01
         2 0.287E-02 0.702E-02 0.152E-01 0.196E-01 0.219E-01 0.343E-01 0.351E-01 0.358E-01


 Contracted 2-electron integrals neglected if value below      1.0D-16
 AO integral compression algorithm  1   Integral accuracy      1.0D-16

     207.094 MB (compressed) written to integral file ( 97.7%)

     Node minimum: 207.094 MB, node maximum: 207.094 MB


 NUMBER OF SORTED TWO-ELECTRON INTEGRALS:   23341315.     BUFFER LENGTH:  32768
 NUMBER OF SEGMENTS:   2  SEGMENT LENGTH:   15994315      RECORD LENGTH: 524288

 Memory used in sort:      16.55 MW

 SORT1 READ    26508670. AND WROTE    23262031. INTEGRALS IN     68 RECORDS. CPU TIME:     0.28 SEC, REAL TIME:     0.43 SEC
 SORT2 READ    23262031. AND WROTE    23341315. INTEGRALS IN    790 RECORDS. CPU TIME:     0.23 SEC, REAL TIME:     0.34 SEC

 FILE SIZES:   FILE 1:   187.9 MBYTE,  FILE 4:   285.2 MBYTE,   TOTAL:    473.2 MBYTE

 OPERATOR DM      FOR CENTER  0  COORDINATES:    0.000000    0.000000    0.000000


 **********************************************************************************************************************************
 DATASETS  * FILE   NREC   LENGTH (MB)   RECORD NAMES
              1      19      188.04       500      610      700      900      950      970     1000      129      960     1100   
                                          VAR    BASINP    GEOM    SYMINP    ZMAT    AOBASIS   BASIS     P2S    ABASIS      S 
                                         1400     1410     1200     1210     1080     1600     1650     1300     1700   
                                           T        V       H0       H01     AOSYM     SMH    MOLCAS    ERIS     OPER   

 PROGRAMS   *        TOTAL       INT
 CPU TIMES  *         3.02      2.98
 REAL TIME  *         3.59 SEC
 DISK USED  *       681.27 MB      
 GA USED    *         0.00 MB       (max)       0.00 MB       (current)
 **********************************************************************************************************************************

1PROGRAM * RHF-SCF (CLOSED SHELL)       Authors: W. Meyer, H.-J. Werner


 NUMBER OF ELECTRONS:      28+   28-
 CONVERGENCE THRESHOLDS:    1.00E-10 (Density)    1.00E-13 (Energy)
 MAX. NUMBER OF ITERATIONS:      200
 INTERPOLATION TYPE:            DIIS
 INTERPOLATION STEPS:              2 (START)      1 (STEP)
 LEVEL SHIFTS:                  0.00 (CLOSED)  0.00 (OPEN) 



 Orbital guess generated from atomic densities. Full valence occupancy:   27  17

 Molecular orbital dump at record        2100.2

 Initial alpha occupancy:  18  10
 Initial beta  occupancy:  18  10
 Wave function symmetry:    1

 ITERATION    DDIFF          GRAD             ENERGY        2-EL.EN.            DIPOLE MOMENTS         DIIS
    1      0.000D+00      0.000D+00      -592.64395305   1056.653708   -0.40119   -0.80491    0.00000    0
    2      0.000D+00      0.552D-02      -592.70496503   1054.067454   -0.20451   -0.73935    0.00000    1
    3      0.109D-01      0.185D-02      -592.71090164   1055.502221   -0.27619   -0.67703    0.00000    2
    4      0.375D-02      0.753D-03      -592.71191095   1054.883550   -0.24929   -0.71002    0.00000    3
    5      0.130D-02      0.108D-03      -592.71193671   1054.946455   -0.24540   -0.70153    0.00000    4
    6      0.253D-03      0.373D-04      -592.71193924   1054.915598   -0.24713   -0.70183    0.00000    5
    7      0.704D-04      0.865D-05      -592.71193945   1054.918729   -0.24646   -0.70171    0.00000    6
    8      0.230D-04      0.243D-05      -592.71193947   1054.917868   -0.24644   -0.70157    0.00000    7
    9      0.755D-05      0.633D-06      -592.71193947   1054.917750   -0.24643   -0.70153    0.00000    7
   10      0.178D-05      0.226D-06      -592.71193948   1054.917788   -0.24642   -0.70153    0.00000    7
   11      0.671D-06      0.479D-07      -592.71193948   1054.917774   -0.24642   -0.70153    0.00000    7
   12      0.159D-06      0.963D-08      -592.71193948   1054.917779   -0.24642   -0.70153    0.00000    7
   13      0.255D-07      0.401D-08      -592.71193948   1054.917776   -0.24642   -0.70153    0.00000    7
   14      0.882D-08      0.118D-08      -592.71193948   1054.917777   -0.24642   -0.70153    0.00000    7
   15      0.316D-08      0.384D-09      -592.71193948   1054.917777   -0.24642   -0.70153    0.00000    7
   16      0.918D-09      0.117D-09      -592.71193948   1054.917777   -0.24642   -0.70153    0.00000    8
   17      0.282D-09      0.251D-10      -592.71193948   1054.917777   -0.24642   -0.70153    0.00000    7
   18      0.663D-10      0.645D-11      -592.71193948   1054.917777   -0.24642   -0.70153    0.00000    0

 Final occupancy:  18  10

 !RHF STATE 1.1 Energy               -592.711939475073
 Nuclear energy                       312.04113622
 One-electron energy                -1432.21196421
 Two-electron energy                  527.45888851
 Virial quotient                       -1.00019789
 !RHF STATE 1.1 Dipole moment          -0.24642000    -0.70152716     0.00000000
 Dipole moment /Debye                  -0.62629615    -1.78298740     0.00000000

 Orbital energies:

         1.1          2.1          3.1          4.1          5.1          6.1          7.1          8.1          9.1         10.1
    -91.929835   -11.254913   -11.231089   -11.229076    -8.933714    -6.614170    -6.611974    -1.119332    -1.006520    -0.836011

        11.1         12.1         13.1         14.1         15.1         16.1         17.1         18.1         19.1         20.1
     -0.755160    -0.646344    -0.609922    -0.578581    -0.495301    -0.472681    -0.411774    -0.328819     0.176739     0.201255

         1.2          2.2          3.2          4.2          5.2          6.2          7.2          8.2          9.2         10.2
    -11.254927   -11.231012    -6.615614    -1.020028    -0.842562    -0.614636    -0.546513    -0.523952    -0.498203    -0.434432

        11.2         12.2
      0.190325     0.222859


 **********************************************************************************************************************************
 DATASETS  * FILE   NREC   LENGTH (MB)   RECORD NAMES
              1      19      188.04       500      610      700      900      950      970     1000      129      960     1100   
                                          VAR    BASINP    GEOM    SYMINP    ZMAT    AOBASIS   BASIS     P2S    ABASIS      S 
                                         1400     1410     1200     1210     1080     1600     1650     1300     1700   
                                           T        V       H0       H01     AOSYM     SMH    MOLCAS    ERIS     OPER   

              2       3        0.73       700     1000     2100   
                                         GEOM     BASIS     RHF  

 PROGRAMS   *        TOTAL       RHF       INT
 CPU TIMES  *         4.80      1.77      2.98
 REAL TIME  *         5.71 SEC
 DISK USED  *       681.27 MB      
 GA USED    *         0.00 MB       (max)       0.00 MB       (current)
 **********************************************************************************************************************************


1PROGRAM * CCSD (Closed-shell coupled cluster)     Authors: C. Hampel, H.-J. Werner, 1991, M. Deegan, P.J. Knowles, 1992


 Convergence thresholds:  THRVAR = 1.00D-08  THRDEN = 1.00D-12

 CCSD(T)     terms to be evaluated (factor= 1.000)


 Number of core orbitals:          10 (   7   3 )
 Number of closed-shell orbitals:  18 (  11   7 )
 Number of external orbitals:     110 (  61  49 )

 Molecular orbitals read from record     2100.2  Type=RHF/CANONICAL (state 1.1)

 Number of N-1 electron functions:              18
 Number of N-2 electron functions:             171
 Number of singly external CSFs:              1014
 Number of doubly external CSFs:            981666
 Total number of CSFs:                      982681

 Length of J-op  integral file:               0.00 MB
 Length of K-op  integral file:               0.70 MB
 Length of 3-ext integral record:             0.00 MB

 Memory could be reduced to 16.31 Mwords without degradation in triples

 Integral transformation finished. Total CPU:   0.75 sec, npass=  1  Memory used:  10.63 MW

 Reference energy:                   -592.71193948

 MP2 singlet pair energy:              -0.53944587
 MP2 triplet pair energy:              -0.30432121
 MP2 correlation energy:               -0.84376708
 MP2 total energy:                   -593.55570656

 SCS-MP2 correlation energy:           -0.83669047   (PS=  1.200000  PT=  0.333333)
 SCS-MP2 total energy:               -593.54862994

 ITER.      SQ.NORM     CORR.ENERGY   TOTAL ENERGY   ENERGY CHANGE        DEN1      VAR(S)    VAR(P)  DIIS     TIME
   1      1.33970113    -0.91076161  -593.62270109    -0.06699453    -0.04303693  0.26D-02  0.55D-02  1  1     2.35
   2      1.36669767    -0.91610995  -593.62804943    -0.00534834    -0.02577751  0.69D-04  0.46D-03  2  2     4.00
   3      1.37203026    -0.91623800  -593.62817747    -0.00012805    -0.00303737  0.16D-04  0.28D-04  3  3     5.66
   4      1.37352296    -0.91629605  -593.62823553    -0.00005806    -0.00059391  0.76D-06  0.20D-05  4  4     7.32
   5      1.37376350    -0.91630267  -593.62824215    -0.00000662    -0.00007086  0.17D-06  0.16D-06  5  5     8.98
   6      1.37380909    -0.91629823  -593.62823770     0.00000444    -0.00001393  0.30D-07  0.14D-07  6  6    10.65
   7      1.37381663    -0.91629812  -593.62823759     0.00000011     0.00000064  0.53D-08  0.23D-08  6  2    12.31
   8      1.37382270    -0.91629781  -593.62823728     0.00000031    -0.00000125  0.73D-09  0.26D-09  6  1    13.98
   9      1.37382351    -0.91629774  -593.62823722     0.00000006     0.00000051  0.65D-10  0.44D-10  6  4    15.64
  10      1.37382440    -0.91629771  -593.62823718     0.00000003    -0.00000011  0.47D-11  0.35D-11  6  3    17.30
  11      1.37382441    -0.91629771  -593.62823719    -0.00000000     0.00000004  0.11D-11  0.53D-12  6  5    18.96
  12      1.37382437    -0.91629771  -593.62823719    -0.00000000     0.00000002  0.17D-12  0.76D-13  6  6    20.63
  13      1.37382432    -0.91629772  -593.62823719    -0.00000000     0.00000002  0.23D-13  0.10D-13  6  1    22.31
  14      1.37382431    -0.91629772  -593.62823719    -0.00000000     0.00000000  0.30D-14  0.12D-14  6  2    23.97
  15      1.37382431    -0.91629772  -593.62823719     0.00000000    -0.00000000  0.66D-15  0.30D-15  6  4    25.64
  16      1.37382431    -0.91629772  -593.62823719     0.00000000    -0.00000000  0.31D-16  0.23D-16  6  5    27.30
  17      1.37382431    -0.91629772  -593.62823719     0.00000000    -0.00000000  0.55D-17  0.23D-17  6  3    28.98
  18      1.37382431    -0.91629772  -593.62823719     0.00000000    -0.00000000  0.18D-17  0.48D-18  6  6    30.63
  19      1.37382431    -0.91629772  -593.62823719     0.00000000    -0.00000000  0.36D-18  0.11D-18  6  1    32.29
  20      1.37382431    -0.91629772  -593.62823719     0.00000000     0.00000000  0.44D-19  0.17D-19  6  2    33.95
  21      1.37382431    -0.91629772  -593.62823719    -0.00000000     0.00000000  0.79D-20  0.33D-20  6  4    35.62

 Norm of t1 vector:      0.07012395      S-energy:    -0.00000000      T1 diagnostic:  0.00826419
                                                                       D1 diagnostic:  0.02108023


 Total CPU time for triples:     31.87 sec


 RESULTS
 =======

  Reference energy                   -592.711939475075
  CCSD singlet pair energy             -0.634212212104
  CCSD triplet pair energy             -0.282085503964
  CCSD correlation energy              -0.916297716070

  Triples (T) contribution             -0.029862066309
  Total correlation energy             -0.946159782379

  CCSD total energy                  -593.628237191145
  CCSD[T] energy                     -593.658718470852
  CCSD-T energy                      -593.657788150112
 !CCSD(T) total energy               -593.658099257454

 Timing summary (sec):

 STEP                 CPU(USER)    SYS     CPU(TOT)    WALL
 Transformation          0.78      0.11      0.89      0.90
 CCSD iterations        34.84      1.30     36.14     36.23
 Triples                31.87      1.01     32.88     32.89

 Program statistics:

 Available memory in ccsd:               999998604
 Min. memory needed in ccsd:               2548392
 Max. memory used in ccsd:                 3412984
 Max. memory used in cckext:               3730705 (21 integral passes)



 **********************************************************************************************************************************
 DATASETS  * FILE   NREC   LENGTH (MB)   RECORD NAMES
              1      20      256.21       500      610      700      900      950      970     1000      129      960     1100   
                                          VAR    BASINP    GEOM    SYMINP    ZMAT    AOBASIS   BASIS     P2S    ABASIS      S 
                                         1400     1410     1200     1210     1080     1600     1650     1300     1700     1380   
                                           T        V       H0       H01     AOSYM     SMH    MOLCAS    ERIS     OPER     JKOP   

              2       3        0.73       700     1000     2100   
                                         GEOM     BASIS     RHF  

 PROGRAMS   *        TOTAL   CCSD(T)       RHF       INT
 CPU TIMES  *        72.30     67.50      1.77      2.98
 REAL TIME  *        75.76 SEC
 DISK USED  *       681.27 MB      
 GA USED    *         0.00 MB       (max)       0.00 MB       (current)
 **********************************************************************************************************************************

        CCSD(T)         RHF-SCF 
   -593.65809926   -592.71193948
 **********************************************************************************************************************************
 Variable memory released
