
 Primary working directories    : /tmp/984874.345.gen4.q
 Secondary working directories  : /tmp/984874.345.gen4.q
 Wavefunction directory         : /home/vulcan/mel64643/wfu/
 Main file repository           : /tmp/984874.345.gen4.q/

 ARCHNAME  : Linux/x86_64
 FC        : /opt/intel/compilers_and_libraries_2016.1.150/linux/bin/intel64/ifort
 FCVERSION : 16.0.1
 BLASLIB   : -mkl
 id        : ccgc

 Nodes     nprocs
 n061         1
 ga_uses_ma=false, calling ma_init with nominal heap.
 GA-space will be limited to   8.0 MW (determined by -G option)

 Using customized tuning parameters: mindgm=10; mindgv=16; mindgc=4; mindgr=1; noblas=0; mincuda=1000; minvec=7
 default implementation of scratch files=df  

 ***,Optimization of formic acid
 memory,1000,m
 gthresh,energy=1.0d-12,orbital=1.0d-10,oneint=1.0d-16,twoint=1.0d-16,optgrad=1.0d-6,compress=1.0d-13
 geomtyp=xyz
 
 
 
 bohr
 geometry = {
  C   -3.4956633446   -0.8331136468    0.0000000000
  O   -3.0838900319    1.6194221504    0.0000000000
  O   -1.8841540429   -2.4871898539    0.0000000000
  H   -5.5158930382   -1.2711862946    0.0000000000
  H   -1.2309846356    1.9466128083    0.0000000000
  C    3.4956633446    0.8331136468    0.0000000000
  O    3.0838900319   -1.6194221504   -0.0000000000
  O    1.8841540429    2.4871898539    0.0000000000
  H    5.5158930382    1.2711862946    0.0000000000
  H    1.2309846356   -1.9466128083   -0.0000000000
 }
 
 basis=VTZ
 {rhf;maxit,200}
 {ccsd(t);maxit,200}

 Variables initialized (661), CPU time= 0.00 sec
 Commands  initialized (458), CPU time= 0.01 sec, 486 directives.
 Default parameters read. Elapsed time= 0.06 sec

 Checking input...
 Passed
1


                                         ***  PROGRAM SYSTEM MOLPRO  ***
                         Copyright, University College Cardiff Consultants Limited, 2008

                                    Version 2010.1 linked May 16 2016 07:17:05


 **********************************************************************************************************************************
 LABEL *   Optimization of formic acid                                                   
 Linux-4.4.3/n061(x86_64) 64 bit mpp version                                             DATE: 24-Jan-24          TIME: 15:30:15  
 **********************************************************************************************************************************

 SHA1:             9e8077add272b0f3cad6f7df79ec5211205f459d
 **********************************************************************************************************************************

 THRESHOLDS:

 ZERO    =  1.00D-12  ONEINT  =  1.00D-16  TWOINT  =  1.00D-16  PREFAC  =  1.00D-14  LOCALI  =  1.00D-09  EORDER  =  1.00D-04
 ENERGY  =  1.00D-12  ETEST   =  0.00D+00  EDENS   =  0.00D+00  THRDEDEF=  1.00D-06  GRADIENT=  1.00D-02  STEP    =  1.00D-03
 ORBITAL =  1.00D-10  CIVEC   =  1.00D-05  COEFF   =  1.00D-04  PRINTCI =  5.00D-02  PUNCHCI =  9.90D+01  OPTGRAD =  1.00D-06
 OPTENERG=  1.00D-06  OPTSTEP =  3.00D-04  THRGRAD =  1.00D-10  COMPRESS=  1.00D-13  VARMIN  =  1.00D-07  VARMAX  =  1.00D-03
 THRDOUB =  0.00D+00  THRDIV  =  1.00D-05  THRRED  =  1.00D-07  THRPSP  =  1.00D+00  THRDC   =  1.00D-10  THRCS   =  1.00D-10
 THRNRM  =  1.00D-08  THREQ   =  0.00D+00  THRDE   =  1.00D+00  THRREF  =  1.00D-05  SPARFAC =  1.00D+00  THRDLP  =  1.00D-07
 THRDIA  =  1.00D-10  THRDLS  =  1.00D-07  THRGPS  =  0.00D+00  THRKEX  =  0.00D+00  THRDIS  =  2.00D-01  THRVAR  =  1.00D-10
 THRLOC  =  1.00D-06  THRGAP  =  1.00D-06  THRLOCT = -1.00D+00  THRGAPT = -1.00D+00  THRORB  =  1.00D-06  THRMLTP =  0.00D+00
 THRCPQCI=  1.00D-10  KEXTA   =  0.00D+00  THRCOARS=  0.00D+00  SYMTOL  =  1.00D-06  GRADTOL =  1.00D-06  THROVL  =  1.00D-08
 THRORTH =  1.00D-08  GRID    =  1.00D-06  GRIDMAX =  1.00D-03  DTMAX   =  0.00D+00

 SETTING GEOMTYP        =    XYZ
 ZUNIT=BOHR
 

 Variable memory set to 1000000000 words,  buffer space   230000 words

 SETTING BASIS          =    VTZ


 Recomputing integrals since basis changed


 Using spherical harmonics

 Library entry C      S cc-pVTZ              selected for orbital group  1
 Library entry C      P cc-pVTZ              selected for orbital group  1
 Library entry C      D cc-pVTZ              selected for orbital group  1
 Library entry C      F cc-pVTZ              selected for orbital group  1
 Library entry O      S cc-pVTZ              selected for orbital group  2
 Library entry O      P cc-pVTZ              selected for orbital group  2
 Library entry O      D cc-pVTZ              selected for orbital group  2
 Library entry O      F cc-pVTZ              selected for orbital group  2
 Library entry H      S cc-pVTZ              selected for orbital group  3
 Library entry H      P cc-pVTZ              selected for orbital group  3
 Library entry H      D cc-pVTZ              selected for orbital group  3

1PROGRAM * SEWARD (Integral evaluation for generally contracted gaussian basis sets)     Author: Roland Lindh, 1990

 Geometry written to block  1 of record 700


 Point group  C2h 



 ATOMIC COORDINATES

 NR  ATOM    CHARGE       X              Y              Z

   1  C       6.00   -3.495663345   -0.833113647    0.000000000
   2  C       6.00    3.495663345    0.833113647    0.000000000
   3  O       8.00   -3.083890032    1.619422150    0.000000000
   4  O       8.00    3.083890032   -1.619422150    0.000000000
   5  O       8.00   -1.884154043   -2.487189854    0.000000000
   6  O       8.00    1.884154043    2.487189854    0.000000000
   7  H       1.00   -5.515893038   -1.271186295    0.000000000
   8  H       1.00    5.515893038    1.271186295    0.000000000
   9  H       1.00   -1.230984636    1.946612808    0.000000000
  10  H       1.00    1.230984636   -1.946612808    0.000000000

 Bond lengths in Bohr (Angstrom)

 1-3  2.486863305  1-5  2.309313822  1-7  2.067180606  2-4  2.486863305  2-6  2.309313822
     ( 1.315991383)     ( 1.222036243)     ( 1.093904864)     ( 1.315991383)     ( 1.222036243)

  2- 8  2.067180606   3- 9  1.881571719   4-10  1.881571719
       ( 1.093904864)       ( 0.995684871)       ( 0.995684871)

 Bond angles

  1- 3- 9  109.54509197   2- 4-10  109.54509197   3- 1- 5  126.21591402   3- 1- 7  111.76566607

  4-2-6  126.21591402   4-2-8  111.76566607   5-1-7  122.01841991   6-2-8  122.01841991

 NUCLEAR CHARGE:                   48
 NUMBER OF PRIMITIVE AOS:         350
 NUMBER OF SYMMETRY AOS:          316
 NUMBER OF CONTRACTIONS:          236   (  80Ag  +  38Au  +  80Bu  +  38Bg  )
 NUMBER OF CORE ORBITALS:           6   (   3Ag  +   0Au  +   3Bu  +   0Bg  )
 NUMBER OF VALENCE ORBITALS:       28   (  11Ag  +   3Au  +  11Bu  +   3Bg  )


 NUCLEAR REPULSION ENERGY  235.68249523


 Eigenvalues of metric

         1 0.141E-02 0.159E-02 0.224E-02 0.352E-02 0.402E-02 0.538E-02 0.572E-02 0.895E-02
         2 0.290E-01 0.392E-01 0.440E-01 0.715E-01 0.849E-01 0.932E-01 0.134E+00 0.187E+00
         3 0.132E-02 0.159E-02 0.268E-02 0.361E-02 0.392E-02 0.552E-02 0.642E-02 0.759E-02
         4 0.289E-01 0.387E-01 0.431E-01 0.758E-01 0.841E-01 0.102E+00 0.125E+00 0.173E+00


 Contracted 2-electron integrals neglected if value below      1.0D-16
 AO integral compression algorithm  1   Integral accuracy      1.0D-16

     940.573 MB (compressed) written to integral file ( 98.5%)

     Node minimum: 940.573 MB, node maximum: 940.573 MB


 NUMBER OF SORTED TWO-ELECTRON INTEGRALS:  100725585.     BUFFER LENGTH:  32768
 NUMBER OF SEGMENTS:   7  SEGMENT LENGTH:   15999120      RECORD LENGTH: 524288

 Memory used in sort:      16.56 MW

 SORT1 READ   119317192. AND WROTE   100723750. INTEGRALS IN    290 RECORDS. CPU TIME:     2.06 SEC, REAL TIME:     2.93 SEC
 SORT2 READ   100723750. AND WROTE   100725585. INTEGRALS IN   3588 RECORDS. CPU TIME:     1.05 SEC, REAL TIME:     1.44 SEC

 FILE SIZES:   FILE 1:   813.7 MBYTE,  FILE 4:  1216.4 MBYTE,   TOTAL:   2030.1 MBYTE

 OPERATOR DM      FOR CENTER  0  COORDINATES:    0.000000    0.000000    0.000000


 **********************************************************************************************************************************
 DATASETS  * FILE   NREC   LENGTH (MB)   RECORD NAMES
              1      19      813.85       500      610      700      900      950      970     1000      129      960     1100   
                                          VAR    BASINP    GEOM    SYMINP    ZMAT    AOBASIS   BASIS     P2S    ABASIS      S 
                                         1400     1410     1200     1210     1080     1600     1650     1300     1700   
                                           T        V       H0       H01     AOSYM     SMH    MOLCAS    ERIS     OPER   

 PROGRAMS   *        TOTAL       INT
 CPU TIMES  *        13.18     13.14
 REAL TIME  *        15.24 SEC
 DISK USED  *         2.97 GB      
 GA USED    *         0.00 MB       (max)       0.00 MB       (current)
 **********************************************************************************************************************************

1PROGRAM * RHF-SCF (CLOSED SHELL)       Authors: W. Meyer, H.-J. Werner


 NUMBER OF ELECTRONS:      24+   24-
 CONVERGENCE THRESHOLDS:    1.00E-10 (Density)    1.00E-13 (Energy)
 MAX. NUMBER OF ITERATIONS:      200
 INTERPOLATION TYPE:            DIIS
 INTERPOLATION STEPS:              2 (START)      1 (STEP)
 LEVEL SHIFTS:                  0.00 (CLOSED)  0.00 (OPEN) 



 Orbital guess generated from atomic densities. Full valence occupancy:   14   3  14   3

 Molecular orbital dump at record        2100.2

 Initial alpha occupancy:  10   2  10   2
 Initial beta  occupancy:  10   2  10   2
 Wave function symmetry:    1

 ITERATION    DDIFF          GRAD             ENERGY        2-EL.EN.            DIPOLE MOMENTS         DIIS
    1      0.000D+00      0.000D+00      -377.56175399    747.537393    0.00000    0.00000    0.00000    0
    2      0.000D+00      0.942D-02      -377.64941131    744.491130    0.00000    0.00000    0.00000    1
    3      0.152D-01      0.613D-02      -377.69888204    746.810532    0.00000    0.00000    0.00000    2
    4      0.597D-02      0.818D-03      -377.70041827    746.494378    0.00000    0.00000    0.00000    3
    5      0.113D-02      0.359D-03      -377.70069447    746.533316    0.00000    0.00000    0.00000    4
    6      0.468D-03      0.104D-03      -377.70074213    746.577612    0.00000    0.00000    0.00000    5
    7      0.180D-03      0.450D-04      -377.70075322    746.560123    0.00000    0.00000    0.00000    6
    8      0.991D-04      0.145D-04      -377.70075453    746.565921    0.00000    0.00000    0.00000    7
    9      0.380D-04      0.464D-05      -377.70075465    746.564439    0.00000    0.00000    0.00000    8
   10      0.113D-04      0.140D-05      -377.70075466    746.564639    0.00000    0.00000    0.00000    7
   11      0.378D-05      0.415D-06      -377.70075466    746.564588    0.00000    0.00000    0.00000    8
   12      0.116D-05      0.693D-07      -377.70075466    746.564590    0.00000    0.00000    0.00000    8
   13      0.182D-06      0.169D-07      -377.70075466    746.564589    0.00000    0.00000    0.00000    7
   14      0.410D-07      0.412D-08      -377.70075466    746.564590    0.00000    0.00000    0.00000    7
   15      0.103D-07      0.109D-08      -377.70075466    746.564589    0.00000    0.00000    0.00000    7
   16      0.197D-08      0.450D-09      -377.70075466    746.564590    0.00000    0.00000    0.00000    7
   17      0.794D-09      0.134D-09      -377.70075466    746.564590    0.00000    0.00000    0.00000    7
   18      0.213D-09      0.363D-10      -377.70075466    746.564590    0.00000    0.00000    0.00000    7
   19      0.649D-10      0.140D-10      -377.70075466    746.564590    0.00000    0.00000    0.00000    7
   20      0.240D-10      0.358D-11      -377.70075466    746.564590    0.00000    0.00000    0.00000    8
   21      0.694D-11      0.172D-11      -377.70075466    746.564590    0.00000    0.00000    0.00000    0

 Final occupancy:  10   2  10   2

 !RHF STATE 1.1 Energy               -377.700754662779
 Nuclear energy                       235.68249523
 One-electron energy                 -986.66554471
 Two-electron energy                  373.28229482
 Virial quotient                       -1.00166767
 !RHF STATE 1.1 Dipole moment           0.00000000     0.00000000     0.00000000
 Dipole moment /Debye                   0.00000000     0.00000000     0.00000000

 Orbital energies:

         1.1          2.1          3.1          4.1          5.1          6.1          7.1          8.1          9.1         10.1
    -20.613575   -20.573567   -11.406305    -1.482939    -1.370681    -0.917474    -0.731414    -0.692795    -0.619629    -0.495879

        11.1         12.1
      0.163838     0.234592

         1.2          2.2          3.2          4.2
     -0.643358    -0.493391     0.146856     0.399057

         1.3          2.3          3.3          4.3          5.3          6.3          7.3          8.3          9.3         10.3
    -20.613574   -20.573568   -11.406305    -1.469935    -1.384977    -0.881318    -0.767302    -0.722486    -0.578794    -0.473266

        11.3         12.3
      0.164734     0.261354

         1.4          2.4          3.4          4.4
     -0.632998    -0.504948     0.154134     0.440971


 **********************************************************************************************************************************
 DATASETS  * FILE   NREC   LENGTH (MB)   RECORD NAMES
              1      19      813.85       500      610      700      900      950      970     1000      129      960     1100   
                                          VAR    BASINP    GEOM    SYMINP    ZMAT    AOBASIS   BASIS     P2S    ABASIS      S 
                                         1400     1410     1200     1210     1080     1600     1650     1300     1700   
                                           T        V       H0       H01     AOSYM     SMH    MOLCAS    ERIS     OPER   

              2       3        0.77       700     1000     2100   
                                         GEOM     BASIS     RHF  

 PROGRAMS   *        TOTAL       RHF       INT
 CPU TIMES  *        19.72      6.54     13.14
 REAL TIME  *        23.14 SEC
 DISK USED  *         2.97 GB      
 GA USED    *         0.00 MB       (max)       0.00 MB       (current)
 **********************************************************************************************************************************


1PROGRAM * CCSD (Closed-shell coupled cluster)     Authors: C. Hampel, H.-J. Werner, 1991, M. Deegan, P.J. Knowles, 1992


 Convergence thresholds:  THRVAR = 1.00D-08  THRDEN = 1.00D-12

 CCSD(T)     terms to be evaluated (factor= 1.000)


 Number of core orbitals:           6 (   3   0   3   0 )
 Number of closed-shell orbitals:  18 (   7   2   7   2 )
 Number of external orbitals:     212 (  70  36  70  36 )

 Molecular orbitals read from record     2100.2  Type=RHF/CANONICAL (state 1.1)

 Number of N-1 electron functions:              18
 Number of N-2 electron functions:             171
 Number of singly external CSFs:              1124
 Number of doubly external CSFs:           1879940
 Total number of CSFs:                     1881065

 Length of J-op  integral file:               0.00 MB
 Length of K-op  integral file:               1.12 MB
 Length of 3-ext integral record:             0.00 MB

 Memory could be reduced to 55.25 Mwords without degradation in triples

 Integral transformation finished. Total CPU:   2.76 sec, npass=  1  Memory used:  13.09 MW

 Reference energy:                   -377.70075466

 MP2 singlet pair energy:              -0.77628708
 MP2 triplet pair energy:              -0.49240949
 MP2 correlation energy:               -1.26869656
 MP2 total energy:                   -378.96945123

 SCS-MP2 correlation energy:           -1.23793262   (PS=  1.200000  PT=  0.333333)
 SCS-MP2 total energy:               -378.93868728

 ITER.      SQ.NORM     CORR.ENERGY   TOTAL ENERGY   ENERGY CHANGE        DEN1      VAR(S)    VAR(P)  DIIS     TIME
   1      1.30948838    -1.27606100  -378.97681567    -0.00736444     0.02990068  0.10D-01  0.65D-02  1  1     6.54
   2      1.33258860    -1.27537866  -378.97613332     0.00068235    -0.02909286  0.23D-03  0.93D-03  2  2    10.57
   3      1.34377697    -1.27595516  -378.97670983    -0.00057651    -0.00514848  0.24D-03  0.46D-04  3  3    14.62
   4      1.34904435    -1.27570443  -378.97645909     0.00025074    -0.00196019  0.24D-04  0.88D-05  4  4    18.69
   5      1.35144934    -1.27565315  -378.97640781     0.00005128    -0.00054312  0.25D-05  0.83D-06  5  5    22.75
   6      1.35203369    -1.27560368  -378.97635835     0.00004947    -0.00005471  0.14D-06  0.80D-07  6  6    26.85
   7      1.35212527    -1.27559880  -378.97635346     0.00000488    -0.00000880  0.12D-07  0.12D-07  6  2    30.90
   8      1.35212127    -1.27560004  -378.97635470    -0.00000124     0.00000754  0.27D-08  0.13D-08  6  3    34.97
   9      1.35213054    -1.27559866  -378.97635333     0.00000138    -0.00000278  0.24D-09  0.13D-09  6  1    39.04
  10      1.35212991    -1.27559878  -378.97635344    -0.00000011     0.00000021  0.59D-10  0.25D-10  6  5    43.13
  11      1.35213010    -1.27559880  -378.97635347    -0.00000003     0.00000005  0.14D-10  0.45D-11  6  4    47.21
  12      1.35212983    -1.27559883  -378.97635349    -0.00000002     0.00000010  0.29D-11  0.76D-12  6  6    51.29
  13      1.35212963    -1.27559886  -378.97635352    -0.00000003     0.00000009  0.66D-12  0.16D-12  6  2    55.33
  14      1.35212954    -1.27559886  -378.97635352    -0.00000000     0.00000001  0.88D-13  0.43D-13  6  3    59.41
  15      1.35212951    -1.27559886  -378.97635352    -0.00000000     0.00000000  0.11D-13  0.48D-14  6  1    63.48
  16      1.35212950    -1.27559886  -378.97635352    -0.00000000     0.00000000  0.18D-14  0.90D-15  6  4    67.55
  17      1.35212950    -1.27559886  -378.97635352    -0.00000000    -0.00000000  0.30D-15  0.17D-15  6  5    71.62
  18      1.35212950    -1.27559886  -378.97635352    -0.00000000     0.00000000  0.42D-16  0.21D-16  6  6    75.69
  19      1.35212950    -1.27559886  -378.97635352    -0.00000000    -0.00000000  0.76D-17  0.43D-17  6  2    79.78
  20      1.35212950    -1.27559886  -378.97635352     0.00000000    -0.00000000  0.11D-17  0.60D-18  6  3    83.85
  21      1.35212950    -1.27559886  -378.97635352    -0.00000000     0.00000000  0.18D-18  0.88D-19  6  1    87.91
  22      1.35212950    -1.27559886  -378.97635352     0.00000000    -0.00000000  0.30D-19  0.14D-19  6  4    91.99
  23      1.35212950    -1.27559886  -378.97635352     0.00000000     0.00000000  0.54D-20  0.19D-20  6  5    96.05
  24      1.35212950    -1.27559886  -378.97635352    -0.00000000     0.00000000  0.13D-20  0.47D-21  6  6   100.11

 Norm of t1 vector:      0.14436167      S-energy:     0.00000000      T1 diagnostic:  0.01701319
                                                                       D1 diagnostic:  0.06093140

 Singles amplitudes (print threshold =  0.500E-01):

         I         SYM. A    A   T(IA)

         8         2         1      0.05366026
        17         4         1      0.05568693


 Total CPU time for triples:    147.84 sec


 RESULTS
 =======

  Reference energy                   -377.700754662778
  CCSD singlet pair energy             -0.840623313070
  CCSD triplet pair energy             -0.434975547689
  CCSD correlation energy              -1.275598860757

  Triples (T) contribution             -0.054468461823
  Total correlation energy             -1.330067322580

  CCSD total energy                  -378.976353523535
  CCSD[T] energy                     -379.034236258299
  CCSD-T energy                      -379.029449129771
 !CCSD(T) total energy               -379.030821985359

 Timing summary (sec):

 STEP                 CPU(USER)    SYS     CPU(TOT)    WALL
 Transformation          2.81      0.34      3.15      3.16
 CCSD iterations        97.31      4.52    101.83    102.27
 Triples               147.84      4.22    152.06    152.08

 Program statistics:

 Available memory in ccsd:               999998604
 Min. memory needed in ccsd:               4696764
 Max. memory used in ccsd:                 6451180
 Max. memory used in cckext:               5695119 (24 integral passes)



 **********************************************************************************************************************************
 DATASETS  * FILE   NREC   LENGTH (MB)   RECORD NAMES
              1      20     1022.58       500      610      700      900      950      970     1000      129      960     1100   
                                          VAR    BASINP    GEOM    SYMINP    ZMAT    AOBASIS   BASIS     P2S    ABASIS      S 
                                         1400     1410     1200     1210     1080     1600     1650     1300     1700     1380   
                                           T        V       H0       H01     AOSYM     SMH    MOLCAS    ERIS     OPER     JKOP   

              2       3        0.77       700     1000     2100   
                                         GEOM     BASIS     RHF  

 PROGRAMS   *        TOTAL   CCSD(T)       RHF       INT
 CPU TIMES  *       267.70    247.98      6.54     13.14
 REAL TIME  *       280.72 SEC
 DISK USED  *         2.97 GB      
 GA USED    *         0.00 MB       (max)       0.00 MB       (current)
 **********************************************************************************************************************************

        CCSD(T)         RHF-SCF 
   -379.03082199   -377.70075466
 **********************************************************************************************************************************
 Variable memory released
