
 Primary working directories    : /tmp/943448.220.gen6.q
 Secondary working directories  : /tmp/943448.220.gen6.q
 Wavefunction directory         : /home/vulcan/mel64643/wfu/
 Main file repository           : /tmp/943448.220.gen6.q/

 ARCHNAME  : Linux/x86_64
 FC        : /opt/intel/compilers_and_libraries_2016.1.150/linux/bin/intel64/ifort
 FCVERSION : 16.0.1
 BLASLIB   : -mkl
 id        : ccgc

 Nodes     nprocs
 n082         1
 ga_uses_ma=false, calling ma_init with nominal heap.
 GA-space will be limited to   8.0 MW (determined by -G option)

 Using customized tuning parameters: mindgm=10; mindgv=16; mindgc=4; mindgr=1; noblas=0; mincuda=1000; minvec=7
 default implementation of scratch files=df  

 ***,Optimization of nh3_nitrosmethane
 memory,1000,m
 gthresh,energy=1.0d-12,orbital=1.0d-10,oneint=1.0d-16,twoint=1.0d-16,optgrad=1.0d-6,compress=1.0d-13
 geomtyp=xyz
 
 bohr
 geometry = {
  N   -5.2210829700   -0.1877204656   -0.0000000000
  H   -6.2967034758    0.2296974383   -1.5327553602
  H   -3.7621149500    1.0616672759    0.0000000000
  H   -6.2967034758    0.2296974383    1.5327553602
  H   -0.9266336200   -2.4027900307    0.0000000000
  H    1.8805827842   -3.4367667434   -1.6666900896
  H    1.8805827842   -3.4367667434    1.6666900896
  C    1.1338949405   -2.4726588694    0.0000000000
  N    2.2681058553    0.1044408400   -0.0000000000
  O    0.7041906175    1.7882568688   -0.0000000000
 }
 
 basis=aug-cc-pvdz
 {rhf;maxit,200}
 {ccsd(t);maxit,200}

 Variables initialized (661), CPU time= 0.00 sec
 Commands  initialized (458), CPU time= 0.01 sec, 486 directives.
 Default parameters read. Elapsed time= 0.03 sec

 Checking input...
 Passed
1


                                         ***  PROGRAM SYSTEM MOLPRO  ***
                         Copyright, University College Cardiff Consultants Limited, 2008

                                    Version 2010.1 linked May 16 2016 07:17:05


 **********************************************************************************************************************************
 LABEL *   Optimization of nh3_nitrosmethane                                             
 Linux-4.4.3/n082(x86_64) 64 bit mpp version                                             DATE: 26-Oct-23          TIME: 12:36:33  
 **********************************************************************************************************************************

 SHA1:             9e8077add272b0f3cad6f7df79ec5211205f459d
 **********************************************************************************************************************************

 THRESHOLDS:

 ZERO    =  1.00D-12  ONEINT  =  1.00D-16  TWOINT  =  1.00D-16  PREFAC  =  1.00D-14  LOCALI  =  1.00D-09  EORDER  =  1.00D-04
 ENERGY  =  1.00D-12  ETEST   =  0.00D+00  EDENS   =  0.00D+00  THRDEDEF=  1.00D-06  GRADIENT=  1.00D-02  STEP    =  1.00D-03
 ORBITAL =  1.00D-10  CIVEC   =  1.00D-05  COEFF   =  1.00D-04  PRINTCI =  5.00D-02  PUNCHCI =  9.90D+01  OPTGRAD =  1.00D-06
 OPTENERG=  1.00D-06  OPTSTEP =  3.00D-04  THRGRAD =  1.00D-10  COMPRESS=  1.00D-13  VARMIN  =  1.00D-07  VARMAX  =  1.00D-03
 THRDOUB =  0.00D+00  THRDIV  =  1.00D-05  THRRED  =  1.00D-07  THRPSP  =  1.00D+00  THRDC   =  1.00D-10  THRCS   =  1.00D-10
 THRNRM  =  1.00D-08  THREQ   =  0.00D+00  THRDE   =  1.00D+00  THRREF  =  1.00D-05  SPARFAC =  1.00D+00  THRDLP  =  1.00D-07
 THRDIA  =  1.00D-10  THRDLS  =  1.00D-07  THRGPS  =  0.00D+00  THRKEX  =  0.00D+00  THRDIS  =  2.00D-01  THRVAR  =  1.00D-10
 THRLOC  =  1.00D-06  THRGAP  =  1.00D-06  THRLOCT = -1.00D+00  THRGAPT = -1.00D+00  THRORB  =  1.00D-06  THRMLTP =  0.00D+00
 THRCPQCI=  1.00D-10  KEXTA   =  0.00D+00  THRCOARS=  0.00D+00  SYMTOL  =  1.00D-06  GRADTOL =  1.00D-06  THROVL  =  1.00D-08
 THRORTH =  1.00D-08  GRID    =  1.00D-06  GRIDMAX =  1.00D-03  DTMAX   =  0.00D+00

 SETTING GEOMTYP        =    XYZ
 ZUNIT=BOHR
 

 Variable memory set to 1000000000 words,  buffer space   230000 words

 SETTING BASIS          =    AUG-CC-PVDZ


 Recomputing integrals since basis changed


 Using spherical harmonics

 Library entry N      S aug-cc-pVDZ          selected for orbital group  1
 Library entry N      P aug-cc-pVDZ          selected for orbital group  1
 Library entry N      D aug-cc-pVDZ          selected for orbital group  1
 Library entry H      S aug-cc-pVDZ          selected for orbital group  2
 Library entry H      P aug-cc-pVDZ          selected for orbital group  2
 Library entry C      S aug-cc-pVDZ          selected for orbital group  3
 Library entry C      P aug-cc-pVDZ          selected for orbital group  3
 Library entry C      D aug-cc-pVDZ          selected for orbital group  3
 Library entry O      S aug-cc-pVDZ          selected for orbital group  5
 Library entry O      P aug-cc-pVDZ          selected for orbital group  5
 Library entry O      D aug-cc-pVDZ          selected for orbital group  5

1PROGRAM * SEWARD (Integral evaluation for generally contracted gaussian basis sets)     Author: Roland Lindh, 1990

 Geometry written to block  1 of record 700


 Point group  Cs  



 ATOMIC COORDINATES

 NR  ATOM    CHARGE       X              Y              Z

   1  N       7.00   -5.221082970   -0.187720466    0.000000000
   2  H       1.00   -6.296703476    0.229697438   -1.532755360
   3  H       1.00   -6.296703476    0.229697438    1.532755360
   4  H       1.00   -3.762114950    1.061667276    0.000000000
   5  H       1.00   -0.926633620   -2.402790031    0.000000000
   6  H       1.00    1.880582784   -3.436766743   -1.666690090
   7  H       1.00    1.880582784   -3.436766743    1.666690090
   8  C       6.00    1.133894941   -2.472658869    0.000000000
   9  N       7.00    2.268105855    0.104440840    0.000000000
  10  O       8.00    0.704190618    1.788256869    0.000000000

 Bond lengths in Bohr (Angstrom)

 1-2  1.918472354  1-3  1.918472354  1-4  1.920822067  5-8  2.061712784  6-8  2.065164057
     ( 1.015211846)     ( 1.015211846)     ( 1.016455260)     ( 1.091011417)     ( 1.092837752)

  7- 8  2.065164057   8- 9  2.815648648   9-10  2.298057286
       ( 1.092837752)       ( 1.489977093)       ( 1.216079541)

 Bond angles

  2-1-3  106.05909562   2-1-4  106.51897453   3-1-4  106.51897453   5-8-6  112.15889787

  5-8-7  112.15889787   5-8-9  111.81278754   6-8-7  107.61735050   6-8-9  106.35838669

  7- 8- 9  106.35838669   8- 9-10  113.35946296

 NUCLEAR CHARGE:                   34
 NUMBER OF PRIMITIVE AOS:         214
 NUMBER OF SYMMETRY AOS:          206
 NUMBER OF CONTRACTIONS:          146   (  96A'  +  50A"  )
 NUMBER OF CORE ORBITALS:           4   (   4A'  +   0A"  )
 NUMBER OF VALENCE ORBITALS:       22   (  16A'  +   6A"  )


 NUCLEAR REPULSION ENERGY  117.29458263


 Eigenvalues of metric

         1 0.325E-03 0.518E-03 0.622E-03 0.107E-02 0.118E-02 0.127E-02 0.192E-02 0.209E-02
         2 0.674E-03 0.185E-02 0.487E-02 0.943E-02 0.132E-01 0.180E-01 0.210E-01 0.242E-01


 Contracted 2-electron integrals neglected if value below      1.0D-16
 AO integral compression algorithm  1   Integral accuracy      1.0D-16

     261.358 MB (compressed) written to integral file ( 94.6%)

     Node minimum: 261.358 MB, node maximum: 261.358 MB


 NUMBER OF SORTED TWO-ELECTRON INTEGRALS:   29464146.     BUFFER LENGTH:  32768
 NUMBER OF SEGMENTS:   2  SEGMENT LENGTH:   15998994      RECORD LENGTH: 524288

 Memory used in sort:      16.56 MW

 SORT1 READ    34536484. AND WROTE    29309098. INTEGRALS IN     85 RECORDS. CPU TIME:     0.34 SEC, REAL TIME:     0.52 SEC
 SORT2 READ    29309098. AND WROTE    29464146. INTEGRALS IN    997 RECORDS. CPU TIME:     0.27 SEC, REAL TIME:     0.39 SEC

 FILE SIZES:   FILE 1:   230.8 MBYTE,  FILE 4:   356.5 MBYTE,   TOTAL:    587.4 MBYTE

 OPERATOR DM      FOR CENTER  0  COORDINATES:    0.000000    0.000000    0.000000


 **********************************************************************************************************************************
 DATASETS  * FILE   NREC   LENGTH (MB)   RECORD NAMES
              1      19      230.97       500      610      700      900      950      970     1000      129      960     1100   
                                          VAR    BASINP    GEOM    SYMINP    ZMAT    AOBASIS   BASIS     P2S    ABASIS      S 
                                         1400     1410     1200     1210     1080     1600     1650     1300     1700   
                                           T        V       H0       H01     AOSYM     SMH    MOLCAS    ERIS     OPER   

 PROGRAMS   *        TOTAL       INT
 CPU TIMES  *         2.06      2.02
 REAL TIME  *         2.66 SEC
 DISK USED  *       849.54 MB      
 GA USED    *         0.00 MB       (max)       0.00 MB       (current)
 **********************************************************************************************************************************

1PROGRAM * RHF-SCF (CLOSED SHELL)       Authors: W. Meyer, H.-J. Werner


 NUMBER OF ELECTRONS:      17+   17-
 CONVERGENCE THRESHOLDS:    1.00E-10 (Density)    1.00E-13 (Energy)
 MAX. NUMBER OF ITERATIONS:      200
 INTERPOLATION TYPE:            DIIS
 INTERPOLATION STEPS:              2 (START)      1 (STEP)
 LEVEL SHIFTS:                  0.00 (CLOSED)  0.00 (OPEN) 



 Orbital guess generated from atomic densities. Full valence occupancy:   20   6

 Molecular orbital dump at record        2100.2

 Initial alpha occupancy:  14   3
 Initial beta  occupancy:  14   3
 Wave function symmetry:    1

 ITERATION    DDIFF          GRAD             ENERGY        2-EL.EN.            DIPOLE MOMENTS         DIIS
    1      0.000D+00      0.000D+00      -224.96574441    392.890740    0.06908   -0.56513    0.00000    0
    2      0.000D+00      0.800D-02      -225.02663241    392.529964   -0.58260   -0.38196    0.00000    1
    3      0.149D-01      0.560D-02      -225.06071740    393.077589   -0.23681   -0.55851    0.00000    2
    4      0.648D-02      0.112D-02      -225.06298306    392.912062   -0.31500   -0.46155    0.00000    3
    5      0.162D-02      0.444D-03      -225.06341119    392.924382   -0.31265   -0.49193    0.00000    4
    6      0.730D-03      0.108D-03      -225.06345458    392.952088   -0.31813   -0.48920    0.00000    5
    7      0.244D-03      0.412D-04      -225.06346075    392.935865   -0.31978   -0.48936    0.00000    6
    8      0.102D-03      0.166D-04      -225.06346175    392.942369   -0.32079   -0.48929    0.00000    7
    9      0.384D-04      0.712D-05      -225.06346197    392.941236   -0.32107   -0.48900    0.00000    8
   10      0.213D-04      0.220D-05      -225.06346199    392.940946   -0.32116   -0.48883    0.00000    8
   11      0.649D-05      0.748D-06      -225.06346199    392.941051   -0.32117   -0.48874    0.00000    8
   12      0.223D-05      0.228D-06      -225.06346199    392.941014   -0.32117   -0.48871    0.00000    8
   13      0.798D-06      0.710D-07      -225.06346199    392.941008   -0.32118   -0.48871    0.00000    8
   14      0.196D-06      0.361D-07      -225.06346199    392.941010   -0.32118   -0.48870    0.00000    9
   15      0.888D-07      0.345D-08      -225.06346199    392.941010   -0.32118   -0.48870    0.00000    8
   16      0.849D-08      0.967D-09      -225.06346199    392.941010   -0.32118   -0.48870    0.00000    7
   17      0.292D-08      0.205D-09      -225.06346199    392.941010   -0.32118   -0.48870    0.00000    7
   18      0.534D-09      0.729D-10      -225.06346199    392.941010   -0.32118   -0.48870    0.00000    7
   19      0.176D-09      0.229D-10      -225.06346199    392.941010   -0.32118   -0.48870    0.00000    7
   20      0.600D-10      0.666D-11      -225.06346199    392.941010   -0.32118   -0.48870    0.00000    6
   21      0.202D-10      0.191D-11      -225.06346199    392.941010   -0.32118   -0.48870    0.00000    7
   22      0.676D-11      0.504D-12      -225.06346199    392.941010   -0.32118   -0.48870    0.00000    7
   23      0.232D-11      0.331D-12      -225.06346199    392.941010   -0.32118   -0.48870    0.00000    8
   24      0.144D-11      0.963D-13      -225.06346199    392.941010   -0.32118   -0.48870    0.00000    0

 Final occupancy:  14   3

 !RHF STATE 1.1 Energy               -225.063461990517
 Nuclear energy                       117.29458263
 One-electron energy                 -538.82854974
 Two-electron energy                  196.47050512
 Virial quotient                       -1.00221607
 !RHF STATE 1.1 Dipole moment          -0.32117603    -0.48870438     0.00000000
 Dipole moment /Debye                  -0.81629458    -1.24208127     0.00000000

 Orbital energies:

         1.1          2.1          3.1          4.1          5.1          6.1          7.1          8.1          9.1         10.1
    -20.640704   -15.715220   -15.548764   -11.271085    -1.514864    -1.140730    -1.074342    -0.862779    -0.690885    -0.675517

        11.1         12.1         13.1         14.1         15.1         16.1
     -0.623522    -0.556122    -0.428985    -0.405721     0.034993     0.046233

         1.2          2.2          3.2          4.2          5.2
     -0.635534    -0.624093    -0.534905     0.052304     0.067282


 **********************************************************************************************************************************
 DATASETS  * FILE   NREC   LENGTH (MB)   RECORD NAMES
              1      19      230.97       500      610      700      900      950      970     1000      129      960     1100   
                                          VAR    BASINP    GEOM    SYMINP    ZMAT    AOBASIS   BASIS     P2S    ABASIS      S 
                                         1400     1410     1200     1210     1080     1600     1650     1300     1700   
                                           T        V       H0       H01     AOSYM     SMH    MOLCAS    ERIS     OPER   

              2       3        0.67       700     1000     2100   
                                         GEOM     BASIS     RHF  

 PROGRAMS   *        TOTAL       RHF       INT
 CPU TIMES  *         5.14      3.08      2.02
 REAL TIME  *         6.35 SEC
 DISK USED  *       849.54 MB      
 GA USED    *         0.00 MB       (max)       0.00 MB       (current)
 **********************************************************************************************************************************


1PROGRAM * CCSD (Closed-shell coupled cluster)     Authors: C. Hampel, H.-J. Werner, 1991, M. Deegan, P.J. Knowles, 1992


 Convergence thresholds:  THRVAR = 1.00D-08  THRDEN = 1.00D-12

 CCSD(T)     terms to be evaluated (factor= 1.000)


 Number of core orbitals:           4 (   4   0 )
 Number of closed-shell orbitals:  13 (  10   3 )
 Number of external orbitals:     129 (  82  47 )

 Molecular orbitals read from record     2100.2  Type=RHF/CANONICAL (state 1.1)

 Number of N-1 electron functions:              13
 Number of N-2 electron functions:              91
 Number of singly external CSFs:               961
 Number of doubly external CSFs:            718927
 Total number of CSFs:                      719889

 Length of J-op  integral file:               0.00 MB
 Length of K-op  integral file:               0.85 MB
 Length of 3-ext integral record:             0.00 MB

 Memory could be reduced to 18.91 Mwords without degradation in triples

 Integral transformation finished. Total CPU:   0.67 sec, npass=  1  Memory used:   7.13 MW

 Reference energy:                   -225.06346199

 MP2 singlet pair energy:              -0.45146514
 MP2 triplet pair energy:              -0.26574219
 MP2 correlation energy:               -0.71720733
 MP2 total energy:                   -225.78066932

 SCS-MP2 correlation energy:           -0.70710887   (PS=  1.200000  PT=  0.333333)
 SCS-MP2 total energy:               -225.77057086

 ITER.      SQ.NORM     CORR.ENERGY   TOTAL ENERGY   ENERGY CHANGE        DEN1      VAR(S)    VAR(P)  DIIS     TIME
   1      1.24243401    -0.75097638  -225.81443837    -0.03376904    -0.00981874  0.53D-02  0.49D-02  1  1     1.81
   2      1.26434014    -0.75403555  -225.81749754    -0.00305917    -0.02119177  0.17D-03  0.87D-03  2  2     3.00
   3      1.27448347    -0.75474864  -225.81821063    -0.00071309    -0.00466526  0.13D-03  0.62D-04  3  3     4.18
   4      1.27868685    -0.75471265  -225.81817464     0.00003600    -0.00139006  0.11D-04  0.11D-04  4  4     5.36
   5      1.28037652    -0.75473074  -225.81819273    -0.00001809    -0.00036854  0.20D-05  0.17D-05  5  5     6.55
   6      1.28084662    -0.75470032  -225.81816231     0.00003042    -0.00005623  0.18D-06  0.34D-06  6  6     7.74
   7      1.28095262    -0.75469678  -225.81815877     0.00000354    -0.00000445  0.37D-07  0.92D-07  6  2     8.92
   8      1.28097997    -0.75469760  -225.81815959    -0.00000081    -0.00000066  0.52D-08  0.22D-07  6  1    10.10
   9      1.28098629    -0.75469693  -225.81815892     0.00000066     0.00000234  0.20D-08  0.34D-08  6  3    11.29
  10      1.28098094    -0.75469789  -225.81815988    -0.00000096     0.00000152  0.47D-09  0.64D-09  6  5    12.49
  11      1.28098033    -0.75469808  -225.81816007    -0.00000019     0.00000058  0.14D-09  0.69D-10  6  4    13.67
  12      1.28097936    -0.75469812  -225.81816011    -0.00000004     0.00000018  0.40D-10  0.14D-10  6  6    14.85
  13      1.28097869    -0.75469817  -225.81816016    -0.00000005     0.00000007  0.89D-11  0.35D-11  6  2    16.04
  14      1.28097818    -0.75469818  -225.81816017    -0.00000001     0.00000007  0.23D-11  0.77D-12  6  1    17.23
  15      1.28097788    -0.75469819  -225.81816018    -0.00000001     0.00000005  0.29D-12  0.20D-12  6  5    18.42
  16      1.28097772    -0.75469820  -225.81816019    -0.00000001     0.00000003  0.32D-13  0.30D-13  6  3    19.61
  17      1.28097768    -0.75469820  -225.81816019    -0.00000000     0.00000001  0.62D-14  0.69D-14  6  4    20.80
  18      1.28097766    -0.75469820  -225.81816019    -0.00000000     0.00000000  0.13D-14  0.21D-14  6  6    21.98
  19      1.28097766    -0.75469820  -225.81816019     0.00000000     0.00000000  0.12D-15  0.34D-15  6  2    23.17
  20      1.28097765    -0.75469820  -225.81816019     0.00000000     0.00000000  0.29D-16  0.58D-16  6  1    24.35
  21      1.28097765    -0.75469820  -225.81816019    -0.00000000     0.00000000  0.11D-16  0.11D-16  6  5    25.54
  22      1.28097765    -0.75469820  -225.81816019     0.00000000    -0.00000000  0.26D-17  0.27D-17  6  3    26.72
  23      1.28097765    -0.75469820  -225.81816019     0.00000000    -0.00000000  0.13D-17  0.44D-18  6  2    27.90
  24      1.28097765    -0.75469820  -225.81816019     0.00000000    -0.00000000  0.29D-18  0.74D-19  6  4    29.09
  25      1.28097765    -0.75469820  -225.81816019     0.00000000    -0.00000000  0.60D-19  0.20D-19  6  6    30.26
  26      1.28097765    -0.75469820  -225.81816019     0.00000000    -0.00000000  0.15D-19  0.42D-20  6  1    31.46
  27      1.28097765    -0.75469820  -225.81816019     0.00000000    -0.00000000  0.25D-20  0.15D-20  6  5    32.65

 Norm of t1 vector:      0.11205094      S-energy:    -0.00000000      T1 diagnostic:  0.01553867
                                                                       D1 diagnostic:  0.04951755

 Doubles amplitudes (print threshold =  0.500E-01):

         I         J         SYM. A    SYM. B    A         B      T(IJ, AB)

        11        11         2         2         3         3     -0.05250008
        13        11         2         2         3         3     -0.05312530
        13        13         2         2         3         3     -0.07503620


 Total CPU time for triples:     23.13 sec


 RESULTS
 =======

  Reference energy                   -225.063461990518
  CCSD singlet pair energy             -0.519605597589
  CCSD triplet pair energy             -0.235092601534
  CCSD correlation energy              -0.754698199123

  Triples (T) contribution             -0.026903851060
  Total correlation energy             -0.781602050183

  CCSD total energy                  -225.818160189641
  CCSD[T] energy                     -225.846700036797
  CCSD-T energy                      -225.844551015821
 !CCSD(T) total energy               -225.845064040701

 Timing summary (sec):

 STEP                 CPU(USER)    SYS     CPU(TOT)    WALL
 Transformation          0.69      0.11      0.80      0.79
 CCSD iterations        31.96      1.47     33.43     33.79
 Triples                23.13      0.64     23.77     23.78

 Program statistics:

 Available memory in ccsd:               999999224
 Min. memory needed in ccsd:               1936686
 Max. memory used in ccsd:                 2572354
 Max. memory used in cckext:               2602483 (27 integral passes)



 **********************************************************************************************************************************
 DATASETS  * FILE   NREC   LENGTH (MB)   RECORD NAMES
              1      20      300.29       500      610      700      900      950      970     1000      129      960     1100   
                                          VAR    BASINP    GEOM    SYMINP    ZMAT    AOBASIS   BASIS     P2S    ABASIS      S 
                                         1400     1410     1200     1210     1080     1600     1650     1300     1700     1380   
                                           T        V       H0       H01     AOSYM     SMH    MOLCAS    ERIS     OPER     JKOP   

              2       3        0.67       700     1000     2100   
                                         GEOM     BASIS     RHF  

 PROGRAMS   *        TOTAL   CCSD(T)       RHF       INT
 CPU TIMES  *        60.94     55.79      3.08      2.02
 REAL TIME  *        64.76 SEC
 DISK USED  *       849.54 MB      
 GA USED    *         0.00 MB       (max)       0.00 MB       (current)
 **********************************************************************************************************************************

        CCSD(T)         RHF-SCF 
   -225.84506404   -225.06346199
 **********************************************************************************************************************************
 Variable memory released
