
 Primary working directories    : /tmp/1049502.1022.gen6.q
 Secondary working directories  : /tmp/1049502.1022.gen6.q
 Wavefunction directory         : /home/vulcan/jj04645/wfu/
 Main file repository           : /tmp/1049502.1022.gen6.q/

 ARCHNAME  : Linux/x86_64
 FC        : /opt/intel/compilers_and_libraries_2016.1.150/linux/bin/intel64/ifort
 FCVERSION : 16.0.1
 BLASLIB   : -mkl
 id        : ccgc

 Nodes     nprocs
 n080         1
 ga_uses_ma=false, calling ma_init with nominal heap.
 GA-space will be limited to   8.0 MW (determined by -G option)

 Using customized tuning parameters: mindgm=10; mindgv=16; mindgc=4; mindgr=1; noblas=0; mincuda=1000; minvec=7
 default implementation of scratch files=df  

 ***,Optimization of neopentane
 memory,1000,m
 gthresh,energy=1.0d-12,orbital=1.0d-10,oneint=1.0d-16,twoint=1.0d-16,optgrad=1.0d-6,compress=1.0d-13
 geomtyp=xyz
 
 bohr
 geometry = {
  C    0.0000003419    0.0000003420    0.0000004824
  C    2.3624376339    0.0073567411   -1.6768444013
  C   -0.0063251150   -2.3627845163    1.6763597940
  C    0.0074818811    2.3632505904    1.6756988830
  C   -2.3635930322   -0.0078214473   -1.6752123459
  H    2.4000200894    1.6818921604   -2.8883223282
  H   -1.6805997824   -2.4011024366    2.8881750251
  H    1.6808787747    2.4001940857    2.8887685816
  H   -2.4037225122   -1.6844022109   -2.8837762237
  H    4.0837091371    0.0096140796   -0.5257540741
  H   -0.0083204758   -4.0838193369    0.5249151408
  H    0.0120963480    4.0780814441    0.5277052488
  H   -4.0782007179   -0.0063347933   -0.5268771124
  H    2.4072564948   -1.6609663855   -2.8906173410
  H    1.6622611235   -2.4073695292    2.8897796205
  H   -1.6676946427    2.4100485741    2.8919978538
  H   -2.4076855462    1.6641626386   -2.8959968033
 }
 
 basis=VDZ
 {rhf;maxit,200}
 {ccsd(t);maxit,200}

 Variables initialized (661), CPU time= 0.00 sec
 Commands  initialized (458), CPU time= 0.00 sec, 486 directives.
 Default parameters read. Elapsed time= 0.04 sec

 Checking input...
 Passed
1


                                         ***  PROGRAM SYSTEM MOLPRO  ***
                         Copyright, University College Cardiff Consultants Limited, 2008

                                    Version 2010.1 linked May 16 2016 07:17:05


 **********************************************************************************************************************************
 LABEL *   Optimization of neopentane                                                    
 Linux-4.4.3/n080(x86_64) 64 bit mpp version                                             DATE: 30-Mar-24          TIME: 23:12:37  
 **********************************************************************************************************************************

 SHA1:             9e8077add272b0f3cad6f7df79ec5211205f459d
 **********************************************************************************************************************************

 THRESHOLDS:

 ZERO    =  1.00D-12  ONEINT  =  1.00D-16  TWOINT  =  1.00D-16  PREFAC  =  1.00D-14  LOCALI  =  1.00D-09  EORDER  =  1.00D-04
 ENERGY  =  1.00D-12  ETEST   =  0.00D+00  EDENS   =  0.00D+00  THRDEDEF=  1.00D-06  GRADIENT=  1.00D-02  STEP    =  1.00D-03
 ORBITAL =  1.00D-10  CIVEC   =  1.00D-05  COEFF   =  1.00D-04  PRINTCI =  5.00D-02  PUNCHCI =  9.90D+01  OPTGRAD =  1.00D-06
 OPTENERG=  1.00D-06  OPTSTEP =  3.00D-04  THRGRAD =  1.00D-10  COMPRESS=  1.00D-13  VARMIN  =  1.00D-07  VARMAX  =  1.00D-03
 THRDOUB =  0.00D+00  THRDIV  =  1.00D-05  THRRED  =  1.00D-07  THRPSP  =  1.00D+00  THRDC   =  1.00D-10  THRCS   =  1.00D-10
 THRNRM  =  1.00D-08  THREQ   =  0.00D+00  THRDE   =  1.00D+00  THRREF  =  1.00D-05  SPARFAC =  1.00D+00  THRDLP  =  1.00D-07
 THRDIA  =  1.00D-10  THRDLS  =  1.00D-07  THRGPS  =  0.00D+00  THRKEX  =  0.00D+00  THRDIS  =  2.00D-01  THRVAR  =  1.00D-10
 THRLOC  =  1.00D-06  THRGAP  =  1.00D-06  THRLOCT = -1.00D+00  THRGAPT = -1.00D+00  THRORB  =  1.00D-06  THRMLTP =  0.00D+00
 THRCPQCI=  1.00D-10  KEXTA   =  0.00D+00  THRCOARS=  0.00D+00  SYMTOL  =  1.00D-06  GRADTOL =  1.00D-06  THROVL  =  1.00D-08
 THRORTH =  1.00D-08  GRID    =  1.00D-06  GRIDMAX =  1.00D-03  DTMAX   =  0.00D+00

 SETTING GEOMTYP        =    XYZ
 ZUNIT=BOHR
 

 Variable memory set to 1000000000 words,  buffer space   230000 words

 SETTING BASIS          =    VDZ


 Recomputing integrals since basis changed


 Using spherical harmonics

 Library entry C      S cc-pVDZ              selected for orbital group  1
 Library entry C      P cc-pVDZ              selected for orbital group  1
 Library entry C      D cc-pVDZ              selected for orbital group  1
 Library entry H      S cc-pVDZ              selected for orbital group  2
 Library entry H      P cc-pVDZ              selected for orbital group  2

1PROGRAM * SEWARD (Integral evaluation for generally contracted gaussian basis sets)     Author: Roland Lindh, 1990

 Geometry written to block  1 of record 700


 Point group  C1  



 ATOMIC COORDINATES

 NR  ATOM    CHARGE       X              Y              Z

   1  C       6.00    0.000000342    0.000000342    0.000000482
   2  C       6.00    2.362437634    0.007356741   -1.676844401
   3  C       6.00   -0.006325115   -2.362784516    1.676359794
   4  C       6.00    0.007481881    2.363250590    1.675698883
   5  C       6.00   -2.363593032   -0.007821447   -1.675212346
   6  H       1.00    2.400020089    1.681892160   -2.888322328
   7  H       1.00   -1.680599782   -2.401102437    2.888175025
   8  H       1.00    1.680878775    2.400194086    2.888768582
   9  H       1.00   -2.403722512   -1.684402211   -2.883776224
  10  H       1.00    4.083709137    0.009614080   -0.525754074
  11  H       1.00   -0.008320476   -4.083819337    0.524915141
  12  H       1.00    0.012096348    4.078081444    0.527705249
  13  H       1.00   -4.078200718   -0.006334793   -0.526877112
  14  H       1.00    2.407256495   -1.660966386   -2.890617341
  15  H       1.00    1.662261123   -2.407369529    2.889779621
  16  H       1.00   -1.667694643    2.410048574    2.891997854
  17  H       1.00   -2.407685546    1.664162639   -2.895996803

 Bond lengths in Bohr (Angstrom)

 1-2  2.897062795  1-3  2.897062795  1-4  2.897062795  1-5  2.897062795  2-6  2.067162325
     ( 1.533059604)     ( 1.533059604)     ( 1.533059604)     ( 1.533059604)     ( 1.093895190)

  2-10  2.070697859   2-14  2.063626791   3- 7  2.067162325   3-11  2.070697859   3-15  2.063626791
       ( 1.095766114)       ( 1.092024266)       ( 1.093895190)       ( 1.095766114)       ( 1.092024266)

  4- 8  2.067162325   4-12  2.063626791   4-16  2.070697859   5- 9  2.067162325   5-13  2.063626791
       ( 1.093895190)       ( 1.092024266)       ( 1.095766114)       ( 1.093895190)       ( 1.092024266)

  5-17  2.070697859
       ( 1.095766114)

 Bond angles

  1- 2- 6  110.86076914   1- 2-10  110.86076878   1- 2-14  110.86076839   1- 3- 7  110.86076905

  1- 3-11  110.86076879   1- 3-15  110.86076846   1- 4- 8  110.86076866   1- 4-12  110.86076866

  1- 4-16  110.86076898   1- 5- 9  110.86076952   1- 5-13  110.86076820   1- 5-17  110.86076859

  2-1-3  109.80218724   2-1-4  109.30599124   2-1-5  109.30599123   3-1-4  109.30599123

  3- 1- 5  109.30599124   4- 1- 5  109.80218725   6- 2-10  108.04663946   6- 2-14  108.04663873

  7- 3-11  108.04663933   7- 3-15  108.04663871   8- 4-12  108.04663835   8- 4-16  108.04663895

  9- 5-13  108.04663908   9- 5-17  108.04663985  10- 2-14  108.04663804  11- 3-15  108.04663820

 12- 4-16  108.04663894  13- 5-17  108.04663730

 NUCLEAR CHARGE:                   42
 NUMBER OF PRIMITIVE AOS:         219
 NUMBER OF SYMMETRY AOS:          214
 NUMBER OF CONTRACTIONS:          130   ( 130A   )
 NUMBER OF CORE ORBITALS:           5   (   5A   )
 NUMBER OF VALENCE ORBITALS:       32   (  32A   )


 NUCLEAR REPULSION ENERGY  198.59940148


 Eigenvalues of metric

         1 0.280E-02 0.503E-02 0.504E-02 0.504E-02 0.171E-01 0.189E-01 0.189E-01 0.189E-01


 Contracted 2-electron integrals neglected if value below      1.0D-16
 AO integral compression algorithm  1   Integral accuracy      1.0D-16

     303.563 MB (compressed) written to integral file ( 97.4%)

     Node minimum: 303.563 MB, node maximum: 303.563 MB


 NUMBER OF SORTED TWO-ELECTRON INTEGRALS:   36256870.     BUFFER LENGTH:  32768
 NUMBER OF SEGMENTS:   3  SEGMENT LENGTH:   15998004      RECORD LENGTH: 524288

 Memory used in sort:      16.56 MW

 SORT1 READ    38983374. AND WROTE    36210147. INTEGRALS IN    105 RECORDS. CPU TIME:     0.36 SEC, REAL TIME:     0.56 SEC
 SORT2 READ    36210147. AND WROTE    36256870. INTEGRALS IN   1158 RECORDS. CPU TIME:     0.28 SEC, REAL TIME:     0.42 SEC

 FILE SIZES:   FILE 1:   284.0 MBYTE,  FILE 4:   440.4 MBYTE,   TOTAL:    724.4 MBYTE

 OPERATOR DM      FOR CENTER  0  COORDINATES:    0.000000    0.000000    0.000000


 **********************************************************************************************************************************
 DATASETS  * FILE   NREC   LENGTH (MB)   RECORD NAMES
              1      19      284.18       500      610      700      900      950      970     1000      129      960     1100   
                                          VAR    BASINP    GEOM    SYMINP    ZMAT    AOBASIS   BASIS     P2S    ABASIS      S 
                                         1400     1410     1200     1210     1080     1600     1650     1300     1700   
                                           T        V       H0       H01     AOSYM     SMH    MOLCAS    ERIS     OPER   

 PROGRAMS   *        TOTAL       INT
 CPU TIMES  *         3.48      3.44
 REAL TIME  *         4.18 SEC
 DISK USED  *         1.03 GB      
 GA USED    *         0.01 MB       (max)       0.00 MB       (current)
 **********************************************************************************************************************************

1PROGRAM * RHF-SCF (CLOSED SHELL)       Authors: W. Meyer, H.-J. Werner


 NUMBER OF ELECTRONS:      21+   21-    SPACE SYMMETRY=1    SPIN SYMMETRY: Singlet 
 CONVERGENCE THRESHOLDS:    1.00E-10 (Density)    1.00E-13 (Energy)
 MAX. NUMBER OF ITERATIONS:      200
 INTERPOLATION TYPE:            DIIS
 INTERPOLATION STEPS:              2 (START)      1 (STEP)
 LEVEL SHIFTS:                  0.00 (CLOSED)  0.00 (OPEN) 



 Orbital guess generated from atomic densities. Full valence occupancy:   37

 Molecular orbital dump at record        2100.2

 ITERATION    DDIFF          GRAD             ENERGY        2-EL.EN.            DIPOLE MOMENTS         DIIS
    1      0.000D+00      0.000D+00      -196.27087457    527.677663   -0.00000   -0.00000    0.00000    0
    2      0.000D+00      0.467D-02      -196.33873366    521.944208    0.00000    0.00000    0.00000    1
    3      0.930D-02      0.177D-02      -196.34652412    524.514307    0.00000    0.00000    0.00000    2
    4      0.346D-02      0.571D-03      -196.34767088    523.812970    0.00000    0.00000    0.00000    3
    5      0.114D-02      0.118D-03      -196.34770547    523.879482    0.00000    0.00000    0.00000    4
    6      0.198D-03      0.238D-04      -196.34770714    523.875723    0.00000    0.00000    0.00000    5
    7      0.659D-04      0.226D-05      -196.34770717    523.875489    0.00000    0.00000    0.00000    6
    8      0.684D-05      0.488D-06      -196.34770717    523.875448    0.00000    0.00000    0.00000    6
    9      0.138D-05      0.703D-07      -196.34770717    523.875439    0.00000    0.00000    0.00000    5
   10      0.244D-06      0.934D-08      -196.34770717    523.875449    0.00000    0.00000    0.00000    5
   11      0.315D-07      0.278D-08      -196.34770717    523.875444    0.00000    0.00000    0.00000    5
   12      0.584D-08      0.105D-08      -196.34770717    523.875445    0.00000    0.00000    0.00000    6
   13      0.216D-08      0.847D-10      -196.34770717    523.875445    0.00000    0.00000    0.00000    6
   14      0.205D-09      0.261D-10      -196.34770717    523.875445    0.00000    0.00000    0.00000    6
   15      0.764D-10      0.746D-11      -196.34770717    523.875445    0.00000    0.00000    0.00000    6
   16      0.262D-10      0.131D-11      -196.34770717    523.875445    0.00000    0.00000    0.00000    6
   17      0.429D-11      0.269D-12      -196.34770717    523.875445    0.00000    0.00000    0.00000    6
   18      0.797D-12      0.573D-13      -196.34770717    523.875445    0.00000    0.00000    0.00000    6
   19      0.248D-12      0.261D-13      -196.34770717    523.875445    0.00000    0.00000    0.00000    0

 Final occupancy:  21

 !RHF STATE 1.1 Energy               -196.347707168593
 Nuclear energy                       198.59940148
 One-electron energy                 -656.88483130
 Two-electron energy                  261.93772265
 Virial quotient                       -1.00118090
 !RHF STATE 1.1 Dipole moment           0.00000045     0.00000050     0.00000197
 Dipole moment /Debye                   0.00000115     0.00000128     0.00000500

 Orbital energies:

         1.1          2.1          3.1          4.1          5.1          6.1          7.1          8.1          9.1         10.1
    -11.230714   -11.214104   -11.214104   -11.214104   -11.214056    -1.103749    -0.927878    -0.927878    -0.926931    -0.728615

        11.1         12.1         13.1         14.1         15.1         16.1         17.1         18.1         19.1         20.1
     -0.609084    -0.609084    -0.609063    -0.550923    -0.550055    -0.507799    -0.507799    -0.507762    -0.450739    -0.450739

        21.1         22.1         23.1
     -0.449514     0.170676     0.231104


 **********************************************************************************************************************************
 DATASETS  * FILE   NREC   LENGTH (MB)   RECORD NAMES
              1      19      284.18       500      610      700      900      950      970     1000      129      960     1100   
                                          VAR    BASINP    GEOM    SYMINP    ZMAT    AOBASIS   BASIS     P2S    ABASIS      S 
                                         1400     1410     1200     1210     1080     1600     1650     1300     1700   
                                           T        V       H0       H01     AOSYM     SMH    MOLCAS    ERIS     OPER   

              2       3        0.89       700     1000     2100   
                                         GEOM     BASIS     RHF  

 PROGRAMS   *        TOTAL       RHF       INT
 CPU TIMES  *         7.89      4.41      3.44
 REAL TIME  *         9.18 SEC
 DISK USED  *         1.03 GB      
 GA USED    *         0.01 MB       (max)       0.00 MB       (current)
 **********************************************************************************************************************************


1PROGRAM * CCSD (Closed-shell coupled cluster)     Authors: C. Hampel, H.-J. Werner, 1991, M. Deegan, P.J. Knowles, 1992


 Convergence thresholds:  THRVAR = 1.00D-08  THRDEN = 1.00D-12

 CCSD(T)     terms to be evaluated (factor= 1.000)


 Number of core orbitals:           5 (   5 )
 Number of closed-shell orbitals:  16 (  16 )
 Number of external orbitals:     109 ( 109 )

 Molecular orbitals read from record     2100.2  Type=RHF/CANONICAL (state 1.1)

 Number of N-1 electron functions:              16
 Number of N-2 electron functions:             136
 Number of singly external CSFs:              1744
 Number of doubly external CSFs:           1521640
 Total number of CSFs:                     1523385

 Length of J-op  integral file:               0.00 MB
 Length of K-op  integral file:               1.20 MB
 Length of 3-ext integral record:             0.00 MB

 Memory could be reduced to 28.13 Mwords without degradation in triples

 Integral transformation finished. Total CPU:   1.47 sec, npass=  1  Memory used:  22.98 MW

 Reference energy:                   -196.34770717

 MP2 singlet pair energy:              -0.48845316
 MP2 triplet pair energy:              -0.25007783
 MP2 correlation energy:               -0.73853099
 MP2 total energy:                   -197.08623816

 SCS-MP2 correlation energy:           -0.74174777   (PS=  1.200000  PT=  0.333333)
 SCS-MP2 total energy:               -197.08945494

 ITER.      SQ.NORM     CORR.ENERGY   TOTAL ENERGY   ENERGY CHANGE        DEN1      VAR(S)    VAR(P)  DIIS     TIME
   1      1.28821660    -0.80655620  -197.15426337    -0.06802522    -0.04667754  0.17D-02  0.47D-02  1  1     5.94
   2      1.31152790    -0.81148976  -197.15919693    -0.00493356    -0.02353645  0.47D-04  0.32D-03  2  2    10.46
   3      1.31554193    -0.81163954  -197.15934671    -0.00014978    -0.00243825  0.53D-05  0.22D-04  3  3    15.00
   4      1.31658397    -0.81170184  -197.15940901    -0.00006230    -0.00046248  0.25D-06  0.12D-05  4  4    19.53
   5      1.31670992    -0.81170624  -197.15941340    -0.00000439    -0.00005124  0.15D-07  0.93D-07  5  5    24.07
   6      1.31672266    -0.81170380  -197.15941097     0.00000243    -0.00000862  0.69D-09  0.61D-08  6  6    28.62
   7      1.31672126    -0.81170408  -197.15941125    -0.00000028     0.00000063  0.16D-09  0.52D-09  6  1    33.16
   8      1.31672099    -0.81170423  -197.15941140    -0.00000015     0.00000026  0.78D-11  0.30D-10  6  2    37.71
   9      1.31672070    -0.81170428  -197.15941145    -0.00000005     0.00000025  0.11D-11  0.25D-11  6  3    42.26
  10      1.31672059    -0.81170429  -197.15941145    -0.00000001     0.00000009  0.90D-13  0.22D-12  6  4    46.79
  11      1.31672053    -0.81170429  -197.15941146    -0.00000000     0.00000004  0.95D-14  0.24D-13  6  5    51.32
  12      1.31672050    -0.81170429  -197.15941146    -0.00000000     0.00000002  0.90D-15  0.12D-14  6  1    55.87
  13      1.31672049    -0.81170429  -197.15941146    -0.00000000     0.00000000  0.79D-16  0.70D-16  6  6    60.40
  14      1.31672049    -0.81170429  -197.15941146    -0.00000000     0.00000000  0.15D-16  0.96D-17  6  2    64.94
  15      1.31672049    -0.81170429  -197.15941146    -0.00000000     0.00000000  0.13D-17  0.11D-17  6  3    69.48
  16      1.31672049    -0.81170429  -197.15941146     0.00000000    -0.00000000  0.70D-19  0.92D-19  6  4    74.02
  17      1.31672049    -0.81170429  -197.15941146     0.00000000    -0.00000000  0.34D-20  0.85D-20  6  5    78.57
  18      1.31672049    -0.81170429  -197.15941146     0.00000000    -0.00000000  0.38D-21  0.12D-20  6  1    83.11
  19      1.31672049    -0.81170429  -197.15941146     0.00000000    -0.00000000  0.30D-22  0.16D-21  6  6    87.64

 Norm of t1 vector:      0.05469837      S-energy:    -0.00000000      T1 diagnostic:  0.00683730
                                                                       D1 diagnostic:  0.01261566


 Total CPU time for triples:     70.31 sec


 RESULTS
 =======

  Reference energy                   -196.347707168591
  CCSD singlet pair energy             -0.577588088299
  CCSD triplet pair energy             -0.234116202517
  CCSD correlation energy              -0.811704290817

  Triples (T) contribution             -0.023942463266
  Total correlation energy             -0.835646754082

  CCSD total energy                  -197.159411459407
  CCSD[T] energy                     -197.183813269445
  CCSD-T energy                      -197.183105259371
 !CCSD(T) total energy               -197.183353922673

 Timing summary (sec):

 STEP                 CPU(USER)    SYS     CPU(TOT)    WALL
 Transformation          1.53      0.19      1.72      1.72
 CCSD iterations        86.11      1.94     88.05     88.10
 Triples                70.31      1.50     71.81     71.83

 Program statistics:

 Available memory in ccsd:               999998876
 Min. memory needed in ccsd:               3966807
 Max. memory used in ccsd:                 5311887
 Max. memory used in cckext:               4858018 (19 integral passes)



 **********************************************************************************************************************************
 DATASETS  * FILE   NREC   LENGTH (MB)   RECORD NAMES
              1      20      395.89       500      610      700      900      950      970     1000      129      960     1100   
                                          VAR    BASINP    GEOM    SYMINP    ZMAT    AOBASIS   BASIS     P2S    ABASIS      S 
                                         1400     1410     1200     1210     1080     1600     1650     1300     1700     1380   
                                           T        V       H0       H01     AOSYM     SMH    MOLCAS    ERIS     OPER     JKOP   

              2       3        0.89       700     1000     2100   
                                         GEOM     BASIS     RHF  

 PROGRAMS   *        TOTAL   CCSD(T)       RHF       INT
 CPU TIMES  *       165.86    157.97      4.41      3.44
 REAL TIME  *       170.88 SEC
 DISK USED  *         1.03 GB      
 GA USED    *         0.01 MB       (max)       0.00 MB       (current)
 **********************************************************************************************************************************

        CCSD(T)         RHF-SCF 
   -197.18335392   -196.34770717
 **********************************************************************************************************************************
 Variable memory released
