
 Primary working directories    : /tmp/1047041.1298.gen4.q
 Secondary working directories  : /tmp/1047041.1298.gen4.q
 Wavefunction directory         : /home/vulcan/mel64643/wfu/
 Main file repository           : /tmp/1047041.1298.gen4.q/

 ARCHNAME  : Linux/x86_64
 FC        : /opt/intel/compilers_and_libraries_2016.1.150/linux/bin/intel64/ifort
 FCVERSION : 16.0.1
 BLASLIB   : -mkl
 id        : ccgc

 Nodes     nprocs
 n067         1
 ga_uses_ma=false, calling ma_init with nominal heap.
 GA-space will be limited to   8.0 MW (determined by -G option)

 Using customized tuning parameters: mindgm=10; mindgv=16; mindgc=4; mindgr=1; noblas=0; mincuda=1000; minvec=7
 default implementation of scratch files=df  

 ***,Optimization of ben_hcn
 memory,1000,m
 gthresh,energy=1.0d-12,orbital=1.0d-10,oneint=1.0d-16,twoint=1.0d-16,optgrad=1.0d-6,compress=1.0d-13
 geomtyp=xyz
 
 
 
 bohr
 geometry = {
  C   -1.8840633517    1.3695856134    2.2862916213
  C   -1.8595462772    2.6903383448   -0.0035855849
  C   -1.8727676966    1.3676783254   -2.2924396592
  C   -1.9198143285   -1.2753687980   -2.2913560258
  C   -1.9443182001   -2.5959388279   -0.0016093479
  C   -1.9310891132   -1.2734809977    2.2871528907
  H   -1.8607582132    2.3939574132    4.0595087830
  H   -1.8246971831    4.7380156312    0.0028767103
  H   -1.8406422981    2.3842855780   -4.0699766469
  H   -1.9308527618   -2.2999538850   -4.0645374527
  H   -1.9668585193   -4.6437387161   -0.0080448026
  H   -1.9508246817   -2.2903414136    4.0647051811
  N    6.6239084464   -0.2016648248    0.0028454135
  C    4.4343382908   -0.0763578813    0.0094969763
  H    2.4147871342    0.0395079863    0.0157724579
 }
 
 basis=aug-cc-pvdz, H=cc-pvdz
 {rhf;maxit,200}
 {ccsd(t)}

 Variables initialized (661), CPU time= 0.00 sec
 Commands  initialized (458), CPU time= 0.00 sec, 486 directives.
 Default parameters read. Elapsed time= 0.05 sec

 Checking input...
 Passed
1


                                         ***  PROGRAM SYSTEM MOLPRO  ***
                         Copyright, University College Cardiff Consultants Limited, 2008

                                    Version 2010.1 linked May 16 2016 07:17:05


 **********************************************************************************************************************************
 LABEL *   Optimization of ben_hcn                                                       
 Linux-4.4.3/n067(x86_64) 64 bit mpp version                                             DATE: 09-Mar-24          TIME: 17:00:36  
 **********************************************************************************************************************************

 SHA1:             9e8077add272b0f3cad6f7df79ec5211205f459d
 **********************************************************************************************************************************

 THRESHOLDS:

 ZERO    =  1.00D-12  ONEINT  =  1.00D-16  TWOINT  =  1.00D-16  PREFAC  =  1.00D-14  LOCALI  =  1.00D-09  EORDER  =  1.00D-04
 ENERGY  =  1.00D-12  ETEST   =  0.00D+00  EDENS   =  0.00D+00  THRDEDEF=  1.00D-06  GRADIENT=  1.00D-02  STEP    =  1.00D-03
 ORBITAL =  1.00D-10  CIVEC   =  1.00D-05  COEFF   =  1.00D-04  PRINTCI =  5.00D-02  PUNCHCI =  9.90D+01  OPTGRAD =  1.00D-06
 OPTENERG=  1.00D-06  OPTSTEP =  3.00D-04  THRGRAD =  1.00D-10  COMPRESS=  1.00D-13  VARMIN  =  1.00D-07  VARMAX  =  1.00D-03
 THRDOUB =  0.00D+00  THRDIV  =  1.00D-05  THRRED  =  1.00D-07  THRPSP  =  1.00D+00  THRDC   =  1.00D-10  THRCS   =  1.00D-10
 THRNRM  =  1.00D-08  THREQ   =  0.00D+00  THRDE   =  1.00D+00  THRREF  =  1.00D-05  SPARFAC =  1.00D+00  THRDLP  =  1.00D-07
 THRDIA  =  1.00D-10  THRDLS  =  1.00D-07  THRGPS  =  0.00D+00  THRKEX  =  0.00D+00  THRDIS  =  2.00D-01  THRVAR  =  1.00D-10
 THRLOC  =  1.00D-06  THRGAP  =  1.00D-06  THRLOCT = -1.00D+00  THRGAPT = -1.00D+00  THRORB  =  1.00D-06  THRMLTP =  0.00D+00
 THRCPQCI=  1.00D-10  KEXTA   =  0.00D+00  THRCOARS=  0.00D+00  SYMTOL  =  1.00D-06  GRADTOL =  1.00D-06  THROVL  =  1.00D-08
 THRORTH =  1.00D-08  GRID    =  1.00D-06  GRIDMAX =  1.00D-03  DTMAX   =  0.00D+00

 SETTING GEOMTYP        =    XYZ
 ZUNIT=BOHR
 

 Variable memory set to 1000000000 words,  buffer space   230000 words

 SETTING BASIS          =    AUG-CC-PVDZ,H=CC-PVDZ


 Recomputing integrals since basis changed


 Using spherical harmonics

 Library entry C      S aug-cc-pVDZ          selected for orbital group  1
 Library entry C      P aug-cc-pVDZ          selected for orbital group  1
 Library entry C      D aug-cc-pVDZ          selected for orbital group  1
 Library entry H      S cc-pVDZ              selected for orbital group  2
 Library entry H      P cc-pVDZ              selected for orbital group  2
 Library entry N      S aug-cc-pVDZ          selected for orbital group  3
 Library entry N      P aug-cc-pVDZ          selected for orbital group  3
 Library entry N      D aug-cc-pVDZ          selected for orbital group  3

1PROGRAM * SEWARD (Integral evaluation for generally contracted gaussian basis sets)     Author: Roland Lindh, 1990

 Geometry written to block  1 of record 700


 Point group  C1  



 ATOMIC COORDINATES

 NR  ATOM    CHARGE       X              Y              Z

   1  C       6.00   -1.884063352    1.369585613    2.286291621
   2  C       6.00   -1.859546277    2.690338345   -0.003585585
   3  C       6.00   -1.872767697    1.367678325   -2.292439659
   4  C       6.00   -1.919814329   -1.275368798   -2.291356026
   5  C       6.00   -1.944318200   -2.595938828   -0.001609348
   6  C       6.00   -1.931089113   -1.273480998    2.287152891
   7  H       1.00   -1.860758213    2.393957413    4.059508783
   8  H       1.00   -1.824697183    4.738015631    0.002876710
   9  H       1.00   -1.840642298    2.384285578   -4.069976647
  10  H       1.00   -1.930852762   -2.299953885   -4.064537453
  11  H       1.00   -1.966858519   -4.643738716   -0.008044803
  12  H       1.00   -1.950824682   -2.290341414    4.064705181
  13  N       7.00    6.623908446   -0.201664825    0.002845413
  14  C       6.00    4.434338291   -0.076357881    0.009496976
  15  H       1.00    2.414787134    0.039507986    0.015772458

 Bond lengths in Bohr (Angstrom)

 1-2  2.643582131  1-6  2.643485062  1-7  2.047969681  2-3  2.643569047  2-8  2.047984006
     ( 1.398923414)     ( 1.398872047)     ( 1.083738880)     ( 1.398916490)     ( 1.083746461)

  3- 4  2.643466031   3- 9  2.047964865   4- 5  2.643377667   4-10  2.047942582   5- 6  2.643388414
       ( 1.398861976)       ( 1.083736332)       ( 1.398815216)       ( 1.083724540)       ( 1.398820903)

  5-11  2.047934048   6-12  2.047946958  13-14  2.193162908  14-15  2.022881894
       ( 1.083720024)       ( 1.083726855)       ( 1.160571826)       ( 1.070462995)

 Bond angles

  1- 2- 3  119.99732887   1- 2- 8  119.79887753   1- 6- 5  120.00109932   1- 6-12  119.79527247

  2-1-6  119.99836828   2-1-7  119.99936830   2-3-4  119.99907236   2-3-9  120.20188821

  3- 2- 8  120.20354334   3- 4- 5  120.00116793   3- 4-10  119.99744814   4- 3- 9  119.79875395

  4- 5- 6  120.00214405   4- 5-11  119.79670340   5- 4-10  120.00105831   5- 6-12  120.20330996

  6- 1- 7  120.00199191   6- 5-11  120.20080098  13-14-15  179.99091354

 NUCLEAR CHARGE:                   56
 NUMBER OF PRIMITIVE AOS:         345
 NUMBER OF SYMMETRY AOS:          329
 NUMBER OF CONTRACTIONS:          219   ( 219A   )
 NUMBER OF CORE ORBITALS:           8   (   8A   )
 NUMBER OF VALENCE ORBITALS:       39   (  39A   )


 NUCLEAR REPULSION ENERGY  303.39473571


 Eigenvalues of metric

         1 0.865E-05 0.186E-04 0.229E-04 0.534E-04 0.628E-04 0.633E-04 0.929E-04 0.930E-04


 Contracted 2-electron integrals neglected if value below      1.0D-16
 AO integral compression algorithm  1   Integral accuracy      1.0D-16

     2340.159 MB (compressed) written to integral file ( 91.2%)

     Node minimum: 2340.159 MB, node maximum: 2340.159 MB


 NUMBER OF SORTED TWO-ELECTRON INTEGRALS:  290176095.     BUFFER LENGTH:  32768
 NUMBER OF SEGMENTS:  19  SEGMENT LENGTH:   15999762      RECORD LENGTH: 524288

 Memory used in sort:      16.56 MW

 SORT1 READ   320642736. AND WROTE   287597837. INTEGRALS IN    832 RECORDS. CPU TIME:     3.24 SEC, REAL TIME:     5.46 SEC
 SORT2 READ   287597837. AND WROTE   290176095. INTEGRALS IN   8927 RECORDS. CPU TIME:     1.92 SEC, REAL TIME:     3.00 SEC

 FILE SIZES:   FILE 1:  2151.2 MBYTE,  FILE 4:  3489.7 MBYTE,   TOTAL:   5640.9 MBYTE

 OPERATOR DM      FOR CENTER  0  COORDINATES:    0.000000    0.000000    0.000000


 **********************************************************************************************************************************
 DATASETS  * FILE   NREC   LENGTH (MB)   RECORD NAMES
              1      19     2151.75       500      610      700      900      950      970     1000      129      960     1100   
                                          VAR    BASINP    GEOM    SYMINP    ZMAT    AOBASIS   BASIS     P2S    ABASIS      S 
                                         1400     1410     1200     1210     1080     1600     1650     1300     1700   
                                           T        V       H0       H01     AOSYM     SMH    MOLCAS    ERIS     OPER   

 PROGRAMS   *        TOTAL       INT
 CPU TIMES  *        18.33     18.29
 REAL TIME  *        25.24 SEC
 DISK USED  *         7.98 GB      
 GA USED    *         0.01 MB       (max)       0.00 MB       (current)
 **********************************************************************************************************************************

1PROGRAM * RHF-SCF (CLOSED SHELL)       Authors: W. Meyer, H.-J. Werner


 NUMBER OF ELECTRONS:      28+   28-    SPACE SYMMETRY=1    SPIN SYMMETRY: Singlet 
 CONVERGENCE THRESHOLDS:    1.00E-10 (Density)    1.00E-13 (Energy)
 MAX. NUMBER OF ITERATIONS:      200
 INTERPOLATION TYPE:            DIIS
 INTERPOLATION STEPS:              2 (START)      1 (STEP)
 LEVEL SHIFTS:                  0.00 (CLOSED)  0.00 (OPEN) 



 Orbital guess generated from atomic densities. Full valence occupancy:   47

 Molecular orbital dump at record        2100.2

 ITERATION    DDIFF          GRAD             ENERGY        2-EL.EN.            DIPOLE MOMENTS         DIIS
    1      0.000D+00      0.000D+00      -323.54137369    822.126381   -1.89870    0.10438    0.00522    0
    2      0.000D+00      0.292D-02      -323.59781312    819.106008   -1.36871    0.05057    0.00056    1
    3      0.781D-02      0.179D-02      -323.61440882    820.251167   -1.72952    0.08026    0.00282    2
    4      0.260D-02      0.576D-03      -323.61674520    820.452859   -1.63879    0.07291    0.00227    3
    5      0.963D-03      0.133D-03      -323.61687453    820.192874   -1.66273    0.07362    0.00225    4
    6      0.223D-03      0.229D-04      -323.61688066    820.219737   -1.66408    0.07358    0.00224    5
    7      0.845D-04      0.434D-05      -323.61688086    820.214855   -1.66443    0.07351    0.00223    6
    8      0.108D-04      0.123D-05      -323.61688087    820.215846   -1.66474    0.07357    0.00224    7
    9      0.345D-05      0.268D-06      -323.61688087    820.215879   -1.66471    0.07352    0.00223    6
   10      0.815D-06      0.729D-07      -323.61688087    820.215858   -1.66471    0.07355    0.00224    6
   11      0.186D-06      0.368D-07      -323.61688087    820.215874   -1.66471    0.07354    0.00223    7
   12      0.858D-07      0.743D-08      -323.61688087    820.215868   -1.66471    0.07354    0.00223    7
   13      0.249D-07      0.297D-08      -323.61688087    820.215871   -1.66471    0.07354    0.00223    7
   14      0.805D-08      0.116D-08      -323.61688087    820.215869   -1.66471    0.07354    0.00223    7
   15      0.415D-08      0.624D-09      -323.61688087    820.215870   -1.66471    0.07354    0.00223    8
   16      0.236D-08      0.297D-09      -323.61688087    820.215870   -1.66471    0.07354    0.00223    8
   17      0.182D-08      0.137D-09      -323.61688087    820.215870   -1.66471    0.07354    0.00223    9
   18      0.580D-09      0.296D-10      -323.61688087    820.215870   -1.66471    0.07354    0.00223    9
   19      0.221D-09      0.941D-11      -323.61688087    820.215870   -1.66471    0.07354    0.00223    9
   20      0.115D-09      0.303D-11      -323.61688087    820.215870   -1.66471    0.07354    0.00223    9
   21      0.171D-09      0.154D-11      -323.61688087    820.215870   -1.66471    0.07354    0.00223    9
   22      0.126D-09      0.102D-11      -323.61688087    820.215870   -1.66471    0.07354    0.00223    9
   23      0.122D-09      0.685D-12      -323.61688087    820.215870   -1.66471    0.07354    0.00223    9
   24      0.689D-10      0.622D-12      -323.61688087    820.215870   -1.66471    0.07354    0.00223    9
   25      0.449D-10      0.676D-12      -323.61688087    820.215870   -1.66471    0.07354    0.00223    9
   26      0.466D-10      0.585D-12      -323.61688087    820.215870   -1.66471    0.07354    0.00223    9
   27      0.278D-10      0.490D-12      -323.61688087    820.215870   -1.66471    0.07354    0.00223    9
   28      0.249D-10      0.526D-12      -323.61688087    820.215870   -1.66471    0.07354    0.00223    9
   29      0.265D-10      0.457D-12      -323.61688087    820.215870   -1.66471    0.07354    0.00223    9
   30      0.345D-10      0.504D-12      -323.61688087    820.215870   -1.66471    0.07354    0.00223    9
   31      0.213D-10      0.485D-12      -323.61688087    820.215870   -1.66471    0.07354    0.00223    9
   32      0.106D-10      0.455D-12      -323.61688087    820.215870   -1.66471    0.07354    0.00223    9
   33      0.103D-10      0.433D-12      -323.61688087    820.215870   -1.66471    0.07354    0.00223    9
   34      0.141D-10      0.523D-12      -323.61688087    820.215870   -1.66471    0.07354    0.00223    9
   35      0.805D-11      0.488D-12      -323.61688087    820.215870   -1.66471    0.07354    0.00223    9
   36      0.807D-11      0.430D-12      -323.61688087    820.215870   -1.66471    0.07354    0.00223    9
   37      0.176D-10      0.429D-12      -323.61688087    820.215870   -1.66471    0.07354    0.00223    9
   38      0.132D-10      0.438D-12      -323.61688087    820.215870   -1.66471    0.07354    0.00223    9
   39      0.342D-10      0.465D-12      -323.61688087    820.215870   -1.66471    0.07354    0.00223    9
   40      0.164D-10      0.494D-12      -323.61688087    820.215870   -1.66471    0.07354    0.00223    9
   41      0.122D-10      0.503D-12      -323.61688087    820.215870   -1.66471    0.07354    0.00223    9
   42      0.151D-10      0.444D-12      -323.61688087    820.215870   -1.66471    0.07354    0.00223    9
   43      0.218D-10      0.376D-12      -323.61688087    820.215870   -1.66471    0.07354    0.00223    9
   44      0.126D-10      0.433D-12      -323.61688087    820.215870   -1.66471    0.07354    0.00223    9
   45      0.126D-10      0.451D-12      -323.61688087    820.215870   -1.66471    0.07354    0.00223    9
   46      0.140D-10      0.519D-12      -323.61688087    820.215870   -1.66471    0.07354    0.00223    9
   47      0.183D-10      0.510D-12      -323.61688087    820.215870   -1.66471    0.07354    0.00223    9
   48      0.125D-10      0.476D-12      -323.61688087    820.215870   -1.66471    0.07354    0.00223    9
   49      0.139D-10      0.480D-12      -323.61688087    820.215870   -1.66471    0.07354    0.00223    9
   50      0.111D-10      0.468D-12      -323.61688087    820.215870   -1.66471    0.07354    0.00223    9
   51      0.115D-10      0.369D-12      -323.61688087    820.215870   -1.66471    0.07354    0.00223    9
   52      0.105D-10      0.416D-12      -323.61688087    820.215870   -1.66471    0.07354    0.00223    9
   53      0.236D-10      0.499D-12      -323.61688087    820.215870   -1.66471    0.07354    0.00223    9
   54      0.180D-10      0.464D-12      -323.61688087    820.215870   -1.66471    0.07354    0.00223    9
   55      0.186D-10      0.466D-12      -323.61688087    820.215870   -1.66471    0.07354    0.00223    9
   56      0.175D-10      0.443D-12      -323.61688087    820.215870   -1.66471    0.07354    0.00223    9
   57      0.115D-10      0.441D-12      -323.61688087    820.215870   -1.66471    0.07354    0.00223    9
   58      0.120D-10      0.532D-12      -323.61688087    820.215870   -1.66471    0.07354    0.00223    9
   59      0.581D-11      0.453D-12      -323.61688087    820.215870   -1.66471    0.07354    0.00223    9
   60      0.820D-11      0.432D-12      -323.61688087    820.215870   -1.66471    0.07354    0.00223    9
   61      0.254D-10      0.514D-12      -323.61688087    820.215870   -1.66471    0.07354    0.00223    9
   62      0.129D-10      0.503D-12      -323.61688087    820.215870   -1.66471    0.07354    0.00223    9
   63      0.221D-10      0.492D-12      -323.61688087    820.215870   -1.66471    0.07354    0.00223    9
   64      0.148D-10      0.431D-12      -323.61688087    820.215870   -1.66471    0.07354    0.00223    9
   65      0.114D-10      0.396D-12      -323.61688087    820.215870   -1.66471    0.07354    0.00223    9
   66      0.158D-10      0.504D-12      -323.61688087    820.215870   -1.66471    0.07354    0.00223    9
   67      0.173D-10      0.499D-12      -323.61688087    820.215870   -1.66471    0.07354    0.00223    9
   68      0.766D-11      0.451D-12      -323.61688087    820.215870   -1.66471    0.07354    0.00223    9
   69      0.166D-10      0.449D-12      -323.61688087    820.215870   -1.66471    0.07354    0.00223    9
   70      0.284D-10      0.403D-12      -323.61688087    820.215870   -1.66471    0.07354    0.00223    9
   71      0.169D-10      0.464D-12      -323.61688087    820.215870   -1.66471    0.07354    0.00223    9
   72      0.123D-10      0.507D-12      -323.61688087    820.215870   -1.66471    0.07354    0.00223    9
   73      0.115D-10      0.391D-12      -323.61688087    820.215870   -1.66471    0.07354    0.00223    9
   74      0.970D-11      0.416D-12      -323.61688087    820.215870   -1.66471    0.07354    0.00223    9
   75      0.143D-10      0.474D-12      -323.61688087    820.215870   -1.66471    0.07354    0.00223    9
   76      0.115D-10      0.472D-12      -323.61688087    820.215870   -1.66471    0.07354    0.00223    9
   77      0.153D-10      0.494D-12      -323.61688087    820.215870   -1.66471    0.07354    0.00223    9
   78      0.956D-11      0.460D-12      -323.61688087    820.215870   -1.66471    0.07354    0.00223    9
   79      0.142D-10      0.423D-12      -323.61688087    820.215870   -1.66471    0.07354    0.00223    9
   80      0.188D-10      0.418D-12      -323.61688087    820.215870   -1.66471    0.07354    0.00223    9
   81      0.133D-10      0.393D-12      -323.61688087    820.215870   -1.66471    0.07354    0.00223    9
   82      0.832D-11      0.383D-12      -323.61688087    820.215870   -1.66471    0.07354    0.00223    9
   83      0.230D-10      0.429D-12      -323.61688087    820.215870   -1.66471    0.07354    0.00223    9
   84      0.136D-10      0.496D-12      -323.61688087    820.215870   -1.66471    0.07354    0.00223    9
   85      0.180D-10      0.430D-12      -323.61688087    820.215870   -1.66471    0.07354    0.00223    9
   86      0.115D-10      0.478D-12      -323.61688087    820.215870   -1.66471    0.07354    0.00223    0

 Final occupancy:  28

 !RHF STATE 1.1 Energy               -323.616880873684
 Nuclear energy                       303.39473571
 One-electron energy                -1037.11955149
 Two-electron energy                  410.10793491
 Virial quotient                       -1.00171001
 !RHF STATE 1.1 Dipole moment          -1.66470934     0.07353917     0.00223421
 Dipole moment /Debye                  -4.23099196     0.18690569     0.00567844

 Orbital energies:

         1.1          2.1          3.1          4.1          5.1          6.1          7.1          8.1          9.1         10.1
    -15.591648   -11.283864   -11.266255   -11.265728   -11.265666   -11.264549   -11.264480   -11.263920    -1.218335    -1.173918

        11.1         12.1         13.1         14.1         15.1         16.1         17.1         18.1         19.1         20.1
     -1.037877    -1.037696    -0.845988    -0.845448    -0.789909    -0.729359    -0.664876    -0.639199    -0.608556    -0.608556

        21.1         22.1         23.1         24.1         25.1         26.1         27.1         28.1         29.1         30.1
     -0.565228    -0.520373    -0.515196    -0.514512    -0.475690    -0.475686    -0.359668    -0.359660     0.055868     0.060061


 **********************************************************************************************************************************
 DATASETS  * FILE   NREC   LENGTH (MB)   RECORD NAMES
              1      19     2151.75       500      610      700      900      950      970     1000      129      960     1100   
                                          VAR    BASINP    GEOM    SYMINP    ZMAT    AOBASIS   BASIS     P2S    ABASIS      S 
                                         1400     1410     1200     1210     1080     1600     1650     1300     1700   
                                           T        V       H0       H01     AOSYM     SMH    MOLCAS    ERIS     OPER   

              2       3        1.49       700     1000     2100   
                                         GEOM     BASIS     RHF  

 PROGRAMS   *        TOTAL       RHF       INT
 CPU TIMES  *       209.84    191.51     18.29
 REAL TIME  *       236.13 SEC
 DISK USED  *         7.98 GB      
 GA USED    *         0.01 MB       (max)       0.00 MB       (current)
 **********************************************************************************************************************************


1PROGRAM * CCSD (Closed-shell coupled cluster)     Authors: C. Hampel, H.-J. Werner, 1991, M. Deegan, P.J. Knowles, 1992


 Convergence thresholds:  THRVAR = 1.00D-08  THRDEN = 1.00D-12

 CCSD(T)     terms to be evaluated (factor= 1.000)


 Number of core orbitals:           8 (   8 )
 Number of closed-shell orbitals:  20 (  20 )
 Number of external orbitals:     191 ( 191 )

 Molecular orbitals read from record     2100.2  Type=RHF/CANONICAL (state 1.1)

 Number of N-1 electron functions:              20
 Number of N-2 electron functions:             210
 Number of singly external CSFs:              3820
 Number of doubly external CSFs:           7298110
 Total number of CSFs:                     7301931

 Length of J-op  integral file:               0.00 MB
 Length of K-op  integral file:               3.32 MB
 Length of 3-ext integral record:             0.00 MB

 Memory could be reduced to 174.82 Mwords without degradation in triples

 Integral transformation finished. Total CPU:  19.08 sec, npass=  1  Memory used: 128.13 MW

 Reference energy:                   -323.61688087

 MP2 singlet pair energy:              -0.67334395
 MP2 triplet pair energy:              -0.43519884
 MP2 correlation energy:               -1.10854278
 MP2 total energy:                   -324.72542366

 SCS-MP2 correlation energy:           -1.07880312   (PS=  1.200000  PT=  0.333333)
 SCS-MP2 total energy:               -324.69568400

 ITER.      SQ.NORM     CORR.ENERGY   TOTAL ENERGY   ENERGY CHANGE        DEN1      VAR(S)    VAR(P)  DIIS     TIME
   1      1.42873364    -1.14462469  -324.76150556    -0.03608190    -0.00288951  0.51D-02  0.99D-02  1  1    71.13
   2      1.46305614    -1.15049815  -324.76737903    -0.00587347    -0.03103156  0.83D-04  0.13D-02  2  2   123.57
   3      1.47634784    -1.15094584  -324.76782671    -0.00044769    -0.00655946  0.40D-04  0.12D-03  3  3   176.01
   4      1.48204000    -1.15119554  -324.76807641    -0.00024970    -0.00178582  0.22D-05  0.15D-04  4  4   228.46
   5      1.48356940    -1.15123123  -324.76811211    -0.00003570    -0.00036590  0.25D-06  0.14D-05  5  5   280.95
   6      1.48387559    -1.15122272  -324.76810359     0.00000852    -0.00005025  0.24D-07  0.91D-07  6  6   333.46
   7      1.48391037    -1.15122613  -324.76810700    -0.00000341    -0.00000225  0.34D-08  0.80D-08  6  2   385.98
   8      1.48391505    -1.15122648  -324.76810736    -0.00000036    -0.00000042  0.41D-09  0.83D-09  6  1   438.51
   9      1.48391527    -1.15122665  -324.76810752    -0.00000017     0.00000079  0.63D-10  0.78D-10  6  3   491.00
  10      1.48391565    -1.15122671  -324.76810758    -0.00000006     0.00000002  0.10D-10  0.99D-11  6  4   543.52
  11      1.48391537    -1.15122674  -324.76810762    -0.00000004     0.00000022  0.17D-11  0.14D-11  6  5   596.02
  12      1.48391521    -1.15122676  -324.76810763    -0.00000001     0.00000008  0.25D-12  0.27D-12  6  6   648.56
  13      1.48391507    -1.15122676  -324.76810763    -0.00000000     0.00000005  0.14D-13  0.52D-13  6  2   701.08
  14      1.48391501    -1.15122676  -324.76810763    -0.00000000     0.00000002  0.22D-14  0.94D-14  6  1   753.60
  15      1.48391498    -1.15122676  -324.76810763     0.00000000     0.00000001  0.46D-15  0.13D-14  6  3   806.11
  16      1.48391497    -1.15122676  -324.76810763    -0.00000000     0.00000000  0.99D-16  0.19D-15  6  4   858.63
  17      1.48391497    -1.15122676  -324.76810763    -0.00000000     0.00000000  0.19D-16  0.28D-16  6  5   911.16
  18      1.48391497    -1.15122676  -324.76810763    -0.00000000     0.00000000  0.37D-17  0.36D-17  6  6   963.63
  19      1.48391497    -1.15122676  -324.76810763    -0.00000000     0.00000000  0.83D-18  0.60D-18  6  2  1016.14
  20      1.48391497    -1.15122676  -324.76810763    -0.00000000     0.00000000  0.18D-18  0.13D-18  6  1  1068.65
  21      1.48391497    -1.15122676  -324.76810763    -0.00000000     0.00000000  0.64D-19  0.39D-19  6  3  1121.18
  22      1.48391497    -1.15122676  -324.76810763     0.00000000     0.00000000  0.29D-19  0.17D-19  6  4  1173.71

 Norm of t1 vector:      0.09773655      S-energy:     0.00000000      T1 diagnostic:  0.01092728
                                                                       D1 diagnostic:  0.02771767

 Doubles amplitudes (print threshold =  0.500E-01):

         I         J         SYM. A    SYM. B    A         B      T(IJ, AB)

        19        19         1         1         7         7     -0.05778797
        20        20         1         1         8         8     -0.05775159


 Total CPU time for triples:   1082.46 sec


 RESULTS
 =======

  Reference energy                   -323.616880873686
  CCSD singlet pair energy             -0.770020931239
  CCSD triplet pair energy             -0.381205830062
  CCSD correlation energy              -1.151226761301

  Triples (T) contribution             -0.054015775238
  Total correlation energy             -1.205242536539

  CCSD total energy                  -324.768107634987
  CCSD[T] energy                     -324.823455724908
  CCSD-T energy                      -324.821517932347
 !CCSD(T) total energy               -324.822123410225

 Timing summary (sec):

 STEP                 CPU(USER)    SYS     CPU(TOT)    WALL
 Transformation         19.64      1.07     20.71     20.71
 CCSD iterations      1154.09     14.64   1168.73   1168.75
 Triples              1082.46     15.47   1097.93   1097.92

 Program statistics:

 Available memory in ccsd:               999998300
 Min. memory needed in ccsd:              17709720
 Max. memory used in ccsd:                24415330
 Max. memory used in cckext:              20754978 (22 integral passes)



 **********************************************************************************************************************************
 DATASETS  * FILE   NREC   LENGTH (MB)   RECORD NAMES
              1      20     2833.91       500      610      700      900      950      970     1000      129      960     1100   
                                          VAR    BASINP    GEOM    SYMINP    ZMAT    AOBASIS   BASIS     P2S    ABASIS      S 
                                         1400     1410     1200     1210     1080     1600     1650     1300     1700     1380   
                                           T        V       H0       H01     AOSYM     SMH    MOLCAS    ERIS     OPER     JKOP   

              2       3        1.49       700     1000     2100   
                                         GEOM     BASIS     RHF  

 PROGRAMS   *        TOTAL   CCSD(T)       RHF       INT
 CPU TIMES  *      2466.04   2256.20    191.51     18.29
 REAL TIME  *      2523.65 SEC
 DISK USED  *         7.98 GB      
 GA USED    *         0.01 MB       (max)       0.00 MB       (current)
 **********************************************************************************************************************************

        CCSD(T)         RHF-SCF 
   -324.82212341   -323.61688087
 **********************************************************************************************************************************
 Variable memory released
