
 Primary working directories    : /tmp/1192576.194.gen4.q
 Secondary working directories  : /tmp/1192576.194.gen4.q
 Wavefunction directory         : /home/vulcan/mel64643/wfu/
 Main file repository           : /tmp/1192576.194.gen4.q/

 ARCHNAME  : Linux/x86_64
 FC        : /opt/intel/compilers_and_libraries_2016.1.150/linux/bin/intel64/ifort
 FCVERSION : 16.0.1
 BLASLIB   : -mkl
 id        : ccgc

 Nodes     nprocs
 n036         1
 ga_uses_ma=false, calling ma_init with nominal heap.
 GA-space will be limited to   8.0 MW (determined by -G option)

 Using customized tuning parameters: mindgm=10; mindgv=16; mindgc=4; mindgr=1; noblas=0; mincuda=1000; minvec=7
 default implementation of scratch files=df  

 ***,Optimization of h2o_2
 memory,1000,m
 gthresh,energy=1.0d-12,orbital=1.0d-10,oneint=1.0d-16,twoint=1.0d-16,optgrad=1.0d-6,compress=1.0d-13
 geomtyp=xyz
 
 
 
 bohr
 geometry = {
  O   -2.8116488844   -0.2070965800    0.0000000000
  H   -3.5614958369    1.4464438147    0.0000000000
  H   -0.9999316679    0.1061128021    0.0000000000
  O    2.6895153845    0.1976880537    0.0000000000
  H    3.3342733862   -0.7015980800   -1.4388270396
  H    3.3342733862   -0.7015980800    1.4388270396
 }
 
 basis=cc-pvtz
 {rhf;maxit,200}
 {ccsd(t);maxit,200}

 Variables initialized (661), CPU time= 0.01 sec
 Commands  initialized (458), CPU time= 0.00 sec, 486 directives.
 Default parameters read. Elapsed time= 0.05 sec

 Checking input...
 Passed
1


                                         ***  PROGRAM SYSTEM MOLPRO  ***
                         Copyright, University College Cardiff Consultants Limited, 2008

                                    Version 2010.1 linked May 16 2016 07:17:05


 **********************************************************************************************************************************
 LABEL *   Optimization of h2o_2                                                         
 Linux-4.4.3/n036(x86_64) 64 bit mpp version                                             DATE: 29-Aug-24          TIME: 11:16:47  
 **********************************************************************************************************************************

 SHA1:             9e8077add272b0f3cad6f7df79ec5211205f459d
 **********************************************************************************************************************************

 THRESHOLDS:

 ZERO    =  1.00D-12  ONEINT  =  1.00D-16  TWOINT  =  1.00D-16  PREFAC  =  1.00D-14  LOCALI  =  1.00D-09  EORDER  =  1.00D-04
 ENERGY  =  1.00D-12  ETEST   =  0.00D+00  EDENS   =  0.00D+00  THRDEDEF=  1.00D-06  GRADIENT=  1.00D-02  STEP    =  1.00D-03
 ORBITAL =  1.00D-10  CIVEC   =  1.00D-05  COEFF   =  1.00D-04  PRINTCI =  5.00D-02  PUNCHCI =  9.90D+01  OPTGRAD =  1.00D-06
 OPTENERG=  1.00D-06  OPTSTEP =  3.00D-04  THRGRAD =  1.00D-10  COMPRESS=  1.00D-13  VARMIN  =  1.00D-07  VARMAX  =  1.00D-03
 THRDOUB =  0.00D+00  THRDIV  =  1.00D-05  THRRED  =  1.00D-07  THRPSP  =  1.00D+00  THRDC   =  1.00D-10  THRCS   =  1.00D-10
 THRNRM  =  1.00D-08  THREQ   =  0.00D+00  THRDE   =  1.00D+00  THRREF  =  1.00D-05  SPARFAC =  1.00D+00  THRDLP  =  1.00D-07
 THRDIA  =  1.00D-10  THRDLS  =  1.00D-07  THRGPS  =  0.00D+00  THRKEX  =  0.00D+00  THRDIS  =  2.00D-01  THRVAR  =  1.00D-10
 THRLOC  =  1.00D-06  THRGAP  =  1.00D-06  THRLOCT = -1.00D+00  THRGAPT = -1.00D+00  THRORB  =  1.00D-06  THRMLTP =  0.00D+00
 THRCPQCI=  1.00D-10  KEXTA   =  0.00D+00  THRCOARS=  0.00D+00  SYMTOL  =  1.00D-06  GRADTOL =  1.00D-06  THROVL  =  1.00D-08
 THRORTH =  1.00D-08  GRID    =  1.00D-06  GRIDMAX =  1.00D-03  DTMAX   =  0.00D+00

 SETTING GEOMTYP        =    XYZ
 ZUNIT=BOHR
 

 Variable memory set to 1000000000 words,  buffer space   230000 words

 SETTING BASIS          =    CC-PVTZ


 Recomputing integrals since basis changed


 Using spherical harmonics

 Library entry O      S cc-pVTZ              selected for orbital group  1
 Library entry O      P cc-pVTZ              selected for orbital group  1
 Library entry O      D cc-pVTZ              selected for orbital group  1
 Library entry O      F cc-pVTZ              selected for orbital group  1
 Library entry H      S cc-pVTZ              selected for orbital group  2
 Library entry H      P cc-pVTZ              selected for orbital group  2
 Library entry H      D cc-pVTZ              selected for orbital group  2

1PROGRAM * SEWARD (Integral evaluation for generally contracted gaussian basis sets)     Author: Roland Lindh, 1990

 Geometry written to block  1 of record 700


 Point group  Cs  



 ATOMIC COORDINATES

 NR  ATOM    CHARGE       X              Y              Z

   1  O       8.00   -2.811648884   -0.207096580    0.000000000
   2  H       1.00   -3.561495837    1.446443815    0.000000000
   3  H       1.00   -0.999931668    0.106112802    0.000000000
   4  O       8.00    2.689515384    0.197688054    0.000000000
   5  H       1.00    3.334273386   -0.701598080   -1.438827040
   6  H       1.00    3.334273386   -0.701598080    1.438827040

 Bond lengths in Bohr (Angstrom)

 1-2  1.815617330  1-3  1.838591686  4-5  1.815117539  4-6  1.815117539
     ( 0.960783311)     ( 0.972940817)     ( 0.960518833)     ( 0.960518833)

 Bond angles

  2-1-3  104.58498918   5-4-6  104.87538033

 NUCLEAR CHARGE:                   20
 NUMBER OF PRIMITIVE AOS:         162
 NUMBER OF SYMMETRY AOS:          148
 NUMBER OF CONTRACTIONS:          116   (  74A'  +  42A"  )
 NUMBER OF CORE ORBITALS:           2   (   2A'  +   0A"  )
 NUMBER OF VALENCE ORBITALS:       12   (   9A'  +   3A"  )


 NUCLEAR REPULSION ENERGY   36.52073404


 Eigenvalues of metric

         1 0.203E-02 0.254E-02 0.461E-02 0.533E-02 0.577E-02 0.790E-02 0.106E-01 0.110E-01
         2 0.450E-02 0.768E-02 0.405E-01 0.467E-01 0.693E-01 0.839E-01 0.110E+00 0.116E+00


 Contracted 2-electron integrals neglected if value below      1.0D-16
 AO integral compression algorithm  1   Integral accuracy      1.0D-16

     87.818 MB (compressed) written to integral file ( 77.6%)

     Node minimum: 87.818 MB, node maximum: 87.818 MB


 NUMBER OF SORTED TWO-ELECTRON INTEGRALS:   11777331.     BUFFER LENGTH:  32768
 NUMBER OF SEGMENTS:   1  SEGMENT LENGTH:   11777331      RECORD LENGTH: 524288

 Memory used in sort:      12.33 MW

 SORT1 READ    14172339. AND WROTE    11143923. INTEGRALS IN     32 RECORDS. CPU TIME:     0.16 SEC, REAL TIME:     0.22 SEC
 SORT2 READ    11143923. AND WROTE    11777331. INTEGRALS IN    335 RECORDS. CPU TIME:     0.15 SEC, REAL TIME:     0.21 SEC

 FILE SIZES:   FILE 1:    79.5 MBYTE,  FILE 4:   134.3 MBYTE,   TOTAL:    213.7 MBYTE

 OPERATOR DM      FOR CENTER  0  COORDINATES:    0.000000    0.000000    0.000000


 **********************************************************************************************************************************
 DATASETS  * FILE   NREC   LENGTH (MB)   RECORD NAMES
              1      19       79.58       500      610      700      900      950      970     1000      129      960     1100   
                                          VAR    BASINP    GEOM    SYMINP    ZMAT    AOBASIS   BASIS     P2S    ABASIS      S 
                                         1400     1410     1200     1210     1080     1600     1650     1300     1700   
                                           T        V       H0       H01     AOSYM     SMH    MOLCAS    ERIS     OPER   

 PROGRAMS   *        TOTAL       INT
 CPU TIMES  *         1.49      1.43
 REAL TIME  *         1.95 SEC
 DISK USED  *       302.21 MB      
 GA USED    *         0.00 MB       (max)       0.00 MB       (current)
 **********************************************************************************************************************************

1PROGRAM * RHF-SCF (CLOSED SHELL)       Authors: W. Meyer, H.-J. Werner


 NUMBER OF ELECTRONS:      10+   10-
 CONVERGENCE THRESHOLDS:    1.00E-10 (Density)    1.00E-13 (Energy)
 MAX. NUMBER OF ITERATIONS:      200
 INTERPOLATION TYPE:            DIIS
 INTERPOLATION STEPS:              2 (START)      1 (STEP)
 LEVEL SHIFTS:                  0.00 (CLOSED)  0.00 (OPEN) 



 Orbital guess generated from atomic densities. Full valence occupancy:   11   3

 Molecular orbital dump at record        2100.2

 Initial alpha occupancy:   8   2
 Initial beta  occupancy:   8   2
 Wave function symmetry:    1

 ITERATION    DDIFF          GRAD             ENERGY        2-EL.EN.            DIPOLE MOMENTS         DIIS
    1      0.000D+00      0.000D+00      -152.05138702    191.637136    1.37758    0.09347    0.00000    0
    2      0.000D+00      0.968D-02      -152.10301531    185.228229    1.03510    0.02972    0.00000    1
    3      0.169D-01      0.558D-02      -152.11993140    187.931507    1.08841    0.05242    0.00000    2
    4      0.543D-02      0.579D-03      -152.12032014    187.770348    1.07448    0.05100    0.00000    3
    5      0.893D-03      0.152D-03      -152.12035708    187.788789    1.06908    0.05099    0.00000    4
    6      0.278D-03      0.318D-04      -152.12035937    187.786156    1.06754    0.05090    0.00000    5
    7      0.700D-04      0.594D-05      -152.12035944    187.786194    1.06724    0.05094    0.00000    6
    8      0.147D-04      0.172D-05      -152.12035945    187.786263    1.06719    0.05090    0.00000    6
    9      0.254D-05      0.672D-06      -152.12035945    187.786208    1.06717    0.05091    0.00000    6
   10      0.101D-05      0.886D-07      -152.12035945    187.786227    1.06717    0.05091    0.00000    7
   11      0.176D-06      0.224D-07      -152.12035945    187.786222    1.06717    0.05091    0.00000    6
   12      0.441D-07      0.712D-08      -152.12035945    187.786224    1.06717    0.05091    0.00000    6
   13      0.142D-07      0.134D-08      -152.12035945    187.786223    1.06717    0.05091    0.00000    7
   14      0.269D-08      0.331D-09      -152.12035945    187.786224    1.06717    0.05091    0.00000    7
   15      0.636D-09      0.887D-10      -152.12035945    187.786224    1.06717    0.05091    0.00000    6
   16      0.188D-09      0.207D-10      -152.12035945    187.786224    1.06717    0.05091    0.00000    6
   17      0.481D-10      0.819D-11      -152.12035945    187.786224    1.06717    0.05091    0.00000    0

 Final occupancy:   8   2

 !RHF STATE 1.1 Energy               -152.120359445680
 Nuclear energy                        36.52073404
 One-electron energy                 -282.53420524
 Two-electron energy                   93.89311175
 Virial quotient                       -1.00098304
 !RHF STATE 1.1 Dipole moment           1.06716551     0.05091317     0.00000000
 Dipole moment /Debye                   2.71228651     0.12939990     0.00000000

 Orbital energies:

         1.1          2.1          3.1          4.1          5.1          6.1          7.1          8.1          9.1         10.1
    -20.584865   -20.523134    -1.374398    -1.310847    -0.683294    -0.608450    -0.552134    -0.525219     0.124325     0.183369

         1.2          2.2          3.2          4.2
     -0.737305    -0.474344     0.191685     0.510906


 **********************************************************************************************************************************
 DATASETS  * FILE   NREC   LENGTH (MB)   RECORD NAMES
              1      19       79.58       500      610      700      900      950      970     1000      129      960     1100   
                                          VAR    BASINP    GEOM    SYMINP    ZMAT    AOBASIS   BASIS     P2S    ABASIS      S 
                                         1400     1410     1200     1210     1080     1600     1650     1300     1700   
                                           T        V       H0       H01     AOSYM     SMH    MOLCAS    ERIS     OPER   

              2       3        0.50       700     1000     2100   
                                         GEOM     BASIS     RHF  

 PROGRAMS   *        TOTAL       RHF       INT
 CPU TIMES  *         2.75      1.25      1.43
 REAL TIME  *         3.56 SEC
 DISK USED  *       302.21 MB      
 GA USED    *         0.00 MB       (max)       0.00 MB       (current)
 **********************************************************************************************************************************


1PROGRAM * CCSD (Closed-shell coupled cluster)     Authors: C. Hampel, H.-J. Werner, 1991, M. Deegan, P.J. Knowles, 1992


 Convergence thresholds:  THRVAR = 1.00D-08  THRDEN = 1.00D-12

 CCSD(T)     terms to be evaluated (factor= 1.000)


 Number of core orbitals:           2 (   2   0 )
 Number of closed-shell orbitals:   8 (   6   2 )
 Number of external orbitals:     106 (  66  40 )

 Molecular orbitals read from record     2100.2  Type=RHF/CANONICAL (state 1.1)

 Number of N-1 electron functions:               8
 Number of N-2 electron functions:              36
 Number of singly external CSFs:               476
 Number of doubly external CSFs:            182904
 Total number of CSFs:                      183381

 Length of J-op  integral file:               0.00 MB
 Length of K-op  integral file:               0.54 MB
 Length of 3-ext integral record:             0.00 MB

 Memory could be reduced to 7.14 Mwords without degradation in triples

 Integral transformation finished. Total CPU:   0.29 sec, npass=  1  Memory used:   2.46 MW

 Reference energy:                   -152.12035945

 MP2 singlet pair energy:              -0.33345233
 MP2 triplet pair energy:              -0.19306880
 MP2 correlation energy:               -0.52652112
 MP2 total energy:                   -152.64688057

 SCS-MP2 correlation energy:           -0.52027449   (PS=  1.200000  PT=  0.333333)
 SCS-MP2 total energy:               -152.64063393

 ITER.      SQ.NORM     CORR.ENERGY   TOTAL ENERGY   ENERGY CHANGE        DEN1      VAR(S)    VAR(P)  DIIS     TIME
   1      1.12181670    -0.53660455  -152.65696399    -0.01008342     0.00003844  0.10D-02  0.17D-02  1  1     0.62
   2      1.12820515    -0.53739355  -152.65775299    -0.00078900    -0.00903311  0.16D-04  0.18D-03  2  2     0.99
   3      1.13031143    -0.53750804  -152.65786748    -0.00011449    -0.00162086  0.54D-05  0.81D-05  3  3     1.34
   4      1.13088341    -0.53752337  -152.65788281    -0.00001533    -0.00033659  0.23D-06  0.52D-06  4  4     1.69
   5      1.13096370    -0.53751930  -152.65787875     0.00000406    -0.00003775  0.89D-07  0.35D-07  5  5     2.04
   6      1.13098372    -0.53751775  -152.65787719     0.00000156    -0.00000700  0.13D-07  0.30D-08  6  6     2.40
   7      1.13098697    -0.53751807  -152.65787751    -0.00000032    -0.00000028  0.20D-08  0.59D-09  6  1     2.76
   8      1.13098851    -0.53751804  -152.65787749     0.00000003     0.00000007  0.31D-09  0.83D-10  6  2     3.12
   9      1.13098913    -0.53751802  -152.65787747     0.00000002     0.00000010  0.28D-10  0.10D-10  6  3     3.47
  10      1.13098929    -0.53751802  -152.65787746     0.00000001     0.00000001  0.40D-11  0.14D-11  6  4     3.82
  11      1.13098927    -0.53751802  -152.65787746    -0.00000000     0.00000004  0.73D-12  0.20D-12  6  5     4.19
  12      1.13098924    -0.53751802  -152.65787747    -0.00000000     0.00000002  0.14D-12  0.28D-13  6  6     4.54
  13      1.13098922    -0.53751802  -152.65787747    -0.00000000     0.00000001  0.20D-13  0.59D-14  6  1     4.90
  14      1.13098922    -0.53751802  -152.65787747    -0.00000000     0.00000000  0.37D-14  0.12D-14  6  2     5.25
  15      1.13098922    -0.53751802  -152.65787747     0.00000000     0.00000000  0.64D-15  0.14D-15  6  3     5.61
  16      1.13098922    -0.53751802  -152.65787747     0.00000000    -0.00000000  0.11D-15  0.29D-16  6  4     5.97
  17      1.13098922    -0.53751802  -152.65787747     0.00000000    -0.00000000  0.14D-16  0.53D-17  6  5     6.32
  18      1.13098922    -0.53751802  -152.65787747    -0.00000000     0.00000000  0.20D-17  0.73D-18  6  6     6.69
  19      1.13098922    -0.53751802  -152.65787747    -0.00000000    -0.00000000  0.43D-18  0.13D-18  6  1     7.05
  20      1.13098922    -0.53751802  -152.65787747    -0.00000000    -0.00000000  0.11D-18  0.27D-19  6  2     7.40
  21      1.13098922    -0.53751802  -152.65787747    -0.00000000    -0.00000000  0.21D-19  0.49D-20  6  3     7.76

 Norm of t1 vector:      0.04065183      S-energy:    -0.00000000      T1 diagnostic:  0.00718630
                                                                       D1 diagnostic:  0.01514788


 Total CPU time for triples:      4.07 sec


 RESULTS
 =======

  Reference energy                   -152.120359445680
  CCSD singlet pair energy             -0.365327718523
  CCSD triplet pair energy             -0.172190305125
  CCSD correlation energy              -0.537518023648

  Triples (T) contribution             -0.015841397380
  Total correlation energy             -0.553359421029

  CCSD total energy                  -152.657877469328
  CCSD[T] energy                     -152.674134377583
  CCSD-T energy                      -152.673437057954
 !CCSD(T) total energy               -152.673718866709

 Timing summary (sec):

 STEP                 CPU(USER)    SYS     CPU(TOT)    WALL
 Transformation          0.30      0.04      0.34      0.34
 CCSD iterations         7.46      0.39      7.85      8.32
 Triples                 4.07      0.11      4.18      4.24

 Program statistics:

 Available memory in ccsd:               999999644
 Min. memory needed in ccsd:                579497
 Max. memory used in ccsd:                  733293
 Max. memory used in cckext:                813900 (21 integral passes)



 **********************************************************************************************************************************
 DATASETS  * FILE   NREC   LENGTH (MB)   RECORD NAMES
              1      20      102.34       500      610      700      900      950      970     1000      129      960     1100   
                                          VAR    BASINP    GEOM    SYMINP    ZMAT    AOBASIS   BASIS     P2S    ABASIS      S 
                                         1400     1410     1200     1210     1080     1600     1650     1300     1700     1380   
                                           T        V       H0       H01     AOSYM     SMH    MOLCAS    ERIS     OPER     JKOP   

              2       3        0.50       700     1000     2100   
                                         GEOM     BASIS     RHF  

 PROGRAMS   *        TOTAL   CCSD(T)       RHF       INT
 CPU TIMES  *        14.59     11.84      1.25      1.43
 REAL TIME  *        16.54 SEC
 DISK USED  *       302.21 MB      
 GA USED    *         0.00 MB       (max)       0.00 MB       (current)
 **********************************************************************************************************************************

        CCSD(T)         RHF-SCF 
   -152.67371887   -152.12035945
 **********************************************************************************************************************************
 Variable memory released
