
 Primary working directories    : /tmp/1049502.1501.gen4.q
 Secondary working directories  : /tmp/1049502.1501.gen4.q
 Wavefunction directory         : /home/vulcan/jj04645/wfu/
 Main file repository           : /tmp/1049502.1501.gen4.q/

 ARCHNAME  : Linux/x86_64
 FC        : /opt/intel/compilers_and_libraries_2016.1.150/linux/bin/intel64/ifort
 FCVERSION : 16.0.1
 BLASLIB   : -mkl
 id        : ccgc

 Nodes     nprocs
 n054         1
 ga_uses_ma=false, calling ma_init with nominal heap.
 GA-space will be limited to   8.0 MW (determined by -G option)

 Using customized tuning parameters: mindgm=10; mindgv=16; mindgc=4; mindgr=1; noblas=0; mincuda=1000; minvec=7
 default implementation of scratch files=df  

 ***,Optimization of neopentane
 memory,1000,m
 gthresh,energy=1.0d-12,orbital=1.0d-10,oneint=1.0d-16,twoint=1.0d-16,optgrad=1.0d-6,compress=1.0d-13
 geomtyp=xyz
 
 bohr
 geometry = {
  C    0.0005824060    0.0005824060    0.0000000000
  C    2.3653634379    0.0012432411   -1.6735540248
  C    0.0012428721   -2.3655199271    1.6716854227
  C    0.0012432411    2.3653634379    1.6735540248
  C   -2.3655199271    0.0012428721   -1.6716854227
  H    2.4047280041    1.6758536681   -2.8848716658
  H   -1.6724101415   -2.4058419295    2.8842941003
  H    1.6758536681    2.4047280041    2.8848716658
  H   -2.4058419295   -1.6724101415   -2.8842941003
  H    4.0797911035   -0.0041615310   -0.5186217117
  H   -0.0041661700   -4.0790346837    0.5153991254
  H   -0.0041615310    4.0797911035    0.5186217117
  H   -4.0790346837   -0.0041661700   -0.5153991254
  H    2.4072052164   -1.6748798968   -2.8826944514
  H    1.6733729477   -2.4033686175    2.8864728798
  H   -1.6748798968    2.4072052164    2.8826944514
  H   -2.4033686175    1.6733729477   -2.8864728798
 }
 
 basis=VDZ
 {rhf;maxit,200}
 {ccsd(t);maxit,200}

 Variables initialized (661), CPU time= 0.01 sec
 Commands  initialized (458), CPU time= 0.00 sec, 486 directives.
 Default parameters read. Elapsed time= 0.05 sec

 Checking input...
 Passed
1


                                         ***  PROGRAM SYSTEM MOLPRO  ***
                         Copyright, University College Cardiff Consultants Limited, 2008

                                    Version 2010.1 linked May 16 2016 07:17:05


 **********************************************************************************************************************************
 LABEL *   Optimization of neopentane                                                    
 Linux-4.4.3/n054(x86_64) 64 bit mpp version                                             DATE: 31-Mar-24          TIME: 01:50:52  
 **********************************************************************************************************************************

 SHA1:             9e8077add272b0f3cad6f7df79ec5211205f459d
 **********************************************************************************************************************************

 THRESHOLDS:

 ZERO    =  1.00D-12  ONEINT  =  1.00D-16  TWOINT  =  1.00D-16  PREFAC  =  1.00D-14  LOCALI  =  1.00D-09  EORDER  =  1.00D-04
 ENERGY  =  1.00D-12  ETEST   =  0.00D+00  EDENS   =  0.00D+00  THRDEDEF=  1.00D-06  GRADIENT=  1.00D-02  STEP    =  1.00D-03
 ORBITAL =  1.00D-10  CIVEC   =  1.00D-05  COEFF   =  1.00D-04  PRINTCI =  5.00D-02  PUNCHCI =  9.90D+01  OPTGRAD =  1.00D-06
 OPTENERG=  1.00D-06  OPTSTEP =  3.00D-04  THRGRAD =  1.00D-10  COMPRESS=  1.00D-13  VARMIN  =  1.00D-07  VARMAX  =  1.00D-03
 THRDOUB =  0.00D+00  THRDIV  =  1.00D-05  THRRED  =  1.00D-07  THRPSP  =  1.00D+00  THRDC   =  1.00D-10  THRCS   =  1.00D-10
 THRNRM  =  1.00D-08  THREQ   =  0.00D+00  THRDE   =  1.00D+00  THRREF  =  1.00D-05  SPARFAC =  1.00D+00  THRDLP  =  1.00D-07
 THRDIA  =  1.00D-10  THRDLS  =  1.00D-07  THRGPS  =  0.00D+00  THRKEX  =  0.00D+00  THRDIS  =  2.00D-01  THRVAR  =  1.00D-10
 THRLOC  =  1.00D-06  THRGAP  =  1.00D-06  THRLOCT = -1.00D+00  THRGAPT = -1.00D+00  THRORB  =  1.00D-06  THRMLTP =  0.00D+00
 THRCPQCI=  1.00D-10  KEXTA   =  0.00D+00  THRCOARS=  0.00D+00  SYMTOL  =  1.00D-06  GRADTOL =  1.00D-06  THROVL  =  1.00D-08
 THRORTH =  1.00D-08  GRID    =  1.00D-06  GRIDMAX =  1.00D-03  DTMAX   =  0.00D+00

 SETTING GEOMTYP        =    XYZ
 ZUNIT=BOHR
 

 Variable memory set to 1000000000 words,  buffer space   230000 words

 SETTING BASIS          =    VDZ


 Recomputing integrals since basis changed


 Using spherical harmonics

 Library entry C      S cc-pVDZ              selected for orbital group  1
 Library entry C      P cc-pVDZ              selected for orbital group  1
 Library entry C      D cc-pVDZ              selected for orbital group  1
 Library entry H      S cc-pVDZ              selected for orbital group  2
 Library entry H      P cc-pVDZ              selected for orbital group  2

1PROGRAM * SEWARD (Integral evaluation for generally contracted gaussian basis sets)     Author: Roland Lindh, 1990

 Geometry written to block  1 of record 700


 Point group  C1  



 ATOMIC COORDINATES

 NR  ATOM    CHARGE       X              Y              Z

   1  C       6.00    0.000582406    0.000582406    0.000000000
   2  C       6.00    2.365363438    0.001243241   -1.673554025
   3  C       6.00    0.001242872   -2.365519927    1.671685423
   4  C       6.00    0.001243241    2.365363438    1.673554025
   5  C       6.00   -2.365519927    0.001242872   -1.671685423
   6  H       1.00    2.404728004    1.675853668   -2.884871666
   7  H       1.00   -1.672410141   -2.405841930    2.884294100
   8  H       1.00    1.675853668    2.404728004    2.884871666
   9  H       1.00   -2.405841930   -1.672410141   -2.884294100
  10  H       1.00    4.079791103   -0.004161531   -0.518621712
  11  H       1.00   -0.004166170   -4.079034684    0.515399125
  12  H       1.00   -0.004161531    4.079791103    0.518621712
  13  H       1.00   -4.079034684   -0.004166170   -0.515399125
  14  H       1.00    2.407205216   -1.674879897   -2.882694451
  15  H       1.00    1.673372948   -2.403368617    2.886472880
  16  H       1.00   -1.674879897    2.407205216    2.882694451
  17  H       1.00   -2.403368617    1.673372948   -2.886472880

 Bond lengths in Bohr (Angstrom)

 1-2  2.897062795  1-3  2.897062795  1-4  2.897062795  1-5  2.897062795  2-6  2.067162325
     ( 1.533059604)     ( 1.533059604)     ( 1.533059604)     ( 1.533059604)     ( 1.093895190)

  2-10  2.067162326   2-14  2.067162325   3- 7  2.067162325   3-11  2.067162326   3-15  2.067162325
       ( 1.093895190)       ( 1.093895190)       ( 1.093895190)       ( 1.093895190)       ( 1.093895190)

  4- 8  2.067162325   4-12  2.067162326   4-16  2.067162325   5- 9  2.067162325   5-13  2.067162326
       ( 1.093895190)       ( 1.093895190)       ( 1.093895190)       ( 1.093895190)       ( 1.093895190)

  5-17  2.067162325
       ( 1.093895190)

 Bond angles

  1- 2- 6  110.74650440   1- 2-10  110.74650539   1- 2-14  110.74650538   1- 3- 7  110.74650551

  1- 3-11  110.74650449   1- 3-15  110.74650449   1- 4- 8  110.74650440   1- 4-12  110.74650539

  1- 4-16  110.74650538   1- 5- 9  110.74650551   1- 5-13  110.74650449   1- 5-17  110.74650449

  2-1-3  109.47122063   2-1-4  109.47122064   2-1-5  109.47122063   3-1-4  109.47122063

  3- 1- 5  109.47122064   4- 1- 5  109.47122063   6- 2-10  108.28323798   6- 2-14  108.28323797

  7- 3-11  108.04932997   7- 3-15  108.04932998   8- 4-12  108.28323798   8- 4-16  108.28323797

  9- 5-13  108.04932997   9- 5-17  108.04932998  10- 2-14  107.93237628  11- 3-15  108.40019160

 12- 4-16  107.93237628  13- 5-17  108.40019160

 NUCLEAR CHARGE:                   42
 NUMBER OF PRIMITIVE AOS:         219
 NUMBER OF SYMMETRY AOS:          214
 NUMBER OF CONTRACTIONS:          130   ( 130A   )
 NUMBER OF CORE ORBITALS:           5   (   5A   )
 NUMBER OF VALENCE ORBITALS:       32   (  32A   )


 NUCLEAR REPULSION ENERGY  198.63574290


 Eigenvalues of metric

         1 0.280E-02 0.503E-02 0.503E-02 0.503E-02 0.172E-01 0.189E-01 0.189E-01 0.190E-01


 Contracted 2-electron integrals neglected if value below      1.0D-16
 AO integral compression algorithm  1   Integral accuracy      1.0D-16

     302.776 MB (compressed) written to integral file ( 97.0%)

     Node minimum: 302.776 MB, node maximum: 302.776 MB


 NUMBER OF SORTED TWO-ELECTRON INTEGRALS:   36256870.     BUFFER LENGTH:  32768
 NUMBER OF SEGMENTS:   3  SEGMENT LENGTH:   15998004      RECORD LENGTH: 524288

 Memory used in sort:      16.56 MW

 SORT1 READ    38984508. AND WROTE    36197261. INTEGRALS IN    105 RECORDS. CPU TIME:     0.38 SEC, REAL TIME:     0.60 SEC
 SORT2 READ    36197261. AND WROTE    36256870. INTEGRALS IN   1155 RECORDS. CPU TIME:     0.29 SEC, REAL TIME:     0.44 SEC

 FILE SIZES:   FILE 1:   283.2 MBYTE,  FILE 4:   440.4 MBYTE,   TOTAL:    723.7 MBYTE

 OPERATOR DM      FOR CENTER  0  COORDINATES:    0.000000    0.000000    0.000000


 **********************************************************************************************************************************
 DATASETS  * FILE   NREC   LENGTH (MB)   RECORD NAMES
              1      19      283.44       500      610      700      900      950      970     1000      129      960     1100   
                                          VAR    BASINP    GEOM    SYMINP    ZMAT    AOBASIS   BASIS     P2S    ABASIS      S 
                                         1400     1410     1200     1210     1080     1600     1650     1300     1700   
                                           T        V       H0       H01     AOSYM     SMH    MOLCAS    ERIS     OPER   

 PROGRAMS   *        TOTAL       INT
 CPU TIMES  *         4.26      4.21
 REAL TIME  *         4.95 SEC
 DISK USED  *         1.03 GB      
 GA USED    *         0.01 MB       (max)       0.00 MB       (current)
 **********************************************************************************************************************************

1PROGRAM * RHF-SCF (CLOSED SHELL)       Authors: W. Meyer, H.-J. Werner


 NUMBER OF ELECTRONS:      21+   21-    SPACE SYMMETRY=1    SPIN SYMMETRY: Singlet 
 CONVERGENCE THRESHOLDS:    1.00E-10 (Density)    1.00E-13 (Energy)
 MAX. NUMBER OF ITERATIONS:      200
 INTERPOLATION TYPE:            DIIS
 INTERPOLATION STEPS:              2 (START)      1 (STEP)
 LEVEL SHIFTS:                  0.00 (CLOSED)  0.00 (OPEN) 



 Orbital guess generated from atomic densities. Full valence occupancy:   37

 Molecular orbital dump at record        2100.2

 ITERATION    DDIFF          GRAD             ENERGY        2-EL.EN.            DIPOLE MOMENTS         DIIS
    1      0.000D+00      0.000D+00      -196.27083622    527.751561   -0.00154   -0.00154    0.00000    0
    2      0.000D+00      0.467D-02      -196.33870826    522.016866   -0.00036   -0.00036   -0.00000    1
    3      0.930D-02      0.177D-02      -196.34649719    524.587337   -0.00071   -0.00071    0.00000    2
    4      0.346D-02      0.571D-03      -196.34764361    523.886112   -0.00057   -0.00057    0.00000    3
    5      0.114D-02      0.118D-03      -196.34767822    523.952460   -0.00058   -0.00058    0.00000    4
    6      0.198D-03      0.238D-04      -196.34767989    523.948722   -0.00058   -0.00058    0.00000    5
    7      0.659D-04      0.225D-05      -196.34767991    523.948487   -0.00058   -0.00058    0.00000    6
    8      0.683D-05      0.486D-06      -196.34767991    523.948445   -0.00058   -0.00058   -0.00000    6
    9      0.137D-05      0.701D-07      -196.34767991    523.948436   -0.00058   -0.00058    0.00000    5
   10      0.243D-06      0.935D-08      -196.34767991    523.948446   -0.00058   -0.00058   -0.00000    5
   11      0.314D-07      0.284D-08      -196.34767991    523.948442   -0.00058   -0.00058   -0.00000    5
   12      0.586D-08      0.104D-08      -196.34767991    523.948443   -0.00058   -0.00058   -0.00000    6
   13      0.212D-08      0.715D-10      -196.34767991    523.948443   -0.00058   -0.00058    0.00000    6
   14      0.158D-09      0.156D-10      -196.34767991    523.948443   -0.00058   -0.00058   -0.00000    6
   15      0.379D-10      0.379D-11      -196.34767991    523.948443   -0.00058   -0.00058   -0.00000    6
   16      0.112D-10      0.122D-11      -196.34767991    523.948443   -0.00058   -0.00058    0.00000    6
   17      0.252D-11      0.388D-12      -196.34767991    523.948443   -0.00058   -0.00058    0.00000    6
   18      0.116D-11      0.865D-13      -196.34767991    523.948443   -0.00058   -0.00058   -0.00000    6
   19      0.350D-12      0.442D-13      -196.34767991    523.948443   -0.00058   -0.00058   -0.00000    7
   20      0.181D-12      0.359D-13      -196.34767991    523.948443   -0.00058   -0.00058    0.00000    8
   21      0.114D-12      0.304D-13      -196.34767991    523.948443   -0.00058   -0.00058    0.00000    9
   22      0.679D-13      0.252D-13      -196.34767991    523.948443   -0.00058   -0.00058    0.00000    9
   23      0.586D-13      0.227D-13      -196.34767991    523.948443   -0.00058   -0.00058    0.00000    9
   24      0.372D-13      0.273D-13      -196.34767991    523.948443   -0.00058   -0.00058    0.00000    0

 Final occupancy:  21

 !RHF STATE 1.1 Energy               -196.347679912387
 Nuclear energy                       198.63574290
 One-electron energy                 -656.95764407
 Two-electron energy                  261.97422127
 Virial quotient                       -1.00117450
 !RHF STATE 1.1 Dipole moment          -0.00058022    -0.00058022     0.00000000
 Dipole moment /Debye                  -0.00147467    -0.00147467     0.00000000

 Orbital energies:

         1.1          2.1          3.1          4.1          5.1          6.1          7.1          8.1          9.1         10.1
    -11.230426   -11.214104   -11.214097   -11.214087   -11.214046    -1.103859    -0.927550    -0.927542    -0.927534    -0.728113

        11.1         12.1         13.1         14.1         15.1         16.1         17.1         18.1         19.1         20.1
     -0.609380    -0.609198    -0.609011    -0.550729    -0.550720    -0.508211    -0.507978    -0.507756    -0.450130    -0.450087

        21.1         22.1         23.1
     -0.450043     0.170598     0.231057


 **********************************************************************************************************************************
 DATASETS  * FILE   NREC   LENGTH (MB)   RECORD NAMES
              1      19      283.44       500      610      700      900      950      970     1000      129      960     1100   
                                          VAR    BASINP    GEOM    SYMINP    ZMAT    AOBASIS   BASIS     P2S    ABASIS      S 
                                         1400     1410     1200     1210     1080     1600     1650     1300     1700   
                                           T        V       H0       H01     AOSYM     SMH    MOLCAS    ERIS     OPER   

              2       3        0.89       700     1000     2100   
                                         GEOM     BASIS     RHF  

 PROGRAMS   *        TOTAL       RHF       INT
 CPU TIMES  *        10.79      6.53      4.21
 REAL TIME  *        12.26 SEC
 DISK USED  *         1.03 GB      
 GA USED    *         0.01 MB       (max)       0.00 MB       (current)
 **********************************************************************************************************************************


1PROGRAM * CCSD (Closed-shell coupled cluster)     Authors: C. Hampel, H.-J. Werner, 1991, M. Deegan, P.J. Knowles, 1992


 Convergence thresholds:  THRVAR = 1.00D-08  THRDEN = 1.00D-12

 CCSD(T)     terms to be evaluated (factor= 1.000)


 Number of core orbitals:           5 (   5 )
 Number of closed-shell orbitals:  16 (  16 )
 Number of external orbitals:     109 ( 109 )

 Molecular orbitals read from record     2100.2  Type=RHF/CANONICAL (state 1.1)

 Number of N-1 electron functions:              16
 Number of N-2 electron functions:             136
 Number of singly external CSFs:              1744
 Number of doubly external CSFs:           1521640
 Total number of CSFs:                     1523385

 Length of J-op  integral file:               0.00 MB
 Length of K-op  integral file:               1.20 MB
 Length of 3-ext integral record:             0.00 MB

 Memory could be reduced to 28.13 Mwords without degradation in triples

 Integral transformation finished. Total CPU:   1.89 sec, npass=  1  Memory used:  22.98 MW

 Reference energy:                   -196.34767991

 MP2 singlet pair energy:              -0.48846496
 MP2 triplet pair energy:              -0.25010827
 MP2 correlation energy:               -0.73857322
 MP2 total energy:                   -197.08625314

 SCS-MP2 correlation energy:           -0.74178087   (PS=  1.200000  PT=  0.333333)
 SCS-MP2 total energy:               -197.08946078

 ITER.      SQ.NORM     CORR.ENERGY   TOTAL ENERGY   ENERGY CHANGE        DEN1      VAR(S)    VAR(P)  DIIS     TIME
   1      1.28822334    -0.80658789  -197.15426780    -0.06801466    -0.04666642  0.17D-02  0.47D-02  1  1     6.91
   2      1.31153677    -0.81152151  -197.15920142    -0.00493362    -0.02353953  0.47D-04  0.32D-03  2  2    12.03
   3      1.31554556    -0.81167082  -197.15935073    -0.00014931    -0.00243444  0.53D-05  0.22D-04  3  3    17.14
   4      1.31658940    -0.81173315  -197.15941306    -0.00006233    -0.00046355  0.25D-06  0.12D-05  4  4    22.26
   5      1.31671532    -0.81173754  -197.15941745    -0.00000439    -0.00005128  0.15D-07  0.93D-07  5  5    27.38
   6      1.31672777    -0.81173512  -197.15941503     0.00000242    -0.00000845  0.69D-09  0.61D-08  6  6    32.51
   7      1.31672634    -0.81173539  -197.15941531    -0.00000028     0.00000063  0.16D-09  0.52D-09  6  1    37.64
   8      1.31672605    -0.81173554  -197.15941545    -0.00000015     0.00000027  0.79D-11  0.30D-10  6  2    42.77
   9      1.31672576    -0.81173559  -197.15941550    -0.00000005     0.00000025  0.11D-11  0.25D-11  6  3    47.90
  10      1.31672565    -0.81173560  -197.15941551    -0.00000001     0.00000009  0.90D-13  0.22D-12  6  4    53.02
  11      1.31672559    -0.81173560  -197.15941551    -0.00000000     0.00000004  0.96D-14  0.24D-13  6  5    58.15
  12      1.31672556    -0.81173560  -197.15941551    -0.00000000     0.00000002  0.91D-15  0.12D-14  6  1    63.29
  13      1.31672555    -0.81173560  -197.15941551    -0.00000000     0.00000000  0.80D-16  0.70D-16  6  6    68.41
  14      1.31672555    -0.81173560  -197.15941551    -0.00000000     0.00000000  0.15D-16  0.97D-17  6  2    73.54
  15      1.31672555    -0.81173560  -197.15941551    -0.00000000     0.00000000  0.13D-17  0.11D-17  6  3    78.67
  16      1.31672555    -0.81173560  -197.15941551     0.00000000    -0.00000000  0.69D-19  0.92D-19  6  4    83.80
  17      1.31672555    -0.81173560  -197.15941551     0.00000000    -0.00000000  0.33D-20  0.86D-20  6  5    88.94
  18      1.31672555    -0.81173560  -197.15941551     0.00000000    -0.00000000  0.38D-21  0.12D-20  6  1    94.06
  19      1.31672555    -0.81173560  -197.15941551     0.00000000    -0.00000000  0.30D-22  0.17D-21  6  6    99.20

 Norm of t1 vector:      0.05469587      S-energy:    -0.00000000      T1 diagnostic:  0.00683698
                                                                       D1 diagnostic:  0.01260229


 Total CPU time for triples:     81.31 sec


 RESULTS
 =======

  Reference energy                   -196.347679912388
  CCSD singlet pair energy             -0.577593206001
  CCSD triplet pair energy             -0.234142394974
  CCSD correlation energy              -0.811735600975

  Triples (T) contribution             -0.023947148614
  Total correlation energy             -0.835682749590

  CCSD total energy                  -197.159415513363
  CCSD[T] energy                     -197.183821795392
  CCSD-T energy                      -197.183114027890
 !CCSD(T) total energy               -197.183362661977

 Timing summary (sec):

 STEP                 CPU(USER)    SYS     CPU(TOT)    WALL
 Transformation          1.96      0.18      2.14      2.15
 CCSD iterations        97.24      2.11     99.35     99.42
 Triples                81.31      1.60     82.91     82.91

 Program statistics:

 Available memory in ccsd:               999998876
 Min. memory needed in ccsd:               3966807
 Max. memory used in ccsd:                 5311887
 Max. memory used in cckext:               4858018 (19 integral passes)



 **********************************************************************************************************************************
 DATASETS  * FILE   NREC   LENGTH (MB)   RECORD NAMES
              1      20      395.15       500      610      700      900      950      970     1000      129      960     1100   
                                          VAR    BASINP    GEOM    SYMINP    ZMAT    AOBASIS   BASIS     P2S    ABASIS      S 
                                         1400     1410     1200     1210     1080     1600     1650     1300     1700     1380   
                                           T        V       H0       H01     AOSYM     SMH    MOLCAS    ERIS     OPER     JKOP   

              2       3        0.89       700     1000     2100   
                                         GEOM     BASIS     RHF  

 PROGRAMS   *        TOTAL   CCSD(T)       RHF       INT
 CPU TIMES  *       191.31    180.52      6.53      4.21
 REAL TIME  *       196.79 SEC
 DISK USED  *         1.03 GB      
 GA USED    *         0.01 MB       (max)       0.00 MB       (current)
 **********************************************************************************************************************************

        CCSD(T)         RHF-SCF 
   -197.18336266   -196.34767991
 **********************************************************************************************************************************
 Variable memory released
