
 Primary working directories    : /tmp/1065196.1075.gen4.q
 Secondary working directories  : /tmp/1065196.1075.gen4.q
 Wavefunction directory         : /home/vulcan/jj04645/wfu/
 Main file repository           : /tmp/1065196.1075.gen4.q/

 ARCHNAME  : Linux/x86_64
 FC        : /opt/intel/compilers_and_libraries_2016.1.150/linux/bin/intel64/ifort
 FCVERSION : 16.0.1
 BLASLIB   : -mkl
 id        : ccgc

 Nodes     nprocs
 n054         1
 ga_uses_ma=false, calling ma_init with nominal heap.
 GA-space will be limited to   8.0 MW (determined by -G option)

 Using customized tuning parameters: mindgm=10; mindgv=16; mindgc=4; mindgr=1; noblas=0; mincuda=1000; minvec=7
 default implementation of scratch files=df  

 ***,Optimization of t-butanol
 memory,1000,m
 gthresh,energy=1.0d-12,orbital=1.0d-10,oneint=1.0d-16,twoint=1.0d-16,optgrad=1.0d-6,compress=1.0d-13
 geomtyp=xyz
 
 bohr
 geometry = {
  C   -0.0019096313   -0.0570075984   -0.0018528086
  O   -0.0281025424    2.6557684307   -0.0021202507
  C   -2.7748243991   -0.8310315401   -0.0018240239
  C    1.3411292919   -1.0173149833   -2.3724312489
  C    1.3410482503   -1.0168483304    2.3689605247
  H    1.7047162807    3.2095851522   -0.0021451400
  H   -2.9535904918   -2.8870464808   -0.0016247242
  H   -3.7174691189   -0.0806573497   -1.6760306963
  H   -3.7175263506   -0.0803278108    1.6722026834
  H    1.3142169671   -3.0809130723   -2.4492004897
  H    3.3147683471   -0.3990827236   -2.3799759237
  H    0.4116025032   -0.2706790383   -4.0555939465
  H    1.3200306375   -3.0800972669    2.4562356553
  H    3.3163003740   -0.4040005736    2.3867325514
  H    0.4192224436   -0.2754656136    4.0586678375
 }
 
 basis=VDZ
 {rhf;maxit,200}
 {ccsd(t);maxit,200}

 Variables initialized (661), CPU time= 0.00 sec
 Commands  initialized (458), CPU time= 0.01 sec, 486 directives.
 Default parameters read. Elapsed time= 0.04 sec

 Checking input...
 Passed
1


                                         ***  PROGRAM SYSTEM MOLPRO  ***
                         Copyright, University College Cardiff Consultants Limited, 2008

                                    Version 2010.1 linked May 16 2016 07:17:05


 **********************************************************************************************************************************
 LABEL *   Optimization of t-butanol                                                     
 Linux-4.4.3/n054(x86_64) 64 bit mpp version                                             DATE: 20-May-24          TIME: 14:58:20  
 **********************************************************************************************************************************

 SHA1:             9e8077add272b0f3cad6f7df79ec5211205f459d
 **********************************************************************************************************************************

 THRESHOLDS:

 ZERO    =  1.00D-12  ONEINT  =  1.00D-16  TWOINT  =  1.00D-16  PREFAC  =  1.00D-14  LOCALI  =  1.00D-09  EORDER  =  1.00D-04
 ENERGY  =  1.00D-12  ETEST   =  0.00D+00  EDENS   =  0.00D+00  THRDEDEF=  1.00D-06  GRADIENT=  1.00D-02  STEP    =  1.00D-03
 ORBITAL =  1.00D-10  CIVEC   =  1.00D-05  COEFF   =  1.00D-04  PRINTCI =  5.00D-02  PUNCHCI =  9.90D+01  OPTGRAD =  1.00D-06
 OPTENERG=  1.00D-06  OPTSTEP =  3.00D-04  THRGRAD =  1.00D-10  COMPRESS=  1.00D-13  VARMIN  =  1.00D-07  VARMAX  =  1.00D-03
 THRDOUB =  0.00D+00  THRDIV  =  1.00D-05  THRRED  =  1.00D-07  THRPSP  =  1.00D+00  THRDC   =  1.00D-10  THRCS   =  1.00D-10
 THRNRM  =  1.00D-08  THREQ   =  0.00D+00  THRDE   =  1.00D+00  THRREF  =  1.00D-05  SPARFAC =  1.00D+00  THRDLP  =  1.00D-07
 THRDIA  =  1.00D-10  THRDLS  =  1.00D-07  THRGPS  =  0.00D+00  THRKEX  =  0.00D+00  THRDIS  =  2.00D-01  THRVAR  =  1.00D-10
 THRLOC  =  1.00D-06  THRGAP  =  1.00D-06  THRLOCT = -1.00D+00  THRGAPT = -1.00D+00  THRORB  =  1.00D-06  THRMLTP =  0.00D+00
 THRCPQCI=  1.00D-10  KEXTA   =  0.00D+00  THRCOARS=  0.00D+00  SYMTOL  =  1.00D-06  GRADTOL =  1.00D-06  THROVL  =  1.00D-08
 THRORTH =  1.00D-08  GRID    =  1.00D-06  GRIDMAX =  1.00D-03  DTMAX   =  0.00D+00

 SETTING GEOMTYP        =    XYZ
 ZUNIT=BOHR
 

 Variable memory set to 1000000000 words,  buffer space   230000 words

 SETTING BASIS          =    VDZ


 Recomputing integrals since basis changed


 Using spherical harmonics

 Library entry C      S cc-pVDZ              selected for orbital group  1
 Library entry C      P cc-pVDZ              selected for orbital group  1
 Library entry C      D cc-pVDZ              selected for orbital group  1
 Library entry O      S cc-pVDZ              selected for orbital group  2
 Library entry O      P cc-pVDZ              selected for orbital group  2
 Library entry O      D cc-pVDZ              selected for orbital group  2
 Library entry H      S cc-pVDZ              selected for orbital group  4
 Library entry H      P cc-pVDZ              selected for orbital group  4

1PROGRAM * SEWARD (Integral evaluation for generally contracted gaussian basis sets)     Author: Roland Lindh, 1990

 Geometry written to block  1 of record 700


 Point group  C1  



 ATOMIC COORDINATES

 NR  ATOM    CHARGE       X              Y              Z

   1  C       6.00   -0.001909631   -0.057007598   -0.001852809
   2  O       8.00   -0.028102542    2.655768431   -0.002120251
   3  C       6.00   -2.774824399   -0.831031540   -0.001824024
   4  C       6.00    1.341129292   -1.017314983   -2.372431249
   5  C       6.00    1.341048250   -1.016848330    2.368960525
   6  H       1.00    1.704716281    3.209585152   -0.002145140
   7  H       1.00   -2.953590492   -2.887046481   -0.001624724
   8  H       1.00   -3.717469119   -0.080657350   -1.676030696
   9  H       1.00   -3.717526351   -0.080327811    1.672202683
  10  H       1.00    1.314216967   -3.080913072   -2.449200490
  11  H       1.00    3.314768347   -0.399082724   -2.379975924
  12  H       1.00    0.411602503   -0.270679038   -4.055593947
  13  H       1.00    1.320030637   -3.080097267    2.456235655
  14  H       1.00    3.316300374   -0.404000574    2.386732551
  15  H       1.00    0.419222444   -0.275465614    4.058667837

 Bond lengths in Bohr (Angstrom)

 1-2  2.712902491  1-3  2.878918091  1-4  2.888872784  1-5  2.888872784  2-6  1.819168501
     ( 1.435606168)     ( 1.523457840)     ( 1.528725637)     ( 1.528725637)     ( 0.962662510)

  3- 7  2.063771982   3- 8  2.062670229   3- 9  2.062670229   4-10  2.065200925   4-11  2.068216422
       ( 1.092101097)       ( 1.091518075)       ( 1.091518075)       ( 1.092857262)       ( 1.094452994)

  4-12  2.062649256   5-13  2.065200925   5-14  2.068216422   5-15  2.062649256
       ( 1.091506976)       ( 1.092857262)       ( 1.094452994)       ( 1.091506976)

 Bond angles

  1-2-6  107.17091859   1-3-7  110.56564859   1-3-8  110.02067675   1-3-9  110.02067681

  1- 4-10  110.89173654   1- 4-11  110.32035113   1- 4-12  109.86368384   1- 5-13  111.21636148

  1- 5-14  110.64497910   1- 5-15  110.18830895   2- 1- 3  105.04320471   2- 1- 4  109.68252791

  2-1-5  109.68252792   3-1-4  111.00306355   3-1-5  111.00306355   4-1-5  110.29583362

  7- 3- 8  108.83916947   7- 3- 9  108.83916953   8- 3- 9  108.51019466  10- 4-11  108.11880086

 10- 4-12  108.99538064  11- 4-12  108.59397748  13- 5-14  107.78183385  13- 5-15  108.65840819

 14- 5-15  108.25701096

 NUCLEAR CHARGE:                   42
 NUMBER OF PRIMITIVE AOS:         205
 NUMBER OF SYMMETRY AOS:          200
 NUMBER OF CONTRACTIONS:          120   ( 120A   )
 NUMBER OF CORE ORBITALS:           5   (   5A   )
 NUMBER OF VALENCE ORBITALS:       30   (  30A   )


 NUCLEAR REPULSION ENERGY  199.65188144


 Eigenvalues of metric

         1 0.261E-02 0.488E-02 0.490E-02 0.834E-02 0.169E-01 0.191E-01 0.192E-01 0.240E-01


 Contracted 2-electron integrals neglected if value below      1.0D-16
 AO integral compression algorithm  1   Integral accuracy      1.0D-16

     220.725 MB (compressed) written to integral file ( 96.5%)

     Node minimum: 220.725 MB, node maximum: 220.725 MB


 NUMBER OF SORTED TWO-ELECTRON INTEGRALS:   26357430.     BUFFER LENGTH:  32768
 NUMBER OF SEGMENTS:   2  SEGMENT LENGTH:   15997996      RECORD LENGTH: 524288

 Memory used in sort:      16.56 MW

 SORT1 READ    28587668. AND WROTE    26318560. INTEGRALS IN     76 RECORDS. CPU TIME:     0.28 SEC, REAL TIME:     0.43 SEC
 SORT2 READ    26318560. AND WROTE    26357430. INTEGRALS IN    842 RECORDS. CPU TIME:     0.23 SEC, REAL TIME:     0.33 SEC

 FILE SIZES:   FILE 1:   206.2 MBYTE,  FILE 4:   318.8 MBYTE,   TOTAL:    525.0 MBYTE

 OPERATOR DM      FOR CENTER  0  COORDINATES:    0.000000    0.000000    0.000000


 **********************************************************************************************************************************
 DATASETS  * FILE   NREC   LENGTH (MB)   RECORD NAMES
              1      19      206.33       500      610      700      900      950      970     1000      129      960     1100   
                                          VAR    BASINP    GEOM    SYMINP    ZMAT    AOBASIS   BASIS     P2S    ABASIS      S 
                                         1400     1410     1200     1210     1080     1600     1650     1300     1700   
                                           T        V       H0       H01     AOSYM     SMH    MOLCAS    ERIS     OPER   

 PROGRAMS   *        TOTAL       INT
 CPU TIMES  *         3.10      3.05
 REAL TIME  *         3.64 SEC
 DISK USED  *       746.64 MB      
 GA USED    *         0.01 MB       (max)       0.00 MB       (current)
 **********************************************************************************************************************************

1PROGRAM * RHF-SCF (CLOSED SHELL)       Authors: W. Meyer, H.-J. Werner


 NUMBER OF ELECTRONS:      21+   21-    SPACE SYMMETRY=1    SPIN SYMMETRY: Singlet 
 CONVERGENCE THRESHOLDS:    1.00E-10 (Density)    1.00E-13 (Energy)
 MAX. NUMBER OF ITERATIONS:      200
 INTERPOLATION TYPE:            DIIS
 INTERPOLATION STEPS:              2 (START)      1 (STEP)
 LEVEL SHIFTS:                  0.00 (CLOSED)  0.00 (OPEN) 



 Orbital guess generated from atomic densities. Full valence occupancy:   35

 Molecular orbital dump at record        2100.2

 ITERATION    DDIFF          GRAD             ENERGY        2-EL.EN.            DIPOLE MOMENTS         DIIS
    1      0.000D+00      0.000D+00      -232.08677863    561.119343    0.88867   -0.62574    0.00305    0
    2      0.000D+00      0.616D-02      -232.16305010    555.895042    0.40906   -0.32501    0.00108    1
    3      0.122D-01      0.265D-02      -232.17372560    557.893560    0.52930   -0.43097    0.00113    2
    4      0.389D-02      0.733D-03      -232.17502555    557.665483    0.50247   -0.39477    0.00100    3
    5      0.141D-02      0.192D-03      -232.17510270    557.602464    0.50179   -0.40699    0.00091    4
    6      0.307D-03      0.357D-04      -232.17510574    557.622591    0.50115   -0.40533    0.00089    5
    7      0.899D-04      0.659D-05      -232.17510588    557.616946    0.50109   -0.40549    0.00089    6
    8      0.185D-04      0.211D-05      -232.17510590    557.618532    0.50110   -0.40559    0.00088    7
    9      0.400D-05      0.682D-06      -232.17510590    557.618182    0.50106   -0.40560    0.00088    7
   10      0.155D-05      0.190D-06      -232.17510590    557.618236    0.50107   -0.40562    0.00088    7
   11      0.503D-06      0.388D-07      -232.17510590    557.618225    0.50107   -0.40562    0.00088    7
   12      0.123D-06      0.118D-07      -232.17510590    557.618233    0.50107   -0.40562    0.00088    7
   13      0.239D-07      0.517D-08      -232.17510590    557.618231    0.50107   -0.40562    0.00088    7
   14      0.101D-07      0.167D-08      -232.17510590    557.618230    0.50107   -0.40562    0.00088    8
   15      0.298D-08      0.437D-09      -232.17510590    557.618231    0.50107   -0.40562    0.00088    8
   16      0.106D-08      0.108D-09      -232.17510590    557.618230    0.50107   -0.40562    0.00088    7
   17      0.250D-09      0.295D-10      -232.17510590    557.618230    0.50107   -0.40562    0.00088    7
   18      0.774D-10      0.857D-11      -232.17510590    557.618230    0.50107   -0.40562    0.00088    8
   19      0.172D-10      0.235D-11      -232.17510590    557.618230    0.50107   -0.40562    0.00088    8
   20      0.648D-11      0.780D-12      -232.17510590    557.618230    0.50107   -0.40562    0.00088    7
   21      0.189D-11      0.268D-12      -232.17510590    557.618230    0.50107   -0.40562    0.00088    7
   22      0.615D-12      0.971D-13      -232.17510590    557.618230    0.50107   -0.40562    0.00088    7
   23      0.343D-12      0.438D-13      -232.17510590    557.618230    0.50107   -0.40562    0.00088    8
   24      0.182D-12      0.342D-13      -232.17510590    557.618230    0.50107   -0.40562    0.00088    9
   25      0.110D-12      0.346D-13      -232.17510590    557.618230    0.50107   -0.40562    0.00088    9
   26      0.859D-13      0.265D-13      -232.17510590    557.618230    0.50107   -0.40562    0.00088    9
   27      0.472D-13      0.246D-13      -232.17510590    557.618230    0.50107   -0.40562    0.00088    9
   28      0.530D-13      0.369D-13      -232.17510590    557.618230    0.50107   -0.40562    0.00088    9
   29      0.145D-13      0.323D-13      -232.17510590    557.618230    0.50107   -0.40562    0.00088    9
   30      0.238D-13      0.241D-13      -232.17510590    557.618230    0.50107   -0.40562    0.00088    0

 Final occupancy:  21

 !RHF STATE 1.1 Energy               -232.175105897079
 Nuclear energy                       199.65188144
 One-electron energy                 -710.63610258
 Two-electron energy                  278.80911525
 Virial quotient                       -1.00088972
 !RHF STATE 1.1 Dipole moment           0.50106862    -0.40561918     0.00088343
 Dipole moment /Debye                   1.27350598    -1.03091360     0.00224530

 Orbital energies:

         1.1          2.1          3.1          4.1          5.1          6.1          7.1          8.1          9.1         10.1
    -20.545130   -11.282130   -11.220415   -11.220318   -11.214632    -1.352190    -1.064282    -0.939530    -0.938636    -0.766744

        11.1         12.1         13.1         14.1         15.1         16.1         17.1         18.1         19.1         20.1
     -0.665539    -0.620965    -0.618009    -0.573678    -0.553649    -0.527944    -0.514491    -0.505385    -0.499964    -0.458859

        21.1         22.1         23.1
     -0.426447     0.166835     0.220221


 **********************************************************************************************************************************
 DATASETS  * FILE   NREC   LENGTH (MB)   RECORD NAMES
              1      19      206.33       500      610      700      900      950      970     1000      129      960     1100   
                                          VAR    BASINP    GEOM    SYMINP    ZMAT    AOBASIS   BASIS     P2S    ABASIS      S 
                                         1400     1410     1200     1210     1080     1600     1650     1300     1700   
                                           T        V       H0       H01     AOSYM     SMH    MOLCAS    ERIS     OPER   

              2       3        0.80       700     1000     2100   
                                         GEOM     BASIS     RHF  

 PROGRAMS   *        TOTAL       RHF       INT
 CPU TIMES  *         8.98      5.88      3.05
 REAL TIME  *        10.25 SEC
 DISK USED  *       746.64 MB      
 GA USED    *         0.01 MB       (max)       0.00 MB       (current)
 **********************************************************************************************************************************


1PROGRAM * CCSD (Closed-shell coupled cluster)     Authors: C. Hampel, H.-J. Werner, 1991, M. Deegan, P.J. Knowles, 1992


 Convergence thresholds:  THRVAR = 1.00D-08  THRDEN = 1.00D-12

 CCSD(T)     terms to be evaluated (factor= 1.000)


 Number of core orbitals:           5 (   5 )
 Number of closed-shell orbitals:  16 (  16 )
 Number of external orbitals:      99 (  99 )

 Molecular orbitals read from record     2100.2  Type=RHF/CANONICAL (state 1.1)

 Number of N-1 electron functions:              16
 Number of N-2 electron functions:             136
 Number of singly external CSFs:              1584
 Number of doubly external CSFs:           1255320
 Total number of CSFs:                     1256905

 Length of J-op  integral file:               0.00 MB
 Length of K-op  integral file:               1.03 MB
 Length of 3-ext integral record:             0.00 MB

 Memory could be reduced to 21.47 Mwords without degradation in triples

 Integral transformation finished. Total CPU:   1.41 sec, npass=  1  Memory used:  18.35 MW

 Reference energy:                   -232.17510590

 MP2 singlet pair energy:              -0.49759717
 MP2 triplet pair energy:              -0.27475715
 MP2 correlation energy:               -0.77235432
 MP2 total energy:                   -232.94746022

 SCS-MP2 correlation energy:           -0.76807661   (PS=  1.200000  PT=  0.333333)
 SCS-MP2 total energy:               -232.94318251

 ITER.      SQ.NORM     CORR.ENERGY   TOTAL ENERGY   ENERGY CHANGE        DEN1      VAR(S)    VAR(P)  DIIS     TIME
   1      1.27363436    -0.82955253  -233.00465843    -0.05719821    -0.03605831  0.25D-02  0.44D-02  1  1     5.34
   2      1.29482088    -0.83387320  -233.00897909    -0.00432067    -0.02220534  0.67D-04  0.42D-03  2  2     9.34
   3      1.29934794    -0.83408340  -233.00918929    -0.00021020    -0.00277733  0.25D-04  0.24D-04  3  3    13.33
   4      1.30061671    -0.83408923  -233.00919513    -0.00000584    -0.00060354  0.64D-06  0.21D-05  4  4    17.32
   5      1.30084849    -0.83409820  -233.00920410    -0.00000897    -0.00008112  0.19D-06  0.15D-06  5  5    21.32
   6      1.30088976    -0.83409493  -233.00920083     0.00000327    -0.00001322  0.26D-07  0.14D-07  6  6    25.32
   7      1.30089672    -0.83409371  -233.00919961     0.00000122    -0.00000072  0.38D-08  0.17D-08  6  1    29.33
   8      1.30090030    -0.83409372  -233.00919962    -0.00000001    -0.00000042  0.68D-09  0.22D-09  6  2    33.36
   9      1.30090088    -0.83409366  -233.00919955     0.00000007     0.00000057  0.64D-10  0.39D-10  6  4    37.37
  10      1.30090146    -0.83409365  -233.00919954     0.00000001    -0.00000001  0.51D-11  0.38D-11  6  3    41.36
  11      1.30090144    -0.83409365  -233.00919954    -0.00000000     0.00000005  0.78D-12  0.47D-12  6  5    45.37
  12      1.30090138    -0.83409365  -233.00919955    -0.00000000     0.00000003  0.14D-12  0.66D-13  6  6    49.37
  13      1.30090132    -0.83409365  -233.00919955    -0.00000000     0.00000003  0.11D-13  0.10D-13  6  2    53.37
  14      1.30090131    -0.83409365  -233.00919955    -0.00000000     0.00000001  0.17D-14  0.61D-15  6  1    57.37
  15      1.30090131    -0.83409365  -233.00919955    -0.00000000     0.00000000  0.22D-15  0.13D-15  6  4    61.37
  16      1.30090131    -0.83409365  -233.00919955     0.00000000    -0.00000000  0.35D-16  0.20D-16  6  3    65.37
  17      1.30090131    -0.83409365  -233.00919955     0.00000000    -0.00000000  0.33D-17  0.26D-17  6  5    69.37
  18      1.30090131    -0.83409365  -233.00919955    -0.00000000    -0.00000000  0.89D-18  0.35D-18  6  6    73.37
  19      1.30090131    -0.83409365  -233.00919955    -0.00000000    -0.00000000  0.22D-18  0.63D-19  6  2    77.37
  20      1.30090131    -0.83409365  -233.00919955    -0.00000000     0.00000000  0.33D-19  0.12D-19  6  1    81.38
  21      1.30090131    -0.83409365  -233.00919955    -0.00000000     0.00000000  0.41D-20  0.21D-20  6  4    85.39
  22      1.30090131    -0.83409365  -233.00919955     0.00000000    -0.00000000  0.70D-21  0.32D-21  6  3    89.38

 Norm of t1 vector:      0.06605904      S-energy:    -0.00000000      T1 diagnostic:  0.00825738
                                                                       D1 diagnostic:  0.02162238


 Total CPU time for triples:     60.23 sec


 RESULTS
 =======

  Reference energy                   -232.175105897079
  CCSD singlet pair energy             -0.581024353998
  CCSD triplet pair energy             -0.253069298907
  CCSD correlation energy              -0.834093652906

  Triples (T) contribution             -0.023261388289
  Total correlation energy             -0.857355041194

  CCSD total energy                  -233.009199549985
  CCSD[T] energy                     -233.033157933264
  CCSD-T energy                      -233.032124863633
 !CCSD(T) total energy               -233.032460938273

 Timing summary (sec):

 STEP                 CPU(USER)    SYS     CPU(TOT)    WALL
 Transformation          1.47      0.14      1.61      1.60
 CCSD iterations        87.92      1.96     89.88     89.94
 Triples                60.23      1.15     61.38     61.41

 Program statistics:

 Available memory in ccsd:               999998876
 Min. memory needed in ccsd:               3310297
 Max. memory used in ccsd:                 4412497
 Max. memory used in cckext:               4149679 (22 integral passes)



 **********************************************************************************************************************************
 DATASETS  * FILE   NREC   LENGTH (MB)   RECORD NAMES
              1      20      292.99       500      610      700      900      950      970     1000      129      960     1100   
                                          VAR    BASINP    GEOM    SYMINP    ZMAT    AOBASIS   BASIS     P2S    ABASIS      S 
                                         1400     1410     1200     1210     1080     1600     1650     1300     1700     1380   
                                           T        V       H0       H01     AOSYM     SMH    MOLCAS    ERIS     OPER     JKOP   

              2       3        0.80       700     1000     2100   
                                         GEOM     BASIS     RHF  

 PROGRAMS   *        TOTAL   CCSD(T)       RHF       INT
 CPU TIMES  *       158.61    149.63      5.88      3.05
 REAL TIME  *       163.25 SEC
 DISK USED  *       746.64 MB      
 GA USED    *         0.01 MB       (max)       0.00 MB       (current)
 **********************************************************************************************************************************

        CCSD(T)         RHF-SCF 
   -233.03246094   -232.17510590
 **********************************************************************************************************************************
 Variable memory released
