
 Primary working directories    : /tmp/1065196.417.gen4.q
 Secondary working directories  : /tmp/1065196.417.gen4.q
 Wavefunction directory         : /home/vulcan/jj04645/wfu/
 Main file repository           : /tmp/1065196.417.gen4.q/

 ARCHNAME  : Linux/x86_64
 FC        : /opt/intel/compilers_and_libraries_2016.1.150/linux/bin/intel64/ifort
 FCVERSION : 16.0.1
 BLASLIB   : -mkl
 id        : ccgc

 Nodes     nprocs
 n027         1
 ga_uses_ma=false, calling ma_init with nominal heap.
 GA-space will be limited to   8.0 MW (determined by -G option)

 Using customized tuning parameters: mindgm=10; mindgv=16; mindgc=4; mindgr=1; noblas=0; mincuda=1000; minvec=7
 default implementation of scratch files=df  

 ***,Optimization of t-butanol
 memory,1000,m
 gthresh,energy=1.0d-12,orbital=1.0d-10,oneint=1.0d-16,twoint=1.0d-16,optgrad=1.0d-6,compress=1.0d-13
 geomtyp=xyz
 
 bohr
 geometry = {
  C    0.0049687801   -0.0557443444   -0.0000000007
  O   -0.0243989402    2.6569991859   -0.0000000010
  C   -2.7670947749   -0.8328112783   -0.0000000014
  C    1.3373252722   -1.0141754507   -2.3773560860
  C    1.3373252707   -1.0141754501    2.3773560858
  H    1.7077705515    3.2128434875   -0.0000000006
  H   -2.9431103524   -2.8832688506   -0.0000000010
  H   -3.7079504271   -0.0854053038   -1.6694307713
  H   -3.7079504193   -0.0854053107    1.6694307759
  H    1.3095156603   -3.0779471428   -2.4489653870
  H    3.3127044920   -0.4020297613   -2.4033130431
  H    0.4041436509   -0.2770108390   -4.0626698106
  H    1.3095156588   -3.0779471421    2.4489653873
  H    3.3127044905   -0.4020297606    2.4033130440
  H    0.4041436484   -0.2770108378    4.0626698096
 }
 
 basis=VDZ
 {rhf;maxit,200}
 {ccsd(t);maxit,200}

 Variables initialized (661), CPU time= 0.01 sec
 Commands  initialized (458), CPU time= 0.00 sec, 486 directives.
 Default parameters read. Elapsed time= 0.06 sec

 Checking input...
 Passed
1


                                         ***  PROGRAM SYSTEM MOLPRO  ***
                         Copyright, University College Cardiff Consultants Limited, 2008

                                    Version 2010.1 linked May 16 2016 07:17:05


 **********************************************************************************************************************************
 LABEL *   Optimization of t-butanol                                                     
 Linux-4.4.3/n027(x86_64) 64 bit mpp version                                             DATE: 20-May-24          TIME: 11:51:35  
 **********************************************************************************************************************************

 SHA1:             9e8077add272b0f3cad6f7df79ec5211205f459d
 **********************************************************************************************************************************

 THRESHOLDS:

 ZERO    =  1.00D-12  ONEINT  =  1.00D-16  TWOINT  =  1.00D-16  PREFAC  =  1.00D-14  LOCALI  =  1.00D-09  EORDER  =  1.00D-04
 ENERGY  =  1.00D-12  ETEST   =  0.00D+00  EDENS   =  0.00D+00  THRDEDEF=  1.00D-06  GRADIENT=  1.00D-02  STEP    =  1.00D-03
 ORBITAL =  1.00D-10  CIVEC   =  1.00D-05  COEFF   =  1.00D-04  PRINTCI =  5.00D-02  PUNCHCI =  9.90D+01  OPTGRAD =  1.00D-06
 OPTENERG=  1.00D-06  OPTSTEP =  3.00D-04  THRGRAD =  1.00D-10  COMPRESS=  1.00D-13  VARMIN  =  1.00D-07  VARMAX  =  1.00D-03
 THRDOUB =  0.00D+00  THRDIV  =  1.00D-05  THRRED  =  1.00D-07  THRPSP  =  1.00D+00  THRDC   =  1.00D-10  THRCS   =  1.00D-10
 THRNRM  =  1.00D-08  THREQ   =  0.00D+00  THRDE   =  1.00D+00  THRREF  =  1.00D-05  SPARFAC =  1.00D+00  THRDLP  =  1.00D-07
 THRDIA  =  1.00D-10  THRDLS  =  1.00D-07  THRGPS  =  0.00D+00  THRKEX  =  0.00D+00  THRDIS  =  2.00D-01  THRVAR  =  1.00D-10
 THRLOC  =  1.00D-06  THRGAP  =  1.00D-06  THRLOCT = -1.00D+00  THRGAPT = -1.00D+00  THRORB  =  1.00D-06  THRMLTP =  0.00D+00
 THRCPQCI=  1.00D-10  KEXTA   =  0.00D+00  THRCOARS=  0.00D+00  SYMTOL  =  1.00D-06  GRADTOL =  1.00D-06  THROVL  =  1.00D-08
 THRORTH =  1.00D-08  GRID    =  1.00D-06  GRIDMAX =  1.00D-03  DTMAX   =  0.00D+00

 SETTING GEOMTYP        =    XYZ
 ZUNIT=BOHR
 

 Variable memory set to 1000000000 words,  buffer space   230000 words

 SETTING BASIS          =    VDZ


 Recomputing integrals since basis changed


 Using spherical harmonics

 Library entry C      S cc-pVDZ              selected for orbital group  1
 Library entry C      P cc-pVDZ              selected for orbital group  1
 Library entry C      D cc-pVDZ              selected for orbital group  1
 Library entry O      S cc-pVDZ              selected for orbital group  2
 Library entry O      P cc-pVDZ              selected for orbital group  2
 Library entry O      D cc-pVDZ              selected for orbital group  2
 Library entry H      S cc-pVDZ              selected for orbital group  4
 Library entry H      P cc-pVDZ              selected for orbital group  4

1PROGRAM * SEWARD (Integral evaluation for generally contracted gaussian basis sets)     Author: Roland Lindh, 1990

 Geometry written to block  1 of record 700


 Point group  Cs  



 ATOMIC COORDINATES

 NR  ATOM    CHARGE       X              Y              Z

   1  C       6.00    0.004968780   -0.055744344    0.000000000
   2  O       8.00   -0.024398940    2.656999186    0.000000000
   3  C       6.00   -2.767094775   -0.832811278    0.000000000
   4  C       6.00    1.337325271   -1.014175450   -2.377356086
   5  C       6.00    1.337325271   -1.014175450    2.377356086
   6  H       1.00    1.707770551    3.212843487    0.000000000
   7  H       1.00   -2.943110352   -2.883268851    0.000000000
   8  H       1.00   -3.707950423   -0.085405307   -1.669430774
   9  H       1.00   -3.707950423   -0.085405307    1.669430774
  10  H       1.00    1.309515660   -3.077947142   -2.448965387
  11  H       1.00    1.309515660   -3.077947142    2.448965387
  12  H       1.00    3.312704491   -0.402029761   -2.403313044
  13  H       1.00    3.312704491   -0.402029761    2.403313044
  14  H       1.00    0.404143650   -0.277010838   -4.062669810
  15  H       1.00    0.404143650   -0.277010838    4.062669810

 Bond lengths in Bohr (Angstrom)

 1-2  2.712902491  1-3  2.878918091  1-4  2.888872784  1-5  2.888872784  2-6  1.819168501
     ( 1.435606168)     ( 1.523457840)     ( 1.528725637)     ( 1.528725637)     ( 0.962662510)

  3- 7  2.057998479   3- 8  2.056896727   3- 9  2.056896727   4-10  2.065200926   4-12  2.068216423
       ( 1.089045891)       ( 1.088462869)       ( 1.088462869)       ( 1.092857262)       ( 1.094452994)

  4-14  2.062649256   5-11  2.065200926   5-13  2.068216423   5-15  2.062649256
       ( 1.091506976)       ( 1.092857262)       ( 1.094452994)       ( 1.091506976)

 Bond angles

  1-2-6  107.17091859   1-3-7  110.56564859   1-3-8  110.02067682   1-3-9  110.02067682

  1- 4-10  110.72365787   1- 4-12  110.64846805   1- 4-14  110.19179929   1- 5-11  110.72365787

  1- 5-13  110.64846805   1- 5-15  110.19179929   2- 1- 3  105.03903602   2- 1- 4  109.67835923

  2-1-5  109.67835923   3-1-4  110.76498583   3-1-5  110.76498583   4-1-5  110.75948302

  7- 3- 8  108.83916946   7- 3- 9  108.83916946   8- 3- 9  108.51019467  10- 4-12  107.95072352

 10- 4-14  108.82730054  11- 5-13  107.95072352  11- 5-15  108.82730054  12- 4-14  108.42589655

 13- 5-15  108.42589655

 NUCLEAR CHARGE:                   42
 NUMBER OF PRIMITIVE AOS:         205
 NUMBER OF SYMMETRY AOS:          200
 NUMBER OF CONTRACTIONS:          120   (  72A'  +  48A"  )
 NUMBER OF CORE ORBITALS:           5   (   4A'  +   1A"  )
 NUMBER OF VALENCE ORBITALS:       30   (  19A'  +  11A"  )


 NUCLEAR REPULSION ENERGY  199.68876779


 Eigenvalues of metric

         1 0.261E-02 0.491E-02 0.835E-02 0.168E-01 0.192E-01 0.252E-01 0.298E-01 0.336E-01
         2 0.488E-02 0.191E-01 0.239E-01 0.303E-01 0.342E-01 0.350E-01 0.372E-01 0.444E-01


 Contracted 2-electron integrals neglected if value below      1.0D-16
 AO integral compression algorithm  1   Integral accuracy      1.0D-16

     119.538 MB (compressed) written to integral file ( 98.2%)

     Node minimum: 119.538 MB, node maximum: 119.538 MB


 NUMBER OF SORTED TWO-ELECTRON INTEGRALS:   13418166.     BUFFER LENGTH:  32768
 NUMBER OF SEGMENTS:   1  SEGMENT LENGTH:   13418166      RECORD LENGTH: 524288

 Memory used in sort:      13.98 MW

 SORT1 READ    15222547. AND WROTE    13374778. INTEGRALS IN     39 RECORDS. CPU TIME:     0.17 SEC, REAL TIME:     0.27 SEC
 SORT2 READ    13374778. AND WROTE    13418166. INTEGRALS IN    456 RECORDS. CPU TIME:     0.16 SEC, REAL TIME:     0.23 SEC

 FILE SIZES:   FILE 1:   109.5 MBYTE,  FILE 4:   163.6 MBYTE,   TOTAL:    273.1 MBYTE

 OPERATOR DM      FOR CENTER  0  COORDINATES:    0.000000    0.000000    0.000000


 **********************************************************************************************************************************
 DATASETS  * FILE   NREC   LENGTH (MB)   RECORD NAMES
              1      19      109.55       500      610      700      900      950      970     1000      129      960     1100   
                                          VAR    BASINP    GEOM    SYMINP    ZMAT    AOBASIS   BASIS     P2S    ABASIS      S 
                                         1400     1410     1200     1210     1080     1600     1650     1300     1700   
                                           T        V       H0       H01     AOSYM     SMH    MOLCAS    ERIS     OPER   

 PROGRAMS   *        TOTAL       INT
 CPU TIMES  *         2.86      2.80
 REAL TIME  *         3.25 SEC
 DISK USED  *       393.57 MB      
 GA USED    *         0.00 MB       (max)       0.00 MB       (current)
 **********************************************************************************************************************************

1PROGRAM * RHF-SCF (CLOSED SHELL)       Authors: W. Meyer, H.-J. Werner


 NUMBER OF ELECTRONS:      21+   21-
 CONVERGENCE THRESHOLDS:    1.00E-10 (Density)    1.00E-13 (Energy)
 MAX. NUMBER OF ITERATIONS:      200
 INTERPOLATION TYPE:            DIIS
 INTERPOLATION STEPS:              2 (START)      1 (STEP)
 LEVEL SHIFTS:                  0.00 (CLOSED)  0.00 (OPEN) 



 Orbital guess generated from atomic densities. Full valence occupancy:   23  12

 Molecular orbital dump at record        2100.2

 Initial alpha occupancy:  14   7
 Initial beta  occupancy:  14   7
 Wave function symmetry:    1

 ITERATION    DDIFF          GRAD             ENERGY        2-EL.EN.            DIPOLE MOMENTS         DIIS
    1      0.000D+00      0.000D+00      -232.08664890    561.195810    0.89091   -0.62747    0.00000    0
    2      0.000D+00      0.852D-02      -232.16302240    555.967157    0.40813   -0.32406    0.00000    1
    3      0.169D-01      0.367D-02      -232.17373186    557.964935    0.52929   -0.43083    0.00000    2
    4      0.538D-02      0.101D-02      -232.17503327    557.738494    0.50211   -0.39468    0.00000    3
    5      0.195D-02      0.265D-03      -232.17511064    557.675255    0.50130   -0.40682    0.00000    4
    6      0.425D-03      0.493D-04      -232.17511368    557.695304    0.50065   -0.40519    0.00000    5
    7      0.124D-03      0.909D-05      -232.17511382    557.689687    0.50057   -0.40536    0.00000    6
    8      0.255D-04      0.291D-05      -232.17511383    557.691269    0.50058   -0.40546    0.00000    7
    9      0.553D-05      0.944D-06      -232.17511384    557.690920    0.50054   -0.40547    0.00000    7
   10      0.215D-05      0.263D-06      -232.17511384    557.690974    0.50054   -0.40549    0.00000    7
   11      0.698D-06      0.540D-07      -232.17511384    557.690963    0.50054   -0.40549    0.00000    7
   12      0.170D-06      0.165D-07      -232.17511384    557.690971    0.50054   -0.40549    0.00000    7
   13      0.335D-07      0.716D-08      -232.17511384    557.690969    0.50054   -0.40549    0.00000    7
   14      0.140D-07      0.233D-08      -232.17511384    557.690968    0.50054   -0.40549    0.00000    8
   15      0.414D-08      0.609D-09      -232.17511384    557.690968    0.50054   -0.40549    0.00000    8
   16      0.147D-08      0.150D-09      -232.17511384    557.690968    0.50054   -0.40549    0.00000    7
   17      0.347D-09      0.412D-10      -232.17511384    557.690968    0.50054   -0.40549    0.00000    7
   18      0.108D-09      0.117D-10      -232.17511384    557.690968    0.50054   -0.40549    0.00000    8
   19      0.236D-10      0.315D-11      -232.17511384    557.690968    0.50054   -0.40549    0.00000    8
   20      0.864D-11      0.105D-11      -232.17511384    557.690968    0.50054   -0.40549    0.00000    7
   21      0.249D-11      0.363D-12      -232.17511384    557.690968    0.50054   -0.40549    0.00000    7
   22      0.870D-12      0.124D-12      -232.17511384    557.690968    0.50054   -0.40549    0.00000    7
   23      0.421D-12      0.532D-13      -232.17511384    557.690968    0.50054   -0.40549    0.00000    8
   24      0.218D-12      0.264D-13      -232.17511384    557.690968    0.50054   -0.40549    0.00000    0

 Final occupancy:  14   7

 !RHF STATE 1.1 Energy               -232.175113835908
 Nuclear energy                       199.68876779
 One-electron energy                 -710.70936586
 Two-electron energy                  278.84548423
 Virial quotient                       -1.00083280
 !RHF STATE 1.1 Dipole moment           0.50054457    -0.40549189     0.00000000
 Dipole moment /Debye                   1.27217408    -1.03059007     0.00000000

 Orbital energies:

         1.1          2.1          3.1          4.1          5.1          6.1          7.1          8.1          9.1         10.1
    -20.544861   -11.281985   -11.220431   -11.213417    -1.351968    -1.064443    -0.938766    -0.766921    -0.665542    -0.620907

        11.1         12.1         13.1         14.1         15.1         16.1
     -0.573430    -0.528590    -0.505062    -0.458107     0.166937     0.220336

         1.2          2.2          3.2          4.2          5.2          6.2          7.2          8.2          9.2
    -11.220450    -0.939898    -0.618195    -0.553998    -0.514875    -0.500688    -0.426666     0.241076     0.255431


 **********************************************************************************************************************************
 DATASETS  * FILE   NREC   LENGTH (MB)   RECORD NAMES
              1      19      109.55       500      610      700      900      950      970     1000      129      960     1100   
                                          VAR    BASINP    GEOM    SYMINP    ZMAT    AOBASIS   BASIS     P2S    ABASIS      S 
                                         1400     1410     1200     1210     1080     1600     1650     1300     1700   
                                           T        V       H0       H01     AOSYM     SMH    MOLCAS    ERIS     OPER   

              2       3        0.66       700     1000     2100   
                                         GEOM     BASIS     RHF  

 PROGRAMS   *        TOTAL       RHF       INT
 CPU TIMES  *         4.58      1.72      2.80
 REAL TIME  *         5.26 SEC
 DISK USED  *       393.57 MB      
 GA USED    *         0.00 MB       (max)       0.00 MB       (current)
 **********************************************************************************************************************************


1PROGRAM * CCSD (Closed-shell coupled cluster)     Authors: C. Hampel, H.-J. Werner, 1991, M. Deegan, P.J. Knowles, 1992


 Convergence thresholds:  THRVAR = 1.00D-08  THRDEN = 1.00D-12

 CCSD(T)     terms to be evaluated (factor= 1.000)


 Number of core orbitals:           5 (   4   1 )
 Number of closed-shell orbitals:  16 (  10   6 )
 Number of external orbitals:      99 (  58  41 )

 Molecular orbitals read from record     2100.2  Type=RHF/CANONICAL (state 1.1)

 Number of N-1 electron functions:              16
 Number of N-2 electron functions:             136
 Number of singly external CSFs:               826
 Number of doubly external CSFs:            629212
 Total number of CSFs:                      630039

 Length of J-op  integral file:               0.00 MB
 Length of K-op  integral file:               0.55 MB
 Length of 3-ext integral record:             0.00 MB

 Memory could be reduced to 10.83 Mwords without degradation in triples

 Integral transformation finished. Total CPU:   0.56 sec, npass=  1  Memory used:   6.19 MW

 Reference energy:                   -232.17511384

 MP2 singlet pair energy:              -0.49747443
 MP2 triplet pair energy:              -0.27472730
 MP2 correlation energy:               -0.77220172
 MP2 total energy:                   -232.94731556

 SCS-MP2 correlation energy:           -0.76791074   (PS=  1.200000  PT=  0.333333)
 SCS-MP2 total energy:               -232.94302458

 ITER.      SQ.NORM     CORR.ENERGY   TOTAL ENERGY   ENERGY CHANGE        DEN1      VAR(S)    VAR(P)  DIIS     TIME
   1      1.27344529    -0.82938875  -233.00450258    -0.05718702    -0.03606771  0.25D-02  0.44D-02  1  1     1.86
   2      1.29459621    -0.83370222  -233.00881606    -0.00431347    -0.02218501  0.67D-04  0.42D-03  2  2     3.19
   3      1.29910882    -0.83391133  -233.00902516    -0.00020910    -0.00277067  0.24D-04  0.24D-04  3  3     4.62
   4      1.30037333    -0.83391704  -233.00903088    -0.00000571    -0.00060185  0.64D-06  0.21D-05  4  4     5.95
   5      1.30060411    -0.83392597  -233.00903981    -0.00000893    -0.00008086  0.19D-06  0.15D-06  5  5     7.30
   6      1.30064517    -0.83392271  -233.00903655     0.00000326    -0.00001316  0.26D-07  0.14D-07  6  6     8.64
   7      1.30065210    -0.83392149  -233.00903533     0.00000122    -0.00000071  0.39D-08  0.17D-08  6  1     9.99
   8      1.30065567    -0.83392150  -233.00903534    -0.00000001    -0.00000041  0.68D-09  0.22D-09  6  2    11.34
   9      1.30065625    -0.83392144  -233.00903528     0.00000006     0.00000057  0.64D-10  0.39D-10  6  4    12.68
  10      1.30065683    -0.83392143  -233.00903526     0.00000001    -0.00000001  0.51D-11  0.38D-11  6  3    14.03
  11      1.30065680    -0.83392143  -233.00903527    -0.00000000     0.00000005  0.79D-12  0.47D-12  6  5    15.37
  12      1.30065674    -0.83392143  -233.00903527    -0.00000000     0.00000003  0.14D-12  0.66D-13  6  6    16.71
  13      1.30065669    -0.83392144  -233.00903527    -0.00000000     0.00000003  0.11D-13  0.10D-13  6  2    18.06
  14      1.30065667    -0.83392144  -233.00903527    -0.00000000     0.00000001  0.17D-14  0.61D-15  6  1    19.40
  15      1.30065667    -0.83392144  -233.00903527    -0.00000000     0.00000000  0.22D-15  0.13D-15  6  4    20.77
  16      1.30065667    -0.83392144  -233.00903527     0.00000000    -0.00000000  0.34D-16  0.20D-16  6  3    22.11
  17      1.30065667    -0.83392144  -233.00903527     0.00000000    -0.00000000  0.33D-17  0.25D-17  6  5    23.46
  18      1.30065667    -0.83392144  -233.00903527    -0.00000000    -0.00000000  0.89D-18  0.34D-18  6  6    24.81
  19      1.30065667    -0.83392144  -233.00903527    -0.00000000    -0.00000000  0.22D-18  0.63D-19  6  2    26.16
  20      1.30065667    -0.83392144  -233.00903527    -0.00000000     0.00000000  0.32D-19  0.12D-19  6  1    27.51
  21      1.30065667    -0.83392144  -233.00903527    -0.00000000     0.00000000  0.40D-20  0.21D-20  6  4    28.85
  22      1.30065667    -0.83392144  -233.00903527     0.00000000    -0.00000000  0.69D-21  0.32D-21  6  3    30.20

 Norm of t1 vector:      0.06600680      S-energy:    -0.00000000      T1 diagnostic:  0.00825085
                                                                       D1 diagnostic:  0.02161215


 Total CPU time for triples:     21.95 sec


 RESULTS
 =======

  Reference energy                   -232.175113835909
  CCSD singlet pair energy             -0.580849737975
  CCSD triplet pair energy             -0.253071698772
  CCSD correlation energy              -0.833921436748

  Triples (T) contribution             -0.023240945891
  Total correlation energy             -0.857162382639

  CCSD total energy                  -233.009035272656
  CCSD[T] energy                     -233.032971854091
  CCSD-T energy                      -233.031940661434
 !CCSD(T) total energy               -233.032276218547

 Timing summary (sec):

 STEP                 CPU(USER)    SYS     CPU(TOT)    WALL
 Transformation          0.59      0.08      0.67      0.67
 CCSD iterations        29.61      0.95     30.56     30.62
 Triples                21.95      0.61     22.56     22.56

 Program statistics:

 Available memory in ccsd:               999998876
 Min. memory needed in ccsd:               1681381
 Max. memory used in ccsd:                 2239583
 Max. memory used in cckext:               2333618 (22 integral passes)



 **********************************************************************************************************************************
 DATASETS  * FILE   NREC   LENGTH (MB)   RECORD NAMES
              1      20      153.11       500      610      700      900      950      970     1000      129      960     1100   
                                          VAR    BASINP    GEOM    SYMINP    ZMAT    AOBASIS   BASIS     P2S    ABASIS      S 
                                         1400     1410     1200     1210     1080     1600     1650     1300     1700     1380   
                                           T        V       H0       H01     AOSYM     SMH    MOLCAS    ERIS     OPER     JKOP   

              2       3        0.66       700     1000     2100   
                                         GEOM     BASIS     RHF  

 PROGRAMS   *        TOTAL   CCSD(T)       RHF       INT
 CPU TIMES  *        56.74     52.16      1.72      2.80
 REAL TIME  *        59.15 SEC
 DISK USED  *       393.57 MB      
 GA USED    *         0.00 MB       (max)       0.00 MB       (current)
 **********************************************************************************************************************************

        CCSD(T)         RHF-SCF 
   -233.03227622   -232.17511384
 **********************************************************************************************************************************
 Variable memory released
