
 Primary working directories    : /tmp/985636.782.gen4.q
 Secondary working directories  : /tmp/985636.782.gen4.q
 Wavefunction directory         : /home/vulcan/jj04645/wfu/
 Main file repository           : /tmp/985636.782.gen4.q/

 ARCHNAME  : Linux/x86_64
 FC        : /opt/intel/compilers_and_libraries_2016.1.150/linux/bin/intel64/ifort
 FCVERSION : 16.0.1
 BLASLIB   : -mkl
 id        : ccgc

 Nodes     nprocs
 n056         1
 ga_uses_ma=false, calling ma_init with nominal heap.
 GA-space will be limited to   8.0 MW (determined by -G option)

 Using customized tuning parameters: mindgm=10; mindgv=16; mindgc=4; mindgr=1; noblas=0; mincuda=1000; minvec=7
 default implementation of scratch files=df  

 ***,Optimization of tetrahydrothiopyran
 memory,1000,m
 gthresh,energy=1.0d-12,orbital=1.0d-10,oneint=1.0d-16,twoint=1.0d-16,optgrad=1.0d-6,compress=1.0d-13
 geomtyp=xyz
 
 bohr
 geometry = {
  S    0.3469870926    2.6995143380    0.0000000000
  C   -0.3302185072   -3.3661827882   -0.0000000000
  C   -0.6665325943    0.6678745805   -2.5812259846
  C   -0.6665325943    0.6678745805    2.5812259846
  C    0.4705237589   -1.9817521751   -2.4139027130
  C    0.4705237589   -1.9817521751    2.4139027130
  H   -2.7329191613    0.5742829000   -2.5990970259
  H   -2.7329191613    0.5742829000    2.5990970259
  H   -0.0636218687    1.6225744841   -4.3071120285
  H   -0.0636218687    1.6225744841    4.3071120285
  H    2.5374174866   -1.8344286125   -2.4809627037
  H    2.5374174866   -1.8344286125    2.4809627037
  H   -0.1298663192   -3.0778313909   -4.0695733570
  H   -0.1298663192   -3.0778313909    4.0695733570
  H    0.4669771050   -5.2722311806   -0.0000000000
  H   -2.3924833110   -3.5823613584   -0.0000000000
 }
 
 basis=VDZ
 {rhf;maxit,200}
 {ccsd(t);maxit,200}

 Variables initialized (661), CPU time= 0.00 sec
 Commands  initialized (458), CPU time= 0.00 sec, 486 directives.
 Default parameters read. Elapsed time= 0.05 sec

 Checking input...
 Passed
1


                                         ***  PROGRAM SYSTEM MOLPRO  ***
                         Copyright, University College Cardiff Consultants Limited, 2008

                                    Version 2010.1 linked May 16 2016 07:17:05


 **********************************************************************************************************************************
 LABEL *   Optimization of tetrahydrothiopyran                                           
 Linux-4.4.3/n056(x86_64) 64 bit mpp version                                             DATE: 26-Jan-24          TIME: 14:43:45  
 **********************************************************************************************************************************

 SHA1:             9e8077add272b0f3cad6f7df79ec5211205f459d
 **********************************************************************************************************************************

 THRESHOLDS:

 ZERO    =  1.00D-12  ONEINT  =  1.00D-16  TWOINT  =  1.00D-16  PREFAC  =  1.00D-14  LOCALI  =  1.00D-09  EORDER  =  1.00D-04
 ENERGY  =  1.00D-12  ETEST   =  0.00D+00  EDENS   =  0.00D+00  THRDEDEF=  1.00D-06  GRADIENT=  1.00D-02  STEP    =  1.00D-03
 ORBITAL =  1.00D-10  CIVEC   =  1.00D-05  COEFF   =  1.00D-04  PRINTCI =  5.00D-02  PUNCHCI =  9.90D+01  OPTGRAD =  1.00D-06
 OPTENERG=  1.00D-06  OPTSTEP =  3.00D-04  THRGRAD =  1.00D-10  COMPRESS=  1.00D-13  VARMIN  =  1.00D-07  VARMAX  =  1.00D-03
 THRDOUB =  0.00D+00  THRDIV  =  1.00D-05  THRRED  =  1.00D-07  THRPSP  =  1.00D+00  THRDC   =  1.00D-10  THRCS   =  1.00D-10
 THRNRM  =  1.00D-08  THREQ   =  0.00D+00  THRDE   =  1.00D+00  THRREF  =  1.00D-05  SPARFAC =  1.00D+00  THRDLP  =  1.00D-07
 THRDIA  =  1.00D-10  THRDLS  =  1.00D-07  THRGPS  =  0.00D+00  THRKEX  =  0.00D+00  THRDIS  =  2.00D-01  THRVAR  =  1.00D-10
 THRLOC  =  1.00D-06  THRGAP  =  1.00D-06  THRLOCT = -1.00D+00  THRGAPT = -1.00D+00  THRORB  =  1.00D-06  THRMLTP =  0.00D+00
 THRCPQCI=  1.00D-10  KEXTA   =  0.00D+00  THRCOARS=  0.00D+00  SYMTOL  =  1.00D-06  GRADTOL =  1.00D-06  THROVL  =  1.00D-08
 THRORTH =  1.00D-08  GRID    =  1.00D-06  GRIDMAX =  1.00D-03  DTMAX   =  0.00D+00

 SETTING GEOMTYP        =    XYZ
 ZUNIT=BOHR
 

 Variable memory set to 1000000000 words,  buffer space   230000 words

 SETTING BASIS          =    VDZ


 Recomputing integrals since basis changed


 Using spherical harmonics

 Library entry S      S cc-pVDZ              selected for orbital group  1
 Library entry S      P cc-pVDZ              selected for orbital group  1
 Library entry S      D cc-pVDZ              selected for orbital group  1
 Library entry C      S cc-pVDZ              selected for orbital group  2
 Library entry C      P cc-pVDZ              selected for orbital group  2
 Library entry C      D cc-pVDZ              selected for orbital group  2
 Library entry H      S cc-pVDZ              selected for orbital group  3
 Library entry H      P cc-pVDZ              selected for orbital group  3

1PROGRAM * SEWARD (Integral evaluation for generally contracted gaussian basis sets)     Author: Roland Lindh, 1990

 Geometry written to block  1 of record 700


 Point group  Cs  



 ATOMIC COORDINATES

 NR  ATOM    CHARGE       X              Y              Z

   1  S      16.00    0.346987093    2.699514338    0.000000000
   2  C       6.00   -0.330218507   -3.366182788    0.000000000
   3  C       6.00   -0.666532594    0.667874581   -2.581225985
   4  C       6.00   -0.666532594    0.667874581    2.581225985
   5  C       6.00    0.470523759   -1.981752175   -2.413902713
   6  C       6.00    0.470523759   -1.981752175    2.413902713
   7  H       1.00   -2.732919161    0.574282900   -2.599097026
   8  H       1.00   -2.732919161    0.574282900    2.599097026
   9  H       1.00   -0.063621869    1.622574484   -4.307112028
  10  H       1.00   -0.063621869    1.622574484    4.307112028
  11  H       1.00    2.537417487   -1.834428612   -2.480962704
  12  H       1.00    2.537417487   -1.834428612    2.480962704
  13  H       1.00   -0.129866319   -3.077831391   -4.069573357
  14  H       1.00   -0.129866319   -3.077831391    4.069573357
  15  H       1.00    0.466977105   -5.272231181    0.000000000
  16  H       1.00   -2.392483311   -3.582361358    0.000000000

 Bond lengths in Bohr (Angstrom)

  1- 3  3.437660519   1- 4  3.437660519   2- 5  2.895645456   2- 6  2.895645456   2-15  2.066044849
       ( 1.819131599)       ( 1.819131599)       ( 1.532309581)       ( 1.532309581)       ( 1.093303847)

  2-16  2.073564394   3- 5  2.888150995   3- 7  2.068582177   3- 9  2.062434456   4- 6  2.888150995
       ( 1.097283019)       ( 1.528343683)       ( 1.094646543)       ( 1.091393309)       ( 1.528343683)

  4- 8  2.068582177   4-10  2.062434456   5-11  2.073222360   5-13  2.074392242   6-12  2.073222360
       ( 1.094646543)       ( 1.091393309)       ( 1.097102022)       ( 1.097721097)       ( 1.097102022)

  6-14  2.074392242
       ( 1.097721097)

 Bond angles

  1-3-5  112.49558433   1-3-7  109.13175214   1-3-9  105.57991268   1-4-6  112.49558433

  1- 4- 8  109.13175214   1- 4-10  105.57991268   2- 5- 3  112.21281479   2- 5-11  109.67156772

  2- 5-13  109.43267548   2- 6- 4  112.21281479   2- 6-12  109.67156772   2- 6-14  109.43267548

  3- 1- 4   97.33107928   3- 5-11  108.99161327   3- 5-13  108.93892985   4- 6-12  108.99161327

  4- 6-14  108.93892985   5- 2- 6  112.94732050   5- 2-15  109.53488126   5- 2-16  108.95777489

  5- 3- 7  110.62633594   5- 3- 9  110.98118120   6- 2-15  109.53488126   6- 2-16  108.95777489

  6- 4- 8  110.62633594   6- 4-10  110.98118120   7- 3- 9  107.80229489   8- 4-10  107.80229489

 11- 5-13  107.47420373  12- 6-14  107.47420373  15- 2-16  106.71266536

 NUCLEAR CHARGE:                   56
 NUMBER OF PRIMITIVE AOS:         247
 NUMBER OF SYMMETRY AOS:          241
 NUMBER OF CONTRACTIONS:          138   (  79A'  +  59A"  )
 NUMBER OF CORE ORBITALS:          10   (   7A'  +   3A"  )
 NUMBER OF VALENCE ORBITALS:       34   (  20A'  +  14A"  )


 NUCLEAR REPULSION ENERGY  312.06274724


 Eigenvalues of metric

         1 0.305E-02 0.426E-02 0.634E-02 0.157E-01 0.197E-01 0.237E-01 0.284E-01 0.344E-01
         2 0.286E-02 0.703E-02 0.151E-01 0.197E-01 0.220E-01 0.344E-01 0.352E-01 0.360E-01


 Contracted 2-electron integrals neglected if value below      1.0D-16
 AO integral compression algorithm  1   Integral accuracy      1.0D-16

     207.094 MB (compressed) written to integral file ( 97.6%)

     Node minimum: 207.094 MB, node maximum: 207.094 MB


 NUMBER OF SORTED TWO-ELECTRON INTEGRALS:   23341315.     BUFFER LENGTH:  32768
 NUMBER OF SEGMENTS:   2  SEGMENT LENGTH:   15994315      RECORD LENGTH: 524288

 Memory used in sort:      16.55 MW

 SORT1 READ    26508670. AND WROTE    23262028. INTEGRALS IN     68 RECORDS. CPU TIME:     0.32 SEC, REAL TIME:     0.46 SEC
 SORT2 READ    23262028. AND WROTE    23341315. INTEGRALS IN    790 RECORDS. CPU TIME:     0.26 SEC, REAL TIME:     0.35 SEC

 FILE SIZES:   FILE 1:   187.9 MBYTE,  FILE 4:   285.2 MBYTE,   TOTAL:    473.2 MBYTE

 OPERATOR DM      FOR CENTER  0  COORDINATES:    0.000000    0.000000    0.000000


 **********************************************************************************************************************************
 DATASETS  * FILE   NREC   LENGTH (MB)   RECORD NAMES
              1      19      188.03       500      610      700      900      950      970     1000      129      960     1100   
                                          VAR    BASINP    GEOM    SYMINP    ZMAT    AOBASIS   BASIS     P2S    ABASIS      S 
                                         1400     1410     1200     1210     1080     1600     1650     1300     1700   
                                           T        V       H0       H01     AOSYM     SMH    MOLCAS    ERIS     OPER   

 PROGRAMS   *        TOTAL       INT
 CPU TIMES  *         3.65      3.61
 REAL TIME  *         4.20 SEC
 DISK USED  *       681.26 MB      
 GA USED    *         0.00 MB       (max)       0.00 MB       (current)
 **********************************************************************************************************************************

1PROGRAM * RHF-SCF (CLOSED SHELL)       Authors: W. Meyer, H.-J. Werner


 NUMBER OF ELECTRONS:      28+   28-
 CONVERGENCE THRESHOLDS:    1.00E-10 (Density)    1.00E-13 (Energy)
 MAX. NUMBER OF ITERATIONS:      200
 INTERPOLATION TYPE:            DIIS
 INTERPOLATION STEPS:              2 (START)      1 (STEP)
 LEVEL SHIFTS:                  0.00 (CLOSED)  0.00 (OPEN) 



 Orbital guess generated from atomic densities. Full valence occupancy:   27  17

 Molecular orbital dump at record        2100.2

 Initial alpha occupancy:  18  10
 Initial beta  occupancy:  18  10
 Wave function symmetry:    1

 ITERATION    DDIFF          GRAD             ENERGY        2-EL.EN.            DIPOLE MOMENTS         DIIS
    1      0.000D+00      0.000D+00      -592.64391152   1056.702901   -0.40242   -0.80429    0.00000    0
    2      0.000D+00      0.552D-02      -592.70489182   1054.111486   -0.20718   -0.73724    0.00000    1
    3      0.109D-01      0.184D-02      -592.71082480   1055.552684   -0.27871   -0.67479    0.00000    2
    4      0.375D-02      0.753D-03      -592.71183557   1054.930246   -0.25211   -0.70769    0.00000    3
    5      0.130D-02      0.108D-03      -592.71186139   1054.993473   -0.24819   -0.69918    0.00000    4
    6      0.253D-03      0.373D-04      -592.71186392   1054.962626   -0.24995   -0.69945    0.00000    5
    7      0.705D-04      0.867D-05      -592.71186413   1054.965741   -0.24928   -0.69933    0.00000    6
    8      0.231D-04      0.243D-05      -592.71186415   1054.964883   -0.24927   -0.69920    0.00000    7
    9      0.757D-05      0.629D-06      -592.71186416   1054.964763   -0.24925   -0.69915    0.00000    7
   10      0.178D-05      0.224D-06      -592.71186416   1054.964802   -0.24924   -0.69915    0.00000    7
   11      0.665D-06      0.479D-07      -592.71186416   1054.964788   -0.24924   -0.69915    0.00000    7
   12      0.158D-06      0.958D-08      -592.71186416   1054.964793   -0.24924   -0.69915    0.00000    7
   13      0.254D-07      0.400D-08      -592.71186416   1054.964791   -0.24924   -0.69915    0.00000    7
   14      0.880D-08      0.118D-08      -592.71186416   1054.964791   -0.24924   -0.69915    0.00000    7
   15      0.314D-08      0.382D-09      -592.71186416   1054.964791   -0.24924   -0.69915    0.00000    7
   16      0.915D-09      0.118D-09      -592.71186416   1054.964791   -0.24924   -0.69915    0.00000    8
   17      0.281D-09      0.252D-10      -592.71186416   1054.964791   -0.24924   -0.69915    0.00000    7
   18      0.666D-10      0.737D-11      -592.71186416   1054.964791   -0.24924   -0.69915    0.00000    7
   19      0.228D-10      0.242D-11      -592.71186416   1054.964791   -0.24924   -0.69915    0.00000    8
   20      0.663D-11      0.619D-12      -592.71186416   1054.964791   -0.24924   -0.69915    0.00000    0

 Final occupancy:  18  10

 !RHF STATE 1.1 Energy               -592.711864155304
 Nuclear energy                       312.06274724
 One-electron energy                -1432.25700700
 Two-electron energy                  527.48239560
 Virial quotient                       -1.00022094
 !RHF STATE 1.1 Dipole moment          -0.24924341    -0.69914831     0.00000000
 Dipole moment /Debye                  -0.63347208    -1.77694137     0.00000000

 Orbital energies:

         1.1          2.1          3.1          4.1          5.1          6.1          7.1          8.1          9.1         10.1
    -91.929878   -11.254974   -11.231642   -11.229159    -8.933762    -6.614219    -6.612021    -1.119411    -1.006456    -0.835747

        11.1         12.1         13.1         14.1         15.1         16.1         17.1         18.1         19.1         20.1
     -0.755201    -0.646435    -0.609236    -0.578629    -0.495425    -0.472688    -0.411828    -0.328873     0.176779     0.200992

         1.2          2.2          3.2          4.2          5.2          6.2          7.2          8.2          9.2         10.2
    -11.254987   -11.231584    -6.615659    -1.019750    -0.842016    -0.614372    -0.546383    -0.523633    -0.497946    -0.434194

        11.2         12.2
      0.190142     0.222777


 **********************************************************************************************************************************
 DATASETS  * FILE   NREC   LENGTH (MB)   RECORD NAMES
              1      19      188.03       500      610      700      900      950      970     1000      129      960     1100   
                                          VAR    BASINP    GEOM    SYMINP    ZMAT    AOBASIS   BASIS     P2S    ABASIS      S 
                                         1400     1410     1200     1210     1080     1600     1650     1300     1700   
                                           T        V       H0       H01     AOSYM     SMH    MOLCAS    ERIS     OPER   

              2       3        0.73       700     1000     2100   
                                         GEOM     BASIS     RHF  

 PROGRAMS   *        TOTAL       RHF       INT
 CPU TIMES  *         5.95      2.30      3.61
 REAL TIME  *         6.94 SEC
 DISK USED  *       681.26 MB      
 GA USED    *         0.00 MB       (max)       0.00 MB       (current)
 **********************************************************************************************************************************


1PROGRAM * CCSD (Closed-shell coupled cluster)     Authors: C. Hampel, H.-J. Werner, 1991, M. Deegan, P.J. Knowles, 1992


 Convergence thresholds:  THRVAR = 1.00D-08  THRDEN = 1.00D-12

 CCSD(T)     terms to be evaluated (factor= 1.000)


 Number of core orbitals:          10 (   7   3 )
 Number of closed-shell orbitals:  18 (  11   7 )
 Number of external orbitals:     110 (  61  49 )

 Molecular orbitals read from record     2100.2  Type=RHF/CANONICAL (state 1.1)

 Number of N-1 electron functions:              18
 Number of N-2 electron functions:             171
 Number of singly external CSFs:              1014
 Number of doubly external CSFs:            981666
 Total number of CSFs:                      982681

 Length of J-op  integral file:               0.00 MB
 Length of K-op  integral file:               0.70 MB
 Length of 3-ext integral record:             0.00 MB

 Memory could be reduced to 16.31 Mwords without degradation in triples

 Integral transformation finished. Total CPU:   0.92 sec, npass=  1  Memory used:  10.63 MW

 Reference energy:                   -592.71186416

 MP2 singlet pair energy:              -0.53959635
 MP2 triplet pair energy:              -0.30438073
 MP2 correlation energy:               -0.84397708
 MP2 total energy:                   -593.55584124

 SCS-MP2 correlation energy:           -0.83690808   (PS=  1.200000  PT=  0.333333)
 SCS-MP2 total energy:               -593.54877223

 ITER.      SQ.NORM     CORR.ENERGY   TOTAL ENERGY   ENERGY CHANGE        DEN1      VAR(S)    VAR(P)  DIIS     TIME
   1      1.33991279    -0.91096682  -593.62283097    -0.06698973    -0.04300812  0.26D-02  0.55D-02  1  1     2.77
   2      1.36695164    -0.91632354  -593.62818770    -0.00535672    -0.02580164  0.69D-04  0.46D-03  2  2     4.69
   3      1.37230010    -0.91645248  -593.62831664    -0.00012894    -0.00304522  0.16D-04  0.28D-04  3  3     6.62
   4      1.37379670    -0.91651080  -593.62837495    -0.00005831    -0.00059530  0.76D-06  0.20D-05  4  4     8.55
   5      1.37403778    -0.91651744  -593.62838160    -0.00000665    -0.00007102  0.17D-06  0.16D-06  5  5    10.48
   6      1.37408348    -0.91651299  -593.62837715     0.00000445    -0.00001397  0.30D-07  0.14D-07  6  6    12.42
   7      1.37409103    -0.91651288  -593.62837703     0.00000011     0.00000064  0.53D-08  0.23D-08  6  2    14.36
   8      1.37409710    -0.91651257  -593.62837672     0.00000031    -0.00000125  0.73D-09  0.27D-09  6  1    16.30
   9      1.37409792    -0.91651250  -593.62837666     0.00000006     0.00000051  0.66D-10  0.44D-10  6  4    18.23
  10      1.37409881    -0.91651247  -593.62837662     0.00000003    -0.00000011  0.47D-11  0.35D-11  6  3    20.17
  11      1.37409882    -0.91651247  -593.62837663    -0.00000000     0.00000004  0.11D-11  0.53D-12  6  5    22.10
  12      1.37409879    -0.91651247  -593.62837663    -0.00000000     0.00000002  0.17D-12  0.76D-13  6  6    24.05
  13      1.37409873    -0.91651248  -593.62837663    -0.00000000     0.00000002  0.23D-13  0.10D-13  6  1    25.98
  14      1.37409872    -0.91651248  -593.62837663    -0.00000000     0.00000000  0.30D-14  0.12D-14  6  2    27.92
  15      1.37409873    -0.91651248  -593.62837663     0.00000000    -0.00000000  0.66D-15  0.30D-15  6  4    29.86
  16      1.37409873    -0.91651248  -593.62837663     0.00000000    -0.00000000  0.31D-16  0.23D-16  6  5    31.79
  17      1.37409873    -0.91651248  -593.62837663     0.00000000    -0.00000000  0.54D-17  0.23D-17  6  3    33.73
  18      1.37409873    -0.91651248  -593.62837663     0.00000000    -0.00000000  0.17D-17  0.47D-18  6  6    35.65
  19      1.37409873    -0.91651248  -593.62837663     0.00000000    -0.00000000  0.36D-18  0.11D-18  6  1    37.59
  20      1.37409873    -0.91651248  -593.62837663     0.00000000     0.00000000  0.44D-19  0.17D-19  6  2    39.53
  21      1.37409873    -0.91651248  -593.62837663    -0.00000000     0.00000000  0.78D-20  0.33D-20  6  4    41.46

 Norm of t1 vector:      0.07016016      S-energy:    -0.00000000      T1 diagnostic:  0.00826845
                                                                       D1 diagnostic:  0.02107336


 Total CPU time for triples:     38.24 sec


 RESULTS
 =======

  Reference energy                   -592.711864155304
  CCSD singlet pair energy             -0.634414367917
  CCSD triplet pair energy             -0.282098107854
  CCSD correlation energy              -0.916512475770

  Triples (T) contribution             -0.029889139891
  Total correlation energy             -0.946401615661

  CCSD total energy                  -593.628376631074
  CCSD[T] energy                     -593.658886080091
  CCSD-T energy                      -593.657954203197
 !CCSD(T) total energy               -593.658265770965

 Timing summary (sec):

 STEP                 CPU(USER)    SYS     CPU(TOT)    WALL
 Transformation          0.96      0.12      1.08      1.08
 CCSD iterations        40.51      1.51     42.02     42.21
 Triples                38.24      1.13     39.37     39.40

 Program statistics:

 Available memory in ccsd:               999998604
 Min. memory needed in ccsd:               2548392
 Max. memory used in ccsd:                 3412984
 Max. memory used in cckext:               3730705 (21 integral passes)



 **********************************************************************************************************************************
 DATASETS  * FILE   NREC   LENGTH (MB)   RECORD NAMES
              1      20      256.20       500      610      700      900      950      970     1000      129      960     1100   
                                          VAR    BASINP    GEOM    SYMINP    ZMAT    AOBASIS   BASIS     P2S    ABASIS      S 
                                         1400     1410     1200     1210     1080     1600     1650     1300     1700     1380   
                                           T        V       H0       H01     AOSYM     SMH    MOLCAS    ERIS     OPER     JKOP   

              2       3        0.73       700     1000     2100   
                                         GEOM     BASIS     RHF  

 PROGRAMS   *        TOTAL   CCSD(T)       RHF       INT
 CPU TIMES  *        85.68     79.73      2.30      3.61
 REAL TIME  *        89.68 SEC
 DISK USED  *       681.26 MB      
 GA USED    *         0.00 MB       (max)       0.00 MB       (current)
 **********************************************************************************************************************************

        CCSD(T)         RHF-SCF 
   -593.65826577   -592.71186416
 **********************************************************************************************************************************
 Variable memory released
