
 Primary working directories    : /tmp/1011018.441.gen6.q
 Secondary working directories  : /tmp/1011018.441.gen6.q
 Wavefunction directory         : /home/vulcan/mel64643/wfu/
 Main file repository           : /tmp/1011018.441.gen6.q/

 ARCHNAME  : Linux/x86_64
 FC        : /opt/intel/compilers_and_libraries_2016.1.150/linux/bin/intel64/ifort
 FCVERSION : 16.0.1
 BLASLIB   : -mkl
 id        : ccgc

 Nodes     nprocs
 n076         1
 ga_uses_ma=false, calling ma_init with nominal heap.
 GA-space will be limited to   8.0 MW (determined by -G option)

 Using customized tuning parameters: mindgm=10; mindgv=16; mindgc=4; mindgr=1; noblas=0; mincuda=1000; minvec=7
 default implementation of scratch files=df  

 ***,Optimization of ethene_ethyne
 memory,1000,m
 gthresh,energy=1.0d-12,orbital=1.0d-10,oneint=1.0d-16,twoint=1.0d-16,optgrad=1.0d-6,compress=1.0d-13
 geomtyp=xyz
 
 
 
 bohr
 geometry = {
  C   -0.0033095678   -1.2652372787   -3.9704566138
  C   -0.0033098955    1.2645230345   -3.9732195460
  H    1.7498869467   -2.3249276007   -3.9716001931
  H   -1.7458226365   -2.3424053676   -3.9703192618
  H   -1.7458232431    2.3416884024   -3.9754350965
  H    1.7498863446    2.3242087847   -3.9766778483
  C    0.0000301788   -0.0063023829    5.4003872698
  C   -0.0007805133    0.0073796847    3.1120359396
  H   -0.0015000813    0.0051785468    1.0966587981
  H    0.0007424674   -0.0041058234    7.4115780031
  X    2.0000000000    0.0000000000    5.4004221540
  X    0.0000000000    2.0000000000    5.4004221540
  X    2.0000000000    0.0000000000    3.1120297780
  X    0.0000000000    2.0000000000    3.1120297780
 }
 
 basis=aug-cc-pvdz, H=cc-pvdz
 {rhf;maxit,200}
 {mp2}

 Variables initialized (661), CPU time= 0.00 sec
 Commands  initialized (458), CPU time= 0.01 sec, 486 directives.
 Default parameters read. Elapsed time= 0.05 sec

 Checking input...
 Passed
1


                                         ***  PROGRAM SYSTEM MOLPRO  ***
                         Copyright, University College Cardiff Consultants Limited, 2008

                                    Version 2010.1 linked May 16 2016 07:17:05


 **********************************************************************************************************************************
 LABEL *   Optimization of ethene_ethyne                                                 
 Linux-4.4.3/n076(x86_64) 64 bit mpp version                                             DATE: 25-Feb-24          TIME: 03:32:51  
 **********************************************************************************************************************************

 SHA1:             9e8077add272b0f3cad6f7df79ec5211205f459d
 **********************************************************************************************************************************

 THRESHOLDS:

 ZERO    =  1.00D-12  ONEINT  =  1.00D-16  TWOINT  =  1.00D-16  PREFAC  =  1.00D-14  LOCALI  =  1.00D-09  EORDER  =  1.00D-04
 ENERGY  =  1.00D-12  ETEST   =  0.00D+00  EDENS   =  0.00D+00  THRDEDEF=  1.00D-06  GRADIENT=  1.00D-02  STEP    =  1.00D-03
 ORBITAL =  1.00D-10  CIVEC   =  1.00D-05  COEFF   =  1.00D-04  PRINTCI =  5.00D-02  PUNCHCI =  9.90D+01  OPTGRAD =  1.00D-06
 OPTENERG=  1.00D-06  OPTSTEP =  3.00D-04  THRGRAD =  1.00D-10  COMPRESS=  1.00D-13  VARMIN  =  1.00D-07  VARMAX  =  1.00D-03
 THRDOUB =  0.00D+00  THRDIV  =  1.00D-05  THRRED  =  1.00D-07  THRPSP  =  1.00D+00  THRDC   =  1.00D-10  THRCS   =  1.00D-10
 THRNRM  =  1.00D-08  THREQ   =  0.00D+00  THRDE   =  1.00D+00  THRREF  =  1.00D-05  SPARFAC =  1.00D+00  THRDLP  =  1.00D-07
 THRDIA  =  1.00D-10  THRDLS  =  1.00D-07  THRGPS  =  0.00D+00  THRKEX  =  0.00D+00  THRDIS  =  2.00D-01  THRVAR  =  1.00D-10
 THRLOC  =  1.00D-06  THRGAP  =  1.00D-06  THRLOCT = -1.00D+00  THRGAPT = -1.00D+00  THRORB  =  1.00D-06  THRMLTP =  0.00D+00
 THRCPQCI=  1.00D-10  KEXTA   =  0.00D+00  THRCOARS=  0.00D+00  SYMTOL  =  1.00D-06  GRADTOL =  1.00D-06  THROVL  =  1.00D-08
 THRORTH =  1.00D-08  GRID    =  1.00D-06  GRIDMAX =  1.00D-03  DTMAX   =  0.00D+00

 SETTING GEOMTYP        =    XYZ
 ZUNIT=BOHR
 

 Variable memory set to 1000000000 words,  buffer space   230000 words

 SETTING BASIS          =    AUG-CC-PVDZ,H=CC-PVDZ


 Recomputing integrals since basis changed


 Using spherical harmonics

 Library entry C      S aug-cc-pVDZ          selected for orbital group  1
 Library entry C      P aug-cc-pVDZ          selected for orbital group  1
 Library entry C      D aug-cc-pVDZ          selected for orbital group  1
 Library entry H      S cc-pVDZ              selected for orbital group  2
 Library entry H      P cc-pVDZ              selected for orbital group  2

1PROGRAM * SEWARD (Integral evaluation for generally contracted gaussian basis sets)     Author: Roland Lindh, 1990

 Geometry written to block  1 of record 700


 Point group  C1  



 ATOMIC COORDINATES

 NR  ATOM    CHARGE       X              Y              Z

   1  C       6.00   -0.003309568   -1.265237279   -3.970456614
   2  C       6.00   -0.003309895    1.264523035   -3.973219546
   3  H       1.00    1.749886947   -2.324927601   -3.971600193
   4  H       1.00   -1.745822637   -2.342405368   -3.970319262
   5  H       1.00   -1.745823243    2.341688402   -3.975435097
   6  H       1.00    1.749886345    2.324208785   -3.976677848
   7  C       6.00    0.000030179   -0.006302383    5.400387270
   8  C       6.00   -0.000780513    0.007379685    3.112035940
   9  H       1.00   -0.001500081    0.005178547    1.096658798
  10  H       1.00    0.000742467   -0.004105823    7.411578003

 Bond lengths in Bohr (Angstrom)

 1-2  2.529761822  1-3  2.048570942  1-4  2.048570942  2-5  2.048570942  2-6  2.048570942
     ( 1.338692300)     ( 1.084057054)     ( 1.084057054)     ( 1.084057054)     ( 1.084057054)

  7- 8  2.288392376   7-10  2.011192059   8- 9  2.015378472
       ( 1.210965091)       ( 1.064277001)       ( 1.066492355)

 Bond angles

  1-2-5  121.72306046   1-2-6  121.15010266   2-1-3  121.15010266   2-1-4  121.72306045

  3- 1- 4  117.12675152   5- 2- 6  117.12675152   7- 8- 9  179.59485543   8- 7-10  179.59485564

 NUCLEAR CHARGE:                   30
 NUMBER OF PRIMITIVE AOS:         190
 NUMBER OF SYMMETRY AOS:          182
 NUMBER OF CONTRACTIONS:          122   ( 122A   )
 NUMBER OF CORE ORBITALS:           4   (   4A   )
 NUMBER OF VALENCE ORBITALS:       22   (  22A   )


 NUCLEAR REPULSION ENERGY   85.49459382


 Eigenvalues of metric

         1 0.820E-04 0.172E-03 0.227E-03 0.269E-03 0.292E-02 0.483E-02 0.498E-02 0.575E-02


 Contracted 2-electron integrals neglected if value below      1.0D-16
 AO integral compression algorithm  1   Integral accuracy      1.0D-16

     210.239 MB (compressed) written to integral file ( 80.1%)

     Node minimum: 210.239 MB, node maximum: 210.239 MB


 NUMBER OF SORTED TWO-ELECTRON INTEGRALS:   28151256.     BUFFER LENGTH:  32768
 NUMBER OF SEGMENTS:   2  SEGMENT LENGTH:   15997996      RECORD LENGTH: 524288

 Memory used in sort:      16.56 MW

 SORT1 READ    32800823. AND WROTE    27324257. INTEGRALS IN     80 RECORDS. CPU TIME:     0.29 SEC, REAL TIME:     0.45 SEC
 SORT2 READ    27324257. AND WROTE    28151256. INTEGRALS IN    802 RECORDS. CPU TIME:     0.25 SEC, REAL TIME:     0.35 SEC

 FILE SIZES:   FILE 1:   184.5 MBYTE,  FILE 4:   335.6 MBYTE,   TOTAL:    520.1 MBYTE

 OPERATOR DM      FOR CENTER  0  COORDINATES:    0.000000    0.000000    0.000000


 **********************************************************************************************************************************
 DATASETS  * FILE   NREC   LENGTH (MB)   RECORD NAMES
              1      19      184.67       500      610      700      900      950      970     1000      129      960     1100   
                                          VAR    BASINP    GEOM    SYMINP    ZMAT    AOBASIS   BASIS     P2S    ABASIS      S 
                                         1400     1410     1200     1210     1080     1600     1650     1300     1700   
                                           T        V       H0       H01     AOSYM     SMH    MOLCAS    ERIS     OPER   

 PROGRAMS   *        TOTAL       INT
 CPU TIMES  *         1.77      1.73
 REAL TIME  *         2.32 SEC
 DISK USED  *       731.22 MB      
 GA USED    *         0.00 MB       (max)       0.00 MB       (current)
 **********************************************************************************************************************************

1PROGRAM * RHF-SCF (CLOSED SHELL)       Authors: W. Meyer, H.-J. Werner


 NUMBER OF ELECTRONS:      15+   15-    SPACE SYMMETRY=1    SPIN SYMMETRY: Singlet 
 CONVERGENCE THRESHOLDS:    1.00E-10 (Density)    1.00E-13 (Energy)
 MAX. NUMBER OF ITERATIONS:      200
 INTERPOLATION TYPE:            DIIS
 INTERPOLATION STEPS:              2 (START)      1 (STEP)
 LEVEL SHIFTS:                  0.00 (CLOSED)  0.00 (OPEN) 



 Orbital guess generated from atomic densities. Full valence occupancy:   26

 Molecular orbital dump at record        2100.2

 ITERATION    DDIFF          GRAD             ENERGY        2-EL.EN.            DIPOLE MOMENTS         DIIS
    1      0.000D+00      0.000D+00      -154.83514269    273.381592    0.00163   -0.00004   -0.05893    0
    2      0.000D+00      0.346D-02      -154.86716962    271.032767   -0.00014    0.00004   -0.14635    1
    3      0.840D-02      0.108D-02      -154.87010202    271.929811    0.00014   -0.00006   -0.12239    2
    4      0.210D-02      0.311D-03      -154.87049232    271.718215    0.00000    0.00004   -0.14223    3
    5      0.868D-03      0.644D-04      -154.87050459    271.735103    0.00001   -0.00005   -0.13497    4
    6      0.155D-03      0.290D-04      -154.87050666    271.735605    0.00001   -0.00001   -0.14002    5
    7      0.494D-04      0.635D-05      -154.87050680    271.735034    0.00001   -0.00002   -0.13973    6
    8      0.153D-04      0.146D-05      -154.87050681    271.734946    0.00001   -0.00002   -0.13995    7
    9      0.391D-05      0.355D-06      -154.87050681    271.734983    0.00001   -0.00002   -0.13998    7
   10      0.120D-05      0.511D-07      -154.87050681    271.734981    0.00001   -0.00002   -0.13999    7
   11      0.213D-06      0.124D-07      -154.87050681    271.734984    0.00001   -0.00002   -0.13999    6
   12      0.429D-07      0.552D-08      -154.87050681    271.734983    0.00001   -0.00002   -0.13999    6
   13      0.158D-07      0.317D-08      -154.87050681    271.734983    0.00001   -0.00002   -0.13999    7
   14      0.128D-07      0.142D-08      -154.87050681    271.734983    0.00001   -0.00002   -0.13999    7
   15      0.630D-08      0.469D-09      -154.87050681    271.734983    0.00001   -0.00002   -0.13999    8
   16      0.194D-08      0.109D-09      -154.87050681    271.734983    0.00001   -0.00002   -0.13999    8
   17      0.281D-09      0.322D-10      -154.87050681    271.734983    0.00001   -0.00002   -0.13999    8
   18      0.772D-10      0.140D-10      -154.87050681    271.734983    0.00001   -0.00002   -0.13999    9
   19      0.325D-10      0.320D-11      -154.87050681    271.734983    0.00001   -0.00002   -0.13999    9
   20      0.108D-10      0.113D-11      -154.87050681    271.734983    0.00001   -0.00002   -0.13999    8
   21      0.602D-11      0.316D-12      -154.87050681    271.734983    0.00001   -0.00002   -0.13999    7
   22      0.467D-11      0.139D-12      -154.87050681    271.734983    0.00001   -0.00002   -0.13999    7
   23      0.343D-11      0.877D-13      -154.87050681    271.734983    0.00001   -0.00002   -0.13999    8
   24      0.352D-11      0.595D-13      -154.87050681    271.734983    0.00001   -0.00002   -0.13999    9
   25      0.127D-11      0.795D-13      -154.87050681    271.734983    0.00001   -0.00002   -0.13999    9
   26      0.671D-12      0.496D-13      -154.87050681    271.734983    0.00001   -0.00002   -0.13999    9
   27      0.890D-12      0.434D-13      -154.87050681    271.734983    0.00001   -0.00002   -0.13999    9
   28      0.823D-12      0.511D-13      -154.87050681    271.734983    0.00001   -0.00002   -0.13999    9
   29      0.598D-12      0.510D-13      -154.87050681    271.734983    0.00001   -0.00002   -0.13999    0

 Final occupancy:  15

 !RHF STATE 1.1 Energy               -154.870506812084
 Nuclear energy                        85.49459382
 One-electron energy                 -376.23259227
 Two-electron energy                  135.86749164
 Virial quotient                       -1.00220593
 !RHF STATE 1.1 Dipole moment           0.00000746    -0.00001736    -0.13999270
 Dipole moment /Debye                   0.00001895    -0.00004412    -0.35580264

 Orbital energies:

         1.1          2.1          3.1          4.1          5.1          6.1          7.1          8.1          9.1         10.1
    -11.250392   -11.248778   -11.248304   -11.244662    -1.044544    -1.024295    -0.802732    -0.760432    -0.671738    -0.651429

        11.1         12.1         13.1         14.1         15.1         16.1         17.1
     -0.595068    -0.515844    -0.402055    -0.402051    -0.386482     0.065054     0.065175


 **********************************************************************************************************************************
 DATASETS  * FILE   NREC   LENGTH (MB)   RECORD NAMES
              1      19      184.67       500      610      700      900      950      970     1000      129      960     1100   
                                          VAR    BASINP    GEOM    SYMINP    ZMAT    AOBASIS   BASIS     P2S    ABASIS      S 
                                         1400     1410     1200     1210     1080     1600     1650     1300     1700   
                                           T        V       H0       H01     AOSYM     SMH    MOLCAS    ERIS     OPER   

              2       3        0.79       700     1000     2100   
                                         GEOM     BASIS     RHF  

 PROGRAMS   *        TOTAL       RHF       INT
 CPU TIMES  *         7.16      5.39      1.73
 REAL TIME  *         8.25 SEC
 DISK USED  *       731.22 MB      
 GA USED    *         0.00 MB       (max)       0.00 MB       (current)
 **********************************************************************************************************************************


1PROGRAM * MP2 (Closed-shell)     Authors: C. Hampel, H.-J. Werner, 1991, M. Deegan, P.J. Knowles, 1992


 Convergence thresholds:  THRVAR = 1.00D-08  THRDEN = 1.00D-12

 Number of core orbitals:           4 (   4 )
 Number of closed-shell orbitals:  11 (  11 )
 Number of external orbitals:     107 ( 107 )

 Molecular orbitals read from record     2100.2  Type=RHF/CANONICAL (state 1.1)

 Number of N-1 electron functions:              11
 Number of N-2 electron functions:              66
 Number of singly external CSFs:              1177
 Number of doubly external CSFs:            693253
 Total number of CSFs:                      694431

 Length of J-op  integral file:               0.00 MB
 Length of K-op  integral file:               1.06 MB

 Integral transformation finished. Total CPU:   0.36 sec, npass=  1  Memory used:   1.98 MW

 Memory needed for MP2:                      0.07 MW

 SCS-MP2 correlation energy:           -0.548022075288   (PS=  1.200000  PT=  0.333333)
 SCS-MP2 total energy:               -155.418528887371


  Reference energy                   -154.870506812083
  MP2 singlet pair energy              -0.357830127002
  MP2 triplet pair energy              -0.190648804638
  MP2 correlation energy               -0.548478931640

 !MP2 total energy                   -155.418985743723


 **********************************************************************************************************************************
 DATASETS  * FILE   NREC   LENGTH (MB)   RECORD NAMES
              1      20      196.79       500      610      700      900      950      970     1000      129      960     1100   
                                          VAR    BASINP    GEOM    SYMINP    ZMAT    AOBASIS   BASIS     P2S    ABASIS      S 
                                         1400     1410     1200     1210     1080     1600     1650     1300     1700     1380   
                                           T        V       H0       H01     AOSYM     SMH    MOLCAS    ERIS     OPER     JKOP   

              2       3        0.79       700     1000     2100   
                                         GEOM     BASIS     RHF  

 PROGRAMS   *        TOTAL       MP2       RHF       INT
 CPU TIMES  *         7.56      0.40      5.39      1.73
 REAL TIME  *         8.72 SEC
 DISK USED  *       731.22 MB      
 GA USED    *         0.00 MB       (max)       0.00 MB       (current)
 **********************************************************************************************************************************

        MP2             RHF-SCF 
   -155.41898574   -154.87050681
 **********************************************************************************************************************************
 Variable memory released
