
 Primary working directories    : /tmp/862637.515.gen4.q
 Secondary working directories  : /tmp/862637.515.gen4.q
 Wavefunction directory         : /home/vulcan/lo21740/wfu/
 Main file repository           : /tmp/862637.515.gen4.q/

 ARCHNAME  : Linux/x86_64
 FC        : /opt/intel/compilers_and_libraries_2016.1.150/linux/bin/intel64/ifort
 FCVERSION : 16.0.1
 BLASLIB   : -mkl
 id        : ccgc

 Nodes     nprocs
 n021         1
 ga_uses_ma=false, calling ma_init with nominal heap.
 GA-space will be limited to   8.0 MW (determined by -G option)

 Using customized tuning parameters: mindgm=10; mindgv=16; mindgc=4; mindgr=1; noblas=0; mincuda=1000; minvec=7
 default implementation of scratch files=df  

 ***,Optimization of formic acid
 memory,1000,m
 gthresh,energy=1.0d-12,orbital=1.0d-10,oneint=1.0d-16,twoint=1.0d-16,optgrad=1.0d-6,compress=1.0d-13
 geomtyp=xyz
 
 bohr
 geometry = {
  C   -3.5009279201   -0.8292374464   -0.0003554113
  O   -3.0939045550    1.6200833856    0.0030260295
  O   -1.8861599532   -2.4761526644   -0.0055963884
  H   -5.5197570875   -1.2743038347    0.0031399033
  H   -1.2415830465    1.9509493090   -0.0002005641
  C    3.5002751515    0.8323035209   -0.0003630099
  O    3.0947671566   -1.6252784799    0.0030137106
  O    1.8846120498    2.4862832961   -0.0056174980
  H    5.5199164111    1.2724632743    0.0031603037
  H    1.2427617932   -1.9571103606   -0.0002070754
 }
 
 basis=AVDZ, H=VDZ
 {rhf;maxit,200}
 {ccsd(t);maxit,200}

 Variables initialized (661), CPU time= 0.00 sec
 Commands  initialized (458), CPU time= 0.01 sec, 486 directives.
 Default parameters read. Elapsed time= 0.06 sec

 Checking input...
 Passed
1


                                         ***  PROGRAM SYSTEM MOLPRO  ***
                         Copyright, University College Cardiff Consultants Limited, 2008

                                    Version 2010.1 linked May 16 2016 07:17:05


 **********************************************************************************************************************************
 LABEL *   Optimization of formic acid                                                   
 Linux-4.4.3/n021(x86_64) 64 bit mpp version                                             DATE: 27-Apr-23          TIME: 17:33:51  
 **********************************************************************************************************************************

 SHA1:             9e8077add272b0f3cad6f7df79ec5211205f459d
 **********************************************************************************************************************************

 THRESHOLDS:

 ZERO    =  1.00D-12  ONEINT  =  1.00D-16  TWOINT  =  1.00D-16  PREFAC  =  1.00D-14  LOCALI  =  1.00D-09  EORDER  =  1.00D-04
 ENERGY  =  1.00D-12  ETEST   =  0.00D+00  EDENS   =  0.00D+00  THRDEDEF=  1.00D-06  GRADIENT=  1.00D-02  STEP    =  1.00D-03
 ORBITAL =  1.00D-10  CIVEC   =  1.00D-05  COEFF   =  1.00D-04  PRINTCI =  5.00D-02  PUNCHCI =  9.90D+01  OPTGRAD =  1.00D-06
 OPTENERG=  1.00D-06  OPTSTEP =  3.00D-04  THRGRAD =  1.00D-10  COMPRESS=  1.00D-13  VARMIN  =  1.00D-07  VARMAX  =  1.00D-03
 THRDOUB =  0.00D+00  THRDIV  =  1.00D-05  THRRED  =  1.00D-07  THRPSP  =  1.00D+00  THRDC   =  1.00D-10  THRCS   =  1.00D-10
 THRNRM  =  1.00D-08  THREQ   =  0.00D+00  THRDE   =  1.00D+00  THRREF  =  1.00D-05  SPARFAC =  1.00D+00  THRDLP  =  1.00D-07
 THRDIA  =  1.00D-10  THRDLS  =  1.00D-07  THRGPS  =  0.00D+00  THRKEX  =  0.00D+00  THRDIS  =  2.00D-01  THRVAR  =  1.00D-10
 THRLOC  =  1.00D-06  THRGAP  =  1.00D-06  THRLOCT = -1.00D+00  THRGAPT = -1.00D+00  THRORB  =  1.00D-06  THRMLTP =  0.00D+00
 THRCPQCI=  1.00D-10  KEXTA   =  0.00D+00  THRCOARS=  0.00D+00  SYMTOL  =  1.00D-06  GRADTOL =  1.00D-06  THROVL  =  1.00D-08
 THRORTH =  1.00D-08  GRID    =  1.00D-06  GRIDMAX =  1.00D-03  DTMAX   =  0.00D+00

 SETTING GEOMTYP        =    XYZ
 ZUNIT=BOHR
 

 Variable memory set to 1000000000 words,  buffer space   230000 words

 SETTING BASIS          =    AVDZ,H=VDZ


 Recomputing integrals since basis changed


 Using spherical harmonics

 Library entry C      S aug-cc-pVDZ          selected for orbital group  1
 Library entry C      P aug-cc-pVDZ          selected for orbital group  1
 Library entry C      D aug-cc-pVDZ          selected for orbital group  1
 Library entry O      S aug-cc-pVDZ          selected for orbital group  2
 Library entry O      P aug-cc-pVDZ          selected for orbital group  2
 Library entry O      D aug-cc-pVDZ          selected for orbital group  2
 Library entry H      S cc-pVDZ              selected for orbital group  3
 Library entry H      P cc-pVDZ              selected for orbital group  3

1PROGRAM * SEWARD (Integral evaluation for generally contracted gaussian basis sets)     Author: Roland Lindh, 1990

 Geometry written to block  1 of record 700


 Point group  C1  



 ATOMIC COORDINATES

 NR  ATOM    CHARGE       X              Y              Z

   1  C       6.00   -3.500927920   -0.829237446   -0.000355411
   2  O       8.00   -3.093904555    1.620083386    0.003026030
   3  O       8.00   -1.886159953   -2.476152664   -0.005596388
   4  H       1.00   -5.519757088   -1.274303835    0.003139903
   5  H       1.00   -1.241583046    1.950949309   -0.000200564
   6  C       6.00    3.500275151    0.832303521   -0.000363010
   7  O       8.00    3.094767157   -1.625278480    0.003013711
   8  O       8.00    1.884612050    2.486283296   -0.005617498
   9  H       1.00    5.519916411    1.272463274    0.003160304
  10  H       1.00    1.242761793   -1.957110361   -0.000207075

 Bond lengths in Bohr (Angstrom)

 1-2  2.482911998  1-3  2.306476271  1-4  2.067309245  2-5  1.881642272  6-7  2.490814611
     ( 1.313900442)     ( 1.220534676)     ( 1.093972936)     ( 0.995722206)     ( 1.318082324)

  6- 8  2.312151371   6- 9  2.067051968   7-10  1.881501166
       ( 1.223537810)       ( 1.093836791)       ( 0.995647536)

 Bond angles

  1-2-5  109.56238646   2-1-3  126.12968232   2-1-4  111.86731327   3-1-4  122.00299677

  6- 7-10  109.52749984   7- 6- 8  126.30194224   7- 6- 9  111.66411294   8- 6- 9  122.03393720

 NUCLEAR CHARGE:                   48
 NUMBER OF PRIMITIVE AOS:         250
 NUMBER OF SYMMETRY AOS:          238
 NUMBER OF CONTRACTIONS:          158   ( 158A   )
 NUMBER OF CORE ORBITALS:           6   (   6A   )
 NUMBER OF VALENCE ORBITALS:       28   (  28A   )


 NUCLEAR REPULSION ENERGY  235.53102633


 Eigenvalues of metric

         1 0.779E-03 0.127E-02 0.143E-02 0.198E-02 0.276E-02 0.420E-02 0.474E-02 0.695E-02


 Contracted 2-electron integrals neglected if value below      1.0D-16
 AO integral compression algorithm  1   Integral accuracy      1.0D-16

     617.873 MB (compressed) written to integral file ( 85.1%)

     Node minimum: 617.873 MB, node maximum: 617.873 MB


 NUMBER OF SORTED TWO-ELECTRON INTEGRALS:   78895641.     BUFFER LENGTH:  32768
 NUMBER OF SEGMENTS:   5  SEGMENT LENGTH:   15999503      RECORD LENGTH: 524288

 Memory used in sort:      16.56 MW

 SORT1 READ    90699450. AND WROTE    77924952. INTEGRALS IN    226 RECORDS. CPU TIME:     0.93 SEC, REAL TIME:     1.41 SEC
 SORT2 READ    77924952. AND WROTE    78895641. INTEGRALS IN   2357 RECORDS. CPU TIME:     0.68 SEC, REAL TIME:     1.05 SEC

 FILE SIZES:   FILE 1:   547.7 MBYTE,  FILE 4:   947.9 MBYTE,   TOTAL:   1495.7 MBYTE

 OPERATOR DM      FOR CENTER  0  COORDINATES:    0.000000    0.000000    0.000000


 **********************************************************************************************************************************
 DATASETS  * FILE   NREC   LENGTH (MB)   RECORD NAMES
              1      19      548.04       500      610      700      900      950      970     1000      129      960     1100   
                                          VAR    BASINP    GEOM    SYMINP    ZMAT    AOBASIS   BASIS     P2S    ABASIS      S 
                                         1400     1410     1200     1210     1080     1600     1650     1300     1700   
                                           T        V       H0       H01     AOSYM     SMH    MOLCAS    ERIS     OPER   

 PROGRAMS   *        TOTAL       INT
 CPU TIMES  *         5.72      5.66
 REAL TIME  *         7.05 SEC
 DISK USED  *         2.11 GB      
 GA USED    *         0.00 MB       (max)       0.00 MB       (current)
 **********************************************************************************************************************************

1PROGRAM * RHF-SCF (CLOSED SHELL)       Authors: W. Meyer, H.-J. Werner


 NUMBER OF ELECTRONS:      24+   24-    SPACE SYMMETRY=1    SPIN SYMMETRY: Singlet 
 CONVERGENCE THRESHOLDS:    1.00E-10 (Density)    1.00E-13 (Energy)
 MAX. NUMBER OF ITERATIONS:      200
 INTERPOLATION TYPE:            DIIS
 INTERPOLATION STEPS:              2 (START)      1 (STEP)
 LEVEL SHIFTS:                  0.00 (CLOSED)  0.00 (OPEN) 



 Orbital guess generated from atomic densities. Full valence occupancy:   34

 Molecular orbital dump at record        2100.2

 ITERATION    DDIFF          GRAD             ENERGY        2-EL.EN.            DIPOLE MOMENTS         DIIS
    1      0.000D+00      0.000D+00      -377.47438564    746.306698    0.00439   -0.00043    0.00379    0
    2      0.000D+00      0.724D-02      -377.56261047    743.507232    0.00119    0.00074    0.00154    1
    3      0.137D-01      0.456D-02      -377.60995976    745.782259    0.00332   -0.00122    0.00286    2
    4      0.513D-02      0.651D-03      -377.61156900    745.384668    0.00238   -0.00018    0.00261    3
    5      0.997D-03      0.276D-03      -377.61185188    745.421931    0.00273   -0.00089    0.00270    4
    6      0.415D-03      0.775D-04      -377.61189565    745.473629    0.00255   -0.00065    0.00267    5
    7      0.139D-03      0.345D-04      -377.61190615    745.455611    0.00258   -0.00077    0.00267    6
    8      0.802D-04      0.109D-04      -377.61190739    745.461114    0.00254   -0.00069    0.00266    7
    9      0.296D-04      0.360D-05      -377.61190751    745.459805    0.00257   -0.00077    0.00266    8
   10      0.963D-05      0.103D-05      -377.61190752    745.459965    0.00254   -0.00070    0.00266    8
   11      0.263D-05      0.405D-06      -377.61190752    745.459990    0.00257   -0.00075    0.00266    8
   12      0.828D-06      0.189D-06      -377.61190752    745.459956    0.00255   -0.00073    0.00266    9
   13      0.332D-06      0.373D-07      -377.61190752    745.459965    0.00255   -0.00073    0.00266    8
   14      0.932D-07      0.136D-07      -377.61190752    745.459962    0.00255   -0.00073    0.00266    8
   15      0.200D-07      0.534D-08      -377.61190752    745.459963    0.00255   -0.00073    0.00266    8
   16      0.114D-07      0.152D-08      -377.61190752    745.459963    0.00255   -0.00073    0.00266    8
   17      0.318D-08      0.599D-09      -377.61190752    745.459963    0.00255   -0.00073    0.00266    8
   18      0.105D-08      0.133D-09      -377.61190752    745.459963    0.00255   -0.00073    0.00266    8
   19      0.293D-09      0.609D-10      -377.61190752    745.459963    0.00255   -0.00073    0.00266    8
   20      0.135D-09      0.158D-10      -377.61190752    745.459963    0.00255   -0.00073    0.00266    8
   21      0.372D-10      0.535D-11      -377.61190752    745.459963    0.00255   -0.00073    0.00266    8
   22      0.123D-10      0.257D-11      -377.61190752    745.459963    0.00255   -0.00073    0.00266    8
   23      0.594D-11      0.872D-12      -377.61190752    745.459963    0.00255   -0.00073    0.00266    8
   24      0.201D-11      0.323D-12      -377.61190752    745.459963    0.00255   -0.00073    0.00266    0

 Final occupancy:  24

 !RHF STATE 1.1 Energy               -377.611907517200
 Nuclear energy                       235.53102633
 One-electron energy                 -985.87291520
 Two-electron energy                  372.72998136
 Virial quotient                       -1.00164091
 !RHF STATE 1.1 Dipole moment           0.00255405    -0.00072762     0.00266194
 Dipole moment /Debye                   0.00649132    -0.00184932     0.00676555

 Orbital energies:

         1.1          2.1          3.1          4.1          5.1          6.1          7.1          8.1          9.1         10.1
    -20.626453   -20.626052   -20.588088   -20.587120   -11.420523   -11.419273    -1.490372    -1.477528    -1.392157    -1.378178

        11.1         12.1         13.1         14.1         15.1         16.1         17.1         18.1         19.1         20.1
     -0.921868    -0.886175    -0.771401    -0.735483    -0.726734    -0.698118    -0.645653    -0.635236    -0.622432    -0.581949

        21.1         22.1         23.1         24.1         25.1         26.1
     -0.506858    -0.498048    -0.495133    -0.475645     0.069506     0.070577


 **********************************************************************************************************************************
 DATASETS  * FILE   NREC   LENGTH (MB)   RECORD NAMES
              1      19      548.04       500      610      700      900      950      970     1000      129      960     1100   
                                          VAR    BASINP    GEOM    SYMINP    ZMAT    AOBASIS   BASIS     P2S    ABASIS      S 
                                         1400     1410     1200     1210     1080     1600     1650     1300     1700   
                                           T        V       H0       H01     AOSYM     SMH    MOLCAS    ERIS     OPER   

              2       3        0.94       700     1000     2100   
                                         GEOM     BASIS     RHF  

 PROGRAMS   *        TOTAL       RHF       INT
 CPU TIMES  *        22.31     16.59      5.66
 REAL TIME  *        25.12 SEC
 DISK USED  *         2.11 GB      
 GA USED    *         0.00 MB       (max)       0.00 MB       (current)
 **********************************************************************************************************************************


1PROGRAM * CCSD (Closed-shell coupled cluster)     Authors: C. Hampel, H.-J. Werner, 1991, M. Deegan, P.J. Knowles, 1992


 Convergence thresholds:  THRVAR = 1.00D-08  THRDEN = 1.00D-12

 CCSD(T)     terms to be evaluated (factor= 1.000)


 Number of core orbitals:           6 (   6 )
 Number of closed-shell orbitals:  18 (  18 )
 Number of external orbitals:     134 ( 134 )

 Molecular orbitals read from record     2100.2  Type=RHF/CANONICAL (state 1.1)

 Number of N-1 electron functions:              18
 Number of N-2 electron functions:             171
 Number of singly external CSFs:              2412
 Number of doubly external CSFs:           2910078
 Total number of CSFs:                     2912491

 Length of J-op  integral file:               0.00 MB
 Length of K-op  integral file:               1.76 MB
 Length of 3-ext integral record:             0.00 MB

 Memory could be reduced to 56.95 Mwords without degradation in triples

 Integral transformation finished. Total CPU:   5.59 sec, npass=  1  Memory used:  45.23 MW

 Reference energy:                   -377.61190752

 MP2 singlet pair energy:              -0.63199476
 MP2 triplet pair energy:              -0.43056309
 MP2 correlation energy:               -1.06255785
 MP2 total energy:                   -378.67446537

 SCS-MP2 correlation energy:           -1.02629964   (PS=  1.200000  PT=  0.333333)
 SCS-MP2 total energy:               -378.63820715

 ITER.      SQ.NORM     CORR.ENERGY   TOTAL ENERGY   ENERGY CHANGE        DEN1      VAR(S)    VAR(P)  DIIS     TIME
   1      1.30279357    -1.07991072  -378.69181823    -0.01735286     0.01548962  0.11D-01  0.60D-02  1  1    24.10
   2      1.32738951    -1.08101359  -378.69292111    -0.00110288    -0.02620969  0.24D-03  0.10D-02  2  2    42.71
   3      1.34057052    -1.08186716  -378.69377467    -0.00085356    -0.00594409  0.21D-03  0.45D-04  3  3    61.34
   4      1.34589556    -1.08159891  -378.69350643     0.00026825    -0.00176604  0.18D-04  0.80D-05  4  4    79.98
   5      1.34798339    -1.08150982  -378.69341734     0.00008909    -0.00046829  0.17D-05  0.73D-06  5  5    98.59
   6      1.34836597    -1.08148953  -378.69339705     0.00002029    -0.00002188  0.14D-06  0.84D-07  6  6   117.25
   7      1.34844835    -1.08148006  -378.69338758     0.00000947    -0.00000599  0.12D-07  0.12D-07  6  2   135.91
   8      1.34845415    -1.08148088  -378.69338840    -0.00000082     0.00000232  0.19D-08  0.11D-08  6  1   154.58
   9      1.34845484    -1.08148071  -378.69338823     0.00000018     0.00000127  0.30D-09  0.17D-09  6  4   173.24
  10      1.34845659    -1.08148054  -378.69338806     0.00000017    -0.00000049  0.69D-10  0.22D-10  6  3   191.90
  11      1.34845610    -1.08148065  -378.69338817    -0.00000011     0.00000022  0.16D-10  0.40D-11  6  5   210.59
  12      1.34845584    -1.08148068  -378.69338819    -0.00000002     0.00000004  0.29D-11  0.10D-11  6  6   229.26
  13      1.34845556    -1.08148071  -378.69338823    -0.00000004     0.00000010  0.48D-12  0.20D-12  6  1   247.91
  14      1.34845546    -1.08148072  -378.69338823    -0.00000001     0.00000002  0.67D-13  0.31D-13  6  2   266.57
  15      1.34845543    -1.08148072  -378.69338824    -0.00000000     0.00000000  0.12D-13  0.51D-14  6  4   285.28
  16      1.34845543    -1.08148072  -378.69338824    -0.00000000    -0.00000000  0.25D-14  0.11D-14  6  3   303.93
  17      1.34845543    -1.08148072  -378.69338824     0.00000000    -0.00000000  0.30D-15  0.18D-15  6  6   322.58
  18      1.34845543    -1.08148072  -378.69338824    -0.00000000     0.00000000  0.47D-16  0.19D-16  6  5   341.22
  19      1.34845543    -1.08148072  -378.69338824    -0.00000000    -0.00000000  0.13D-16  0.42D-17  6  2   359.88
  20      1.34845543    -1.08148072  -378.69338824    -0.00000000     0.00000000  0.30D-17  0.84D-18  6  1   378.54
  21      1.34845543    -1.08148072  -378.69338824     0.00000000     0.00000000  0.87D-18  0.21D-18  6  4   397.18
  22      1.34845543    -1.08148072  -378.69338824     0.00000000    -0.00000000  0.26D-18  0.68D-19  6  3   415.83
  23      1.34845543    -1.08148072  -378.69338824     0.00000000    -0.00000000  0.54D-19  0.15D-19  6  6   434.45
  24      1.34845543    -1.08148072  -378.69338824     0.00000000    -0.00000000  0.97D-20  0.41D-20  6  5   453.09
  25      1.34845543    -1.08148072  -378.69338824     0.00000000    -0.00000000  0.22D-20  0.83D-21  6  2   471.73
  26      1.34845543    -1.08148072  -378.69338824    -0.00000000     0.00000000  0.27D-21  0.18D-21  6  1   490.39

 Norm of t1 vector:      0.15400844      S-energy:     0.00000000      T1 diagnostic:  0.01815007
                                                                       D1 diagnostic:  0.06241939

 Singles amplitudes (print threshold =  0.500E-01):

         I         SYM. A    A   T(IA)

        12         1        10     -0.05249279


 Total CPU time for triples:    314.25 sec


 RESULTS
 =======

  Reference energy                   -377.611907517201
  CCSD singlet pair energy             -0.702940861543
  CCSD triplet pair energy             -0.378539856903
  CCSD correlation energy              -1.081480718446

  Triples (T) contribution             -0.039460673566
  Total correlation energy             -1.120941392012

  CCSD total energy                  -378.693388235647
  CCSD[T] energy                     -378.736496822370
  CCSD-T energy                      -378.731593696351
 !CCSD(T) total energy               -378.732848909213

 Timing summary (sec):

 STEP                 CPU(USER)    SYS     CPU(TOT)    WALL
 Transformation          5.85      0.40      6.25      8.28
 CCSD iterations       484.55      5.78    490.33    490.82
 Triples               314.25      3.85    318.10    318.15

 Program statistics:

 Available memory in ccsd:               999998604
 Min. memory needed in ccsd:               7389510
 Max. memory used in ccsd:                10033116
 Max. memory used in cckext:               8930217 (26 integral passes)



 **********************************************************************************************************************************
 DATASETS  * FILE   NREC   LENGTH (MB)   RECORD NAMES
              1      20      774.52       500      610      700      900      950      970     1000      129      960     1100   
                                          VAR    BASINP    GEOM    SYMINP    ZMAT    AOBASIS   BASIS     P2S    ABASIS      S 
                                         1400     1410     1200     1210     1080     1600     1650     1300     1700     1380   
                                           T        V       H0       H01     AOSYM     SMH    MOLCAS    ERIS     OPER     JKOP   

              2       3        0.94       700     1000     2100   
                                         GEOM     BASIS     RHF  

 PROGRAMS   *        TOTAL   CCSD(T)       RHF       INT
 CPU TIMES  *       826.98    804.67     16.59      5.66
 REAL TIME  *       842.45 SEC
 DISK USED  *         2.11 GB      
 GA USED    *         0.00 MB       (max)       0.00 MB       (current)
 **********************************************************************************************************************************

        CCSD(T)         RHF-SCF 
   -378.73284891   -377.61190752
 **********************************************************************************************************************************
 Variable memory released
