
 Primary working directories    : /tmp/880701.552.gen4.q
 Secondary working directories  : /tmp/880701.552.gen4.q
 Wavefunction directory         : /home/vulcan/lo21740/wfu/
 Main file repository           : /tmp/880701.552.gen4.q/

 ARCHNAME  : Linux/x86_64
 FC        : /opt/intel/compilers_and_libraries_2016.1.150/linux/bin/intel64/ifort
 FCVERSION : 16.0.1
 BLASLIB   : -mkl
 id        : ccgc

 Nodes     nprocs
 n040         1
 ga_uses_ma=false, calling ma_init with nominal heap.
 GA-space will be limited to   8.0 MW (determined by -G option)

 Using customized tuning parameters: mindgm=10; mindgv=16; mindgc=4; mindgr=1; noblas=0; mincuda=1000; minvec=7
 default implementation of scratch files=df  

 ***,Optimization of formamide
 memory,1000,m
 gthresh,energy=1.0d-12,orbital=1.0d-10,oneint=1.0d-16,twoint=1.0d-16,optgrad=1.0d-6,compress=1.0d-13
 geomtyp=xyz
 
 bohr
 geometry = {
  C   -3.8258710301    0.0890567070    0.0000000000
  O   -2.7302926851    2.1369422316   -0.0000000000
  N   -2.6814758301   -2.1780331103   -0.0000000000
  H   -3.7389170676   -3.7568276666    0.0000000000
  H   -0.7507633474   -2.3065284374   -0.0000000000
  H   -5.9023038732   -0.0191628919   -0.0000000000
  C    3.8258710301   -0.0890567070    0.0000000000
  O    2.7302926851   -2.1369422316   -0.0000000000
  N    2.6814758301    2.1780331103   -0.0000000000
  H    3.7389170676    3.7568276666    0.0000000000
  H    0.7507633474    2.3065284374   -0.0000000000
  H    5.9023038732    0.0191628919   -0.0000000000
 }
 
 basis=AVDZ
 {rhf;maxit,200}
 {ccsd(t);maxit,200}

 Variables initialized (661), CPU time= 0.00 sec
 Commands  initialized (458), CPU time= 0.01 sec, 486 directives.
 Default parameters read. Elapsed time= 0.06 sec

 Checking input...
 Passed
1


                                         ***  PROGRAM SYSTEM MOLPRO  ***
                         Copyright, University College Cardiff Consultants Limited, 2008

                                    Version 2010.1 linked May 16 2016 07:17:05


 **********************************************************************************************************************************
 LABEL *   Optimization of formamide                                                     
 Linux-4.4.3/n040(x86_64) 64 bit mpp version                                             DATE: 25-May-23          TIME: 00:21:08  
 **********************************************************************************************************************************

 SHA1:             9e8077add272b0f3cad6f7df79ec5211205f459d
 **********************************************************************************************************************************

 THRESHOLDS:

 ZERO    =  1.00D-12  ONEINT  =  1.00D-16  TWOINT  =  1.00D-16  PREFAC  =  1.00D-14  LOCALI  =  1.00D-09  EORDER  =  1.00D-04
 ENERGY  =  1.00D-12  ETEST   =  0.00D+00  EDENS   =  0.00D+00  THRDEDEF=  1.00D-06  GRADIENT=  1.00D-02  STEP    =  1.00D-03
 ORBITAL =  1.00D-10  CIVEC   =  1.00D-05  COEFF   =  1.00D-04  PRINTCI =  5.00D-02  PUNCHCI =  9.90D+01  OPTGRAD =  1.00D-06
 OPTENERG=  1.00D-06  OPTSTEP =  3.00D-04  THRGRAD =  1.00D-10  COMPRESS=  1.00D-13  VARMIN  =  1.00D-07  VARMAX  =  1.00D-03
 THRDOUB =  0.00D+00  THRDIV  =  1.00D-05  THRRED  =  1.00D-07  THRPSP  =  1.00D+00  THRDC   =  1.00D-10  THRCS   =  1.00D-10
 THRNRM  =  1.00D-08  THREQ   =  0.00D+00  THRDE   =  1.00D+00  THRREF  =  1.00D-05  SPARFAC =  1.00D+00  THRDLP  =  1.00D-07
 THRDIA  =  1.00D-10  THRDLS  =  1.00D-07  THRGPS  =  0.00D+00  THRKEX  =  0.00D+00  THRDIS  =  2.00D-01  THRVAR  =  1.00D-10
 THRLOC  =  1.00D-06  THRGAP  =  1.00D-06  THRLOCT = -1.00D+00  THRGAPT = -1.00D+00  THRORB  =  1.00D-06  THRMLTP =  0.00D+00
 THRCPQCI=  1.00D-10  KEXTA   =  0.00D+00  THRCOARS=  0.00D+00  SYMTOL  =  1.00D-06  GRADTOL =  1.00D-06  THROVL  =  1.00D-08
 THRORTH =  1.00D-08  GRID    =  1.00D-06  GRIDMAX =  1.00D-03  DTMAX   =  0.00D+00

 SETTING GEOMTYP        =    XYZ
 ZUNIT=BOHR
 

 Variable memory set to 1000000000 words,  buffer space   230000 words

 SETTING BASIS          =    AVDZ


 Recomputing integrals since basis changed


 Using spherical harmonics

 Library entry C      S aug-cc-pVDZ          selected for orbital group  1
 Library entry C      P aug-cc-pVDZ          selected for orbital group  1
 Library entry C      D aug-cc-pVDZ          selected for orbital group  1
 Library entry O      S aug-cc-pVDZ          selected for orbital group  2
 Library entry O      P aug-cc-pVDZ          selected for orbital group  2
 Library entry O      D aug-cc-pVDZ          selected for orbital group  2
 Library entry N      S aug-cc-pVDZ          selected for orbital group  3
 Library entry N      P aug-cc-pVDZ          selected for orbital group  3
 Library entry N      D aug-cc-pVDZ          selected for orbital group  3
 Library entry H      S aug-cc-pVDZ          selected for orbital group  4
 Library entry H      P aug-cc-pVDZ          selected for orbital group  4

1PROGRAM * SEWARD (Integral evaluation for generally contracted gaussian basis sets)     Author: Roland Lindh, 1990

 Geometry written to block  1 of record 700


 Point group  C2h 



 ATOMIC COORDINATES

 NR  ATOM    CHARGE       X              Y              Z

   1  C       6.00   -3.825871030    0.089056707    0.000000000
   2  C       6.00    3.825871030   -0.089056707    0.000000000
   3  O       8.00   -2.730292685    2.136942232    0.000000000
   4  O       8.00    2.730292685   -2.136942232    0.000000000
   5  N       7.00   -2.681475830   -2.178033110    0.000000000
   6  N       7.00    2.681475830    2.178033110    0.000000000
   7  H       1.00   -3.738917068   -3.756827667    0.000000000
   8  H       1.00    3.738917068    3.756827667    0.000000000
   9  H       1.00   -0.750763347   -2.306528437    0.000000000
  10  H       1.00    0.750763347    2.306528437    0.000000000
  11  H       1.00   -5.902303873   -0.019162892    0.000000000
  12  H       1.00    5.902303873    0.019162892    0.000000000

 Bond lengths in Bohr (Angstrom)

  1- 3  2.322526002   1- 5  2.539554412   1-11  2.079251027   2- 4  2.322526002   2- 6  2.539554412
       ( 1.229027828)       ( 1.343874316)       ( 1.100292255)       ( 1.229027828)       ( 1.343874316)

  2-12  2.079251027   5- 7  1.900203732   5- 9  1.934983654   6- 8  1.900203732   6-10  1.934983654
       ( 1.100292255)       ( 1.005544507)       ( 1.023949249)       ( 1.005544507)       ( 1.023949249)

 Bond angles

  1- 5- 7  119.40270511   1- 5- 9  120.59161429   2- 6- 8  119.40270511   2- 6-10  120.59161429

  3- 1- 5  125.07009279   3- 1-11  121.12934627   4- 2- 6  125.07009279   4- 2-12  121.12934627

  5- 1-11  113.80056094   6- 2-12  113.80056094   7- 5- 9  120.00568059   8- 6-10  120.00568059

 NUCLEAR CHARGE:                   48
 NUMBER OF PRIMITIVE AOS:         288
 NUMBER OF SYMMETRY AOS:          276
 NUMBER OF CONTRACTIONS:          192   (  69Ag  +  27Au  +  69Bu  +  27Bg  )
 NUMBER OF CORE ORBITALS:           6   (   3Ag  +   0Au  +   3Bu  +   0Bg  )
 NUMBER OF VALENCE ORBITALS:       30   (  12Ag  +   3Au  +  12Bu  +   3Bg  )


 NUCLEAR REPULSION ENERGY  230.57910383


 Eigenvalues of metric

         1 0.232E-03 0.528E-03 0.703E-03 0.713E-03 0.863E-03 0.217E-02 0.279E-02 0.327E-02
         2 0.198E-01 0.283E-01 0.339E-01 0.452E-01 0.702E-01 0.793E-01 0.124E+00 0.184E+00
         3 0.271E-03 0.525E-03 0.564E-03 0.717E-03 0.120E-02 0.133E-02 0.232E-02 0.320E-02
         4 0.182E-01 0.283E-01 0.335E-01 0.416E-01 0.553E-01 0.886E-01 0.165E+00 0.172E+00


 Contracted 2-electron integrals neglected if value below      1.0D-16
 AO integral compression algorithm  1   Integral accuracy      1.0D-16

     455.868 MB (compressed) written to integral file (100.0%)

     Node minimum: 455.868 MB, node maximum: 455.868 MB


 NUMBER OF SORTED TWO-ELECTRON INTEGRALS:   45269976.     BUFFER LENGTH:  32768
 NUMBER OF SEGMENTS:   3  SEGMENT LENGTH:   15999984      RECORD LENGTH: 524288

 Memory used in sort:      16.56 MW

 SORT1 READ    55745328. AND WROTE    45269973. INTEGRALS IN    130 RECORDS. CPU TIME:     0.89 SEC, REAL TIME:     1.24 SEC
 SORT2 READ    45269973. AND WROTE    45269976. INTEGRALS IN   1739 RECORDS. CPU TIME:     0.54 SEC, REAL TIME:     0.76 SEC

 FILE SIZES:   FILE 1:   375.6 MBYTE,  FILE 4:   545.3 MBYTE,   TOTAL:    920.9 MBYTE

 OPERATOR DM      FOR CENTER  0  COORDINATES:    0.000000    0.000000    0.000000


 **********************************************************************************************************************************
 DATASETS  * FILE   NREC   LENGTH (MB)   RECORD NAMES
              1      19      375.74       500      610      700      900      950      970     1000      129      960     1100   
                                          VAR    BASINP    GEOM    SYMINP    ZMAT    AOBASIS   BASIS     P2S    ABASIS      S 
                                         1400     1410     1200     1210     1080     1600     1650     1300     1700   
                                           T        V       H0       H01     AOSYM     SMH    MOLCAS    ERIS     OPER   

 PROGRAMS   *        TOTAL       INT
 CPU TIMES  *         5.55      5.49
 REAL TIME  *         6.52 SEC
 DISK USED  *         1.38 GB      
 GA USED    *         0.00 MB       (max)       0.00 MB       (current)
 **********************************************************************************************************************************

1PROGRAM * RHF-SCF (CLOSED SHELL)       Authors: W. Meyer, H.-J. Werner


 NUMBER OF ELECTRONS:      24+   24-
 CONVERGENCE THRESHOLDS:    1.00E-10 (Density)    1.00E-13 (Energy)
 MAX. NUMBER OF ITERATIONS:      200
 INTERPOLATION TYPE:            DIIS
 INTERPOLATION STEPS:              2 (START)      1 (STEP)
 LEVEL SHIFTS:                  0.00 (CLOSED)  0.00 (OPEN) 



 Orbital guess generated from atomic densities. Full valence occupancy:   15   3  15   3

 Molecular orbital dump at record        2100.2

 Initial alpha occupancy:  10   2  10   2
 Initial beta  occupancy:  10   2  10   2
 Wave function symmetry:    1

 ITERATION    DDIFF          GRAD             ENERGY        2-EL.EN.            DIPOLE MOMENTS         DIIS
    1      0.000D+00      0.000D+00      -337.80679555    704.845892    0.00000    0.00000    0.00000    0
    2      0.000D+00      0.102D-01      -337.88424400    699.226829    0.00000    0.00000    0.00000    1
    3      0.194D-01      0.744D-02      -337.94144230    701.961714    0.00000    0.00000    0.00000    2
    4      0.787D-02      0.986D-03      -337.94364935    701.867640    0.00000    0.00000    0.00000    3
    5      0.188D-02      0.340D-03      -337.94391749    701.799712    0.00000    0.00000    0.00000    4
    6      0.641D-03      0.112D-03      -337.94397890    701.825438    0.00000    0.00000    0.00000    5
    7      0.284D-03      0.495D-04      -337.94398995    701.816649    0.00000    0.00000    0.00000    6
    8      0.135D-03      0.147D-04      -337.94399090    701.822119    0.00000    0.00000    0.00000    7
    9      0.426D-04      0.438D-05      -337.94399096    701.819662    0.00000    0.00000    0.00000    8
   10      0.110D-04      0.152D-05      -337.94399097    701.820214    0.00000    0.00000    0.00000    7
   11      0.456D-05      0.365D-06      -337.94399098    701.820140    0.00000    0.00000    0.00000    8
   12      0.106D-05      0.553D-07      -337.94399098    701.820147    0.00000    0.00000    0.00000    7
   13      0.156D-06      0.129D-07      -337.94399098    701.820148    0.00000    0.00000    0.00000    7
   14      0.395D-07      0.234D-08      -337.94399098    701.820148    0.00000    0.00000    0.00000    6
   15      0.613D-08      0.790D-09      -337.94399098    701.820148    0.00000    0.00000    0.00000    6
   16      0.171D-08      0.331D-09      -337.94399098    701.820148    0.00000    0.00000    0.00000    6
   17      0.610D-09      0.981D-10      -337.94399098    701.820148    0.00000    0.00000    0.00000    7
   18      0.209D-09      0.268D-10      -337.94399098    701.820148    0.00000    0.00000    0.00000    7
   19      0.692D-10      0.875D-11      -337.94399098    701.820148    0.00000    0.00000    0.00000    0

 Final occupancy:  10   2  10   2

 !RHF STATE 1.1 Energy               -337.943990975014
 Nuclear energy                       230.57910383
 One-electron energy                 -919.43316875
 Two-electron energy                  350.91007394
 Virial quotient                       -1.00169937
 !RHF STATE 1.1 Dipole moment           0.00000000     0.00000000     0.00000000
 Dipole moment /Debye                   0.00000000     0.00000000     0.00000000

 Orbital energies:

         1.1          2.1          3.1          4.1          5.1          6.1          7.1          8.1          9.1         10.1
    -20.541295   -15.588601   -11.367493    -1.390685    -1.211817    -0.860719    -0.749463    -0.645069    -0.619809    -0.454560

        11.1         12.1
      0.033420     0.059173

         1.2          2.2          3.2          4.2
     -0.574188    -0.409740     0.092341     0.151183

         1.3          2.3          3.3          4.3          5.3          6.3          7.3          8.3          9.3         10.3
    -20.541295   -15.588601   -11.367493    -1.386021    -1.217943    -0.835468    -0.740455    -0.706078    -0.594149    -0.429120

        11.3         12.3
      0.036402     0.052535

         1.4          2.4          3.4          4.4
     -0.566163    -0.420287     0.103404     0.182033


 **********************************************************************************************************************************
 DATASETS  * FILE   NREC   LENGTH (MB)   RECORD NAMES
              1      19      375.74       500      610      700      900      950      970     1000      129      960     1100   
                                          VAR    BASINP    GEOM    SYMINP    ZMAT    AOBASIS   BASIS     P2S    ABASIS      S 
                                         1400     1410     1200     1210     1080     1600     1650     1300     1700   
                                           T        V       H0       H01     AOSYM     SMH    MOLCAS    ERIS     OPER   

              2       3        0.70       700     1000     2100   
                                         GEOM     BASIS     RHF  

 PROGRAMS   *        TOTAL       RHF       INT
 CPU TIMES  *         8.57      3.02      5.49
 REAL TIME  *        10.13 SEC
 DISK USED  *         1.38 GB      
 GA USED    *         0.00 MB       (max)       0.00 MB       (current)
 **********************************************************************************************************************************


1PROGRAM * CCSD (Closed-shell coupled cluster)     Authors: C. Hampel, H.-J. Werner, 1991, M. Deegan, P.J. Knowles, 1992


 Convergence thresholds:  THRVAR = 1.00D-08  THRDEN = 1.00D-12

 CCSD(T)     terms to be evaluated (factor= 1.000)


 Number of core orbitals:           6 (   3   0   3   0 )
 Number of closed-shell orbitals:  18 (   7   2   7   2 )
 Number of external orbitals:     168 (  59  25  59  25 )

 Molecular orbitals read from record     2100.2  Type=RHF/CANONICAL (state 1.1)

 Number of N-1 electron functions:              18
 Number of N-2 electron functions:             171
 Number of singly external CSFs:               926
 Number of doubly external CSFs:           1202384
 Total number of CSFs:                     1203311

 Length of J-op  integral file:               0.00 MB
 Length of K-op  integral file:               0.79 MB
 Length of 3-ext integral record:             0.00 MB

 Memory could be reduced to 28.44 Mwords without degradation in triples

 Integral transformation finished. Total CPU:   1.46 sec, npass=  1  Memory used:   8.50 MW

 Reference energy:                   -337.94399098

 MP2 singlet pair energy:              -0.62258450
 MP2 triplet pair energy:              -0.40602598
 MP2 correlation energy:               -1.02861048
 MP2 total energy:                   -338.97260145

 SCS-MP2 correlation energy:           -0.99973979   (PS=  1.200000  PT=  0.333333)
 SCS-MP2 total energy:               -338.94373076

 ITER.      SQ.NORM     CORR.ENERGY   TOTAL ENERGY   ENERGY CHANGE        DEN1      VAR(S)    VAR(P)  DIIS     TIME
   1      1.31917533    -1.05718419  -339.00117516    -0.02857371     0.00266797  0.10D-01  0.60D-02  1  1     4.21
   2      1.34464894    -1.05908308  -339.00307406    -0.00189890    -0.02592250  0.22D-03  0.11D-02  2  2     7.08
   3      1.35723727    -1.05996946  -339.00396043    -0.00088637    -0.00555359  0.22D-03  0.52D-04  3  3     9.97
   4      1.36241988    -1.05970696  -339.00369793     0.00026250    -0.00168782  0.22D-04  0.95D-05  4  4    12.85
   5      1.36454729    -1.05965021  -339.00364118     0.00005675    -0.00044581  0.27D-05  0.12D-05  5  5    15.77
   6      1.36506404    -1.05962190  -339.00361287     0.00002831    -0.00004945  0.27D-06  0.19D-06  6  6    18.65
   7      1.36519049    -1.05960971  -339.00360069     0.00001218    -0.00000203  0.35D-07  0.23D-07  6  1    21.55
   8      1.36522749    -1.05960855  -339.00359952     0.00000116    -0.00000694  0.73D-08  0.33D-08  6  2    24.46
   9      1.36522906    -1.05960873  -339.00359971    -0.00000018     0.00000263  0.13D-08  0.48D-09  6  3    27.34
  10      1.36523381    -1.05960820  -339.00359918     0.00000053    -0.00000110  0.32D-09  0.68D-10  6  4    30.24
  11      1.36523360    -1.05960846  -339.00359943    -0.00000026     0.00000045  0.57D-10  0.14D-10  6  5    33.12
  12      1.36523360    -1.05960844  -339.00359941     0.00000002     0.00000002  0.49D-11  0.34D-11  6  6    36.02
  13      1.36523332    -1.05960848  -339.00359946    -0.00000004     0.00000012  0.11D-11  0.40D-12  6  1    38.92
  14      1.36523323    -1.05960849  -339.00359947    -0.00000001     0.00000004  0.10D-12  0.80D-13  6  2    41.81
  15      1.36523320    -1.05960849  -339.00359947     0.00000000     0.00000001  0.32D-13  0.12D-13  6  3    44.70
  16      1.36523320    -1.05960849  -339.00359947    -0.00000000     0.00000000  0.63D-14  0.28D-14  6  4    47.61
  17      1.36523320    -1.05960849  -339.00359947    -0.00000000    -0.00000000  0.15D-14  0.60D-15  6  5    50.50
  18      1.36523320    -1.05960849  -339.00359947     0.00000000    -0.00000000  0.42D-15  0.12D-15  6  6    53.39
  19      1.36523320    -1.05960849  -339.00359947    -0.00000000    -0.00000000  0.54D-16  0.34D-16  6  1    56.31
  20      1.36523320    -1.05960849  -339.00359947     0.00000000    -0.00000000  0.16D-16  0.73D-17  6  2    59.20
  21      1.36523320    -1.05960849  -339.00359947    -0.00000000     0.00000000  0.31D-17  0.14D-17  6  3    62.08
  22      1.36523320    -1.05960849  -339.00359947    -0.00000000     0.00000000  0.49D-18  0.31D-18  6  4    64.97
  23      1.36523320    -1.05960849  -339.00359947     0.00000000     0.00000000  0.12D-18  0.60D-19  6  5    67.86
  24      1.36523320    -1.05960849  -339.00359947    -0.00000000     0.00000000  0.19D-19  0.11D-19  6  6    70.75
  25      1.36523320    -1.05960849  -339.00359947    -0.00000000     0.00000000  0.28D-20  0.24D-20  6  1    73.64
  26      1.36523320    -1.05960849  -339.00359947     0.00000000    -0.00000000  0.79D-21  0.35D-21  6  2    76.53

 Norm of t1 vector:      0.14787508      S-energy:    -0.00000000      T1 diagnostic:  0.01742725
                                                                       D1 diagnostic:  0.05881822


 Total CPU time for triples:     84.76 sec


 RESULTS
 =======

  Reference energy                   -337.943990975014
  CCSD singlet pair energy             -0.699512017294
  CCSD triplet pair energy             -0.360096474444
  CCSD correlation energy              -1.059608491739

  Triples (T) contribution             -0.039889042949
  Total correlation energy             -1.099497534687

  CCSD total energy                  -339.003599466753
  CCSD[T] energy                     -339.046694281030
  CCSD-T energy                      -339.042369198479
 !CCSD(T) total energy               -339.043488509701

 Timing summary (sec):

 STEP                 CPU(USER)    SYS     CPU(TOT)    WALL
 Transformation          1.50      0.20      1.70      1.70
 CCSD iterations        75.04      2.69     77.73     77.81
 Triples                84.76      2.09     86.85     86.87

 Program statistics:

 Available memory in ccsd:               999998604
 Min. memory needed in ccsd:               3014206
 Max. memory used in ccsd:                 4106384
 Max. memory used in cckext:               3788489 (26 integral passes)



 **********************************************************************************************************************************
 DATASETS  * FILE   NREC   LENGTH (MB)   RECORD NAMES
              1      20      485.26       500      610      700      900      950      970     1000      129      960     1100   
                                          VAR    BASINP    GEOM    SYMINP    ZMAT    AOBASIS   BASIS     P2S    ABASIS      S 
                                         1400     1410     1200     1210     1080     1600     1650     1300     1700     1380   
                                           T        V       H0       H01     AOSYM     SMH    MOLCAS    ERIS     OPER     JKOP   

              2       3        0.70       700     1000     2100   
                                         GEOM     BASIS     RHF  

 PROGRAMS   *        TOTAL   CCSD(T)       RHF       INT
 CPU TIMES  *       169.89    161.31      3.02      5.49
 REAL TIME  *       176.55 SEC
 DISK USED  *         1.38 GB      
 GA USED    *         0.00 MB       (max)       0.00 MB       (current)
 **********************************************************************************************************************************

        CCSD(T)         RHF-SCF 
   -339.04348851   -337.94399098
 **********************************************************************************************************************************
 Variable memory released
