
 Primary working directories    : /tmp/917047.359.gen4.q
 Secondary working directories  : /tmp/917047.359.gen4.q
 Wavefunction directory         : /home/vulcan/lo21740/wfu/
 Main file repository           : /tmp/917047.359.gen4.q/

 ARCHNAME  : Linux/x86_64
 FC        : /opt/intel/compilers_and_libraries_2016.1.150/linux/bin/intel64/ifort
 FCVERSION : 16.0.1
 BLASLIB   : -mkl
 id        : ccgc

 Nodes     nprocs
 n022         1
 ga_uses_ma=false, calling ma_init with nominal heap.
 GA-space will be limited to   8.0 MW (determined by -G option)

 Using customized tuning parameters: mindgm=10; mindgv=16; mindgc=4; mindgr=1; noblas=0; mincuda=1000; minvec=7
 default implementation of scratch files=df  

 ***,Optimization of h2o_2
 memory,1000,m
 gthresh,energy=1.0d-12,orbital=1.0d-10,oneint=1.0d-16,twoint=1.0d-16,optgrad=1.0d-6,compress=1.0d-13
 geomtyp=xyz
 
 bohr
 geometry = {
  C    0.0007501527   -3.4206363708   -0.0000626833
  H   -0.9705493518   -2.7330987049   -1.6814088479
  H   -0.9705510929   -2.7310534133    1.6804446576
  H    1.9408952784   -2.7286181856   -0.0004826879
  H    0.0031945329   -5.4804463994    0.0011904695
  C   -0.0017223423    3.4233737465    0.0017506682
  H    0.0061580548    5.4831705354    0.0015446805
  H    0.9636946660    2.7298077508   -1.6805073070
  H    0.9685654938    2.7301253631    1.6813350808
  H   -1.9404353917    2.7273756782   -0.0038040304
 }
 
 basis=AVDZ, H=VDZ
 {rhf;maxit,200}
 {ccsd(t);maxit,200}

 Variables initialized (661), CPU time= 0.00 sec
 Commands  initialized (458), CPU time= 0.01 sec, 486 directives.
 Default parameters read. Elapsed time= 0.06 sec

 Checking input...
 Passed
1


                                         ***  PROGRAM SYSTEM MOLPRO  ***
                         Copyright, University College Cardiff Consultants Limited, 2008

                                    Version 2010.1 linked May 16 2016 07:17:05


 **********************************************************************************************************************************
 LABEL *   Optimization of h2o_2                                                         
 Linux-4.4.3/n022(x86_64) 64 bit mpp version                                             DATE: 20-Jul-23          TIME: 13:24:27  
 **********************************************************************************************************************************

 SHA1:             9e8077add272b0f3cad6f7df79ec5211205f459d
 **********************************************************************************************************************************

 THRESHOLDS:

 ZERO    =  1.00D-12  ONEINT  =  1.00D-16  TWOINT  =  1.00D-16  PREFAC  =  1.00D-14  LOCALI  =  1.00D-09  EORDER  =  1.00D-04
 ENERGY  =  1.00D-12  ETEST   =  0.00D+00  EDENS   =  0.00D+00  THRDEDEF=  1.00D-06  GRADIENT=  1.00D-02  STEP    =  1.00D-03
 ORBITAL =  1.00D-10  CIVEC   =  1.00D-05  COEFF   =  1.00D-04  PRINTCI =  5.00D-02  PUNCHCI =  9.90D+01  OPTGRAD =  1.00D-06
 OPTENERG=  1.00D-06  OPTSTEP =  3.00D-04  THRGRAD =  1.00D-10  COMPRESS=  1.00D-13  VARMIN  =  1.00D-07  VARMAX  =  1.00D-03
 THRDOUB =  0.00D+00  THRDIV  =  1.00D-05  THRRED  =  1.00D-07  THRPSP  =  1.00D+00  THRDC   =  1.00D-10  THRCS   =  1.00D-10
 THRNRM  =  1.00D-08  THREQ   =  0.00D+00  THRDE   =  1.00D+00  THRREF  =  1.00D-05  SPARFAC =  1.00D+00  THRDLP  =  1.00D-07
 THRDIA  =  1.00D-10  THRDLS  =  1.00D-07  THRGPS  =  0.00D+00  THRKEX  =  0.00D+00  THRDIS  =  2.00D-01  THRVAR  =  1.00D-10
 THRLOC  =  1.00D-06  THRGAP  =  1.00D-06  THRLOCT = -1.00D+00  THRGAPT = -1.00D+00  THRORB  =  1.00D-06  THRMLTP =  0.00D+00
 THRCPQCI=  1.00D-10  KEXTA   =  0.00D+00  THRCOARS=  0.00D+00  SYMTOL  =  1.00D-06  GRADTOL =  1.00D-06  THROVL  =  1.00D-08
 THRORTH =  1.00D-08  GRID    =  1.00D-06  GRIDMAX =  1.00D-03  DTMAX   =  0.00D+00

 SETTING GEOMTYP        =    XYZ
 ZUNIT=BOHR
 

 Variable memory set to 1000000000 words,  buffer space   230000 words

 SETTING BASIS          =    AVDZ,H=VDZ


 Recomputing integrals since basis changed


 Using spherical harmonics

 Library entry C      S aug-cc-pVDZ          selected for orbital group  1
 Library entry C      P aug-cc-pVDZ          selected for orbital group  1
 Library entry C      D aug-cc-pVDZ          selected for orbital group  1
 Library entry H      S cc-pVDZ              selected for orbital group  2
 Library entry H      P cc-pVDZ              selected for orbital group  2

1PROGRAM * SEWARD (Integral evaluation for generally contracted gaussian basis sets)     Author: Roland Lindh, 1990

 Geometry written to block  1 of record 700


 Point group  C1  



 ATOMIC COORDINATES

 NR  ATOM    CHARGE       X              Y              Z

   1  C       6.00    0.000750153   -3.420636371   -0.000062683
   2  H       1.00   -0.970549352   -2.733098705   -1.681408848
   3  H       1.00   -0.970551093   -2.731053413    1.680444658
   4  H       1.00    1.940895278   -2.728618186   -0.000482688
   5  H       1.00    0.003194533   -5.480446399    0.001190469
   6  C       6.00   -0.001722342    3.423373746    0.001750668
   7  H       1.00    0.006158055    5.483170535    0.001544681
   8  H       1.00    0.963694666    2.729807751   -1.680507307
   9  H       1.00    0.968565494    2.730125363    1.681335081
  10  H       1.00   -1.940435392    2.727375678   -0.003804030

 Bond lengths in Bohr (Angstrom)

 1-2  2.059867883  1-3  2.059867881  1-4  2.059867096  1-5  2.059811860  6-7  2.059811874
     ( 1.090035137)     ( 1.090035136)     ( 1.090034721)     ( 1.090005491)     ( 1.090005498)

  6- 8  2.059867881   6- 9  2.059867861   6-10  2.059867096
       ( 1.090035136)       ( 1.090035126)       ( 1.090034721)

 Bond angles

  2-1-3  109.37992576   2-1-4  109.37980979   2-1-5  109.56240831   3-1-4  109.37980971

  3-1-5  109.56240833   4-1-5  109.56250040   7-6-8  109.56201308   7-6-9  109.56201180

  7- 6-10  109.96724983   8- 6- 9  109.37953221   8- 6-10  108.97427014   9- 6-10  109.37941608

 NUCLEAR CHARGE:                   20
 NUMBER OF PRIMITIVE AOS:         130
 NUMBER OF SYMMETRY AOS:          126
 NUMBER OF CONTRACTIONS:           86   (  86A   )
 NUMBER OF CORE ORBITALS:           2   (   2A   )
 NUMBER OF VALENCE ORBITALS:       16   (  16A   )


 NUCLEAR REPULSION ENERGY   41.34434030


 Eigenvalues of metric

         1 0.535E-02 0.665E-02 0.907E-02 0.114E-01 0.117E-01 0.117E-01 0.140E-01 0.140E-01


 Contracted 2-electron integrals neglected if value below      1.0D-16
 AO integral compression algorithm  1   Integral accuracy      1.0D-16

     57.672 MB (compressed) written to integral file ( 87.1%)

     Node minimum: 57.672 MB, node maximum: 57.672 MB


 NUMBER OF SORTED TWO-ELECTRON INTEGRALS:    6999411.     BUFFER LENGTH:  32768
 NUMBER OF SEGMENTS:   1  SEGMENT LENGTH:    6999411      RECORD LENGTH: 524288

 Memory used in sort:       7.56 MW

 SORT1 READ     8242194. AND WROTE     6849942. INTEGRALS IN     20 RECORDS. CPU TIME:     0.08 SEC, REAL TIME:     0.12 SEC
 SORT2 READ     6849942. AND WROTE     6999411. INTEGRALS IN    220 RECORDS. CPU TIME:     0.10 SEC, REAL TIME:     0.13 SEC

 FILE SIZES:   FILE 1:    52.0 MBYTE,  FILE 4:    83.9 MBYTE,   TOTAL:    135.9 MBYTE

 OPERATOR DM      FOR CENTER  0  COORDINATES:    0.000000    0.000000    0.000000


 **********************************************************************************************************************************
 DATASETS  * FILE   NREC   LENGTH (MB)   RECORD NAMES
              1      19       52.09       500      610      700      900      950      970     1000      129      960     1100   
                                          VAR    BASINP    GEOM    SYMINP    ZMAT    AOBASIS   BASIS     P2S    ABASIS      S 
                                         1400     1410     1200     1210     1080     1600     1650     1300     1700   
                                           T        V       H0       H01     AOSYM     SMH    MOLCAS    ERIS     OPER   

 PROGRAMS   *        TOTAL       INT
 CPU TIMES  *         0.90      0.84
 REAL TIME  *         1.18 SEC
 DISK USED  *       194.36 MB      
 GA USED    *         0.00 MB       (max)       0.00 MB       (current)
 **********************************************************************************************************************************

1PROGRAM * RHF-SCF (CLOSED SHELL)       Authors: W. Meyer, H.-J. Werner


 NUMBER OF ELECTRONS:      10+   10-    SPACE SYMMETRY=1    SPIN SYMMETRY: Singlet 
 CONVERGENCE THRESHOLDS:    1.00E-10 (Density)    1.00E-13 (Energy)
 MAX. NUMBER OF ITERATIONS:      200
 INTERPOLATION TYPE:            DIIS
 INTERPOLATION STEPS:              2 (START)      1 (STEP)
 LEVEL SHIFTS:                  0.00 (CLOSED)  0.00 (OPEN) 



 Orbital guess generated from atomic densities. Full valence occupancy:   18

 Molecular orbital dump at record        2100.2

 ITERATION    DDIFF          GRAD             ENERGY        2-EL.EN.            DIPOLE MOMENTS         DIIS
    1      0.000D+00      0.000D+00       -80.36119526    134.783692    0.00073   -0.00216   -0.00129    0
    2      0.000D+00      0.502D-02       -80.39313339    132.495898    0.00031   -0.00090   -0.00032    1
    3      0.106D-01      0.186D-02       -80.39708670    133.316463    0.00043   -0.00108   -0.00051    2
    4      0.347D-02      0.507D-03       -80.39767024    133.184190    0.00040   -0.00095   -0.00044    3
    5      0.114D-02      0.611D-04       -80.39767806    133.191581    0.00040   -0.00094   -0.00043    4
    6      0.162D-03      0.345D-05       -80.39767810    133.191413    0.00040   -0.00094   -0.00043    5
    7      0.156D-04      0.266D-06       -80.39767810    133.191403    0.00040   -0.00094   -0.00043    5
    8      0.861D-06      0.477D-07       -80.39767810    133.191403    0.00040   -0.00094   -0.00043    4
    9      0.113D-06      0.799D-08       -80.39767810    133.191404    0.00040   -0.00094   -0.00043    4
   10      0.231D-07      0.122D-08       -80.39767810    133.191404    0.00040   -0.00094   -0.00043    5
   11      0.277D-08      0.298D-09       -80.39767810    133.191404    0.00040   -0.00094   -0.00043    5
   12      0.671D-09      0.839D-10       -80.39767810    133.191404    0.00040   -0.00094   -0.00043    6
   13      0.191D-09      0.159D-10       -80.39767810    133.191404    0.00040   -0.00094   -0.00043    6
   14      0.384D-10      0.339D-11       -80.39767810    133.191404    0.00040   -0.00094   -0.00043    0

 Final occupancy:  10

 !RHF STATE 1.1 Energy                -80.397678096988
 Nuclear energy                        41.34434030
 One-electron energy                 -188.33772042
 Two-electron energy                   66.59570202
 Virial quotient                       -1.00212527
 !RHF STATE 1.1 Dipole moment           0.00039596    -0.00093644    -0.00042825
 Dipole moment /Debye                   0.00100638    -0.00238003    -0.00108842

 Orbital energies:

         1.1          2.1          3.1          4.1          5.1          6.1          7.1          8.1          9.1         10.1
    -11.215513   -11.215475    -0.945505    -0.939602    -0.551073    -0.546513    -0.546020    -0.539131    -0.538583    -0.535744

        11.1         12.1
      0.080158     0.084237


 **********************************************************************************************************************************
 DATASETS  * FILE   NREC   LENGTH (MB)   RECORD NAMES
              1      19       52.09       500      610      700      900      950      970     1000      129      960     1100   
                                          VAR    BASINP    GEOM    SYMINP    ZMAT    AOBASIS   BASIS     P2S    ABASIS      S 
                                         1400     1410     1200     1210     1080     1600     1650     1300     1700   
                                           T        V       H0       H01     AOSYM     SMH    MOLCAS    ERIS     OPER   

              2       3        0.57       700     1000     2100   
                                         GEOM     BASIS     RHF  

 PROGRAMS   *        TOTAL       RHF       INT
 CPU TIMES  *         1.73      0.83      0.84
 REAL TIME  *         2.10 SEC
 DISK USED  *       194.36 MB      
 GA USED    *         0.00 MB       (max)       0.00 MB       (current)
 **********************************************************************************************************************************


1PROGRAM * CCSD (Closed-shell coupled cluster)     Authors: C. Hampel, H.-J. Werner, 1991, M. Deegan, P.J. Knowles, 1992


 Convergence thresholds:  THRVAR = 1.00D-08  THRDEN = 1.00D-12

 CCSD(T)     terms to be evaluated (factor= 1.000)


 Number of core orbitals:           2 (   2 )
 Number of closed-shell orbitals:   8 (   8 )
 Number of external orbitals:      76 (  76 )

 Molecular orbitals read from record     2100.2  Type=RHF/CANONICAL (state 1.1)

 Number of N-1 electron functions:               8
 Number of N-2 electron functions:              36
 Number of singly external CSFs:               608
 Number of doubly external CSFs:            185136
 Total number of CSFs:                      185745

 Length of J-op  integral file:               0.00 MB
 Length of K-op  integral file:               0.54 MB
 Length of 3-ext integral record:             0.00 MB

 Memory could be reduced to 5.45 Mwords without degradation in triples

 Integral transformation finished. Total CPU:   0.24 sec, npass=  1  Memory used:   3.53 MW

 Reference energy:                    -80.39767810

 MP2 singlet pair energy:              -0.23821365
 MP2 triplet pair energy:              -0.09578968
 MP2 correlation energy:               -0.33400333
 MP2 total energy:                    -80.73168143

 SCS-MP2 correlation energy:           -0.34545884   (PS=  1.200000  PT=  0.333333)
 SCS-MP2 total energy:                -80.74313694

 ITER.      SQ.NORM     CORR.ENERGY   TOTAL ENERGY   ENERGY CHANGE        DEN1      VAR(S)    VAR(P)  DIIS     TIME
   1      1.13988464    -0.37812093   -80.77579903    -0.04411760    -0.03297240  0.68D-03  0.24D-02  1  1     0.65
   2      1.15302731    -0.38091429   -80.77859239    -0.00279336    -0.01280910  0.15D-04  0.11D-03  2  2     1.06
   3      1.15509814    -0.38105247   -80.77873056    -0.00013818    -0.00107878  0.24D-05  0.62D-05  3  3     1.46
   4      1.15552632    -0.38107010   -80.77874820    -0.00001764    -0.00017346  0.60D-07  0.37D-06  4  4     1.87
   5      1.15558689    -0.38106615   -80.77874425     0.00000395    -0.00002811  0.29D-08  0.21D-07  5  5     2.28
   6      1.15558913    -0.38106551   -80.77874360     0.00000064    -0.00000061  0.19D-09  0.15D-08  6  6     2.69
   7      1.15558929    -0.38106578   -80.77874388    -0.00000028     0.00000005  0.15D-10  0.95D-10  6  1     3.11
   8      1.15558935    -0.38106579   -80.77874389    -0.00000001    -0.00000009  0.18D-11  0.64D-11  6  2     3.52
   9      1.15558927    -0.38106579   -80.77874389     0.00000000     0.00000002  0.37D-12  0.44D-12  6  4     3.94
  10      1.15558926    -0.38106579   -80.77874389    -0.00000000    -0.00000000  0.29D-13  0.33D-13  6  3     4.35
  11      1.15558925    -0.38106580   -80.77874389    -0.00000000     0.00000000  0.24D-14  0.30D-14  6  5     4.77
  12      1.15558925    -0.38106580   -80.77874389    -0.00000000     0.00000000  0.20D-15  0.31D-15  6  6     5.18
  13      1.15558924    -0.38106580   -80.77874389    -0.00000000     0.00000000  0.12D-16  0.39D-16  6  1     5.60
  14      1.15558924    -0.38106580   -80.77874389    -0.00000000     0.00000000  0.16D-17  0.49D-17  6  2     6.02
  15      1.15558924    -0.38106580   -80.77874389    -0.00000000     0.00000000  0.11D-18  0.51D-18  6  4     6.42
  16      1.15558924    -0.38106580   -80.77874389    -0.00000000     0.00000000  0.11D-19  0.44D-19  6  3     6.83
  17      1.15558924    -0.38106580   -80.77874389     0.00000000    -0.00000000  0.22D-21  0.38D-20  6  6     7.25
  18      1.15558924    -0.38106580   -80.77874389     0.00000000    -0.00000000  0.35D-22  0.80D-22  6  5     7.66

 Norm of t1 vector:      0.03875676      S-energy:    -0.00000000      T1 diagnostic:  0.00685129
                                                                       D1 diagnostic:  0.01214468


 Total CPU time for triples:      3.57 sec


 RESULTS
 =======

  Reference energy                    -80.397678096988
  CCSD singlet pair energy             -0.287790158182
  CCSD triplet pair energy             -0.093275637514
  CCSD correlation energy              -0.381065795697

  Triples (T) contribution             -0.008788453366
  Total correlation energy             -0.389854249063

  CCSD total energy                   -80.778743892684
  CCSD[T] energy                      -80.787746956435
  CCSD-T energy                       -80.787420293188
 !CCSD(T) total energy                -80.787532346051

 Timing summary (sec):

 STEP                 CPU(USER)    SYS     CPU(TOT)    WALL
 Transformation          0.25      0.03      0.28      0.29
 CCSD iterations         7.41      0.29      7.70      7.73
 Triples                 3.57      0.07      3.64      3.64

 Program statistics:

 Available memory in ccsd:               999999644
 Min. memory needed in ccsd:                591289
 Max. memory used in ccsd:                  742713
 Max. memory used in cckext:                619606 (18 integral passes)



 **********************************************************************************************************************************
 DATASETS  * FILE   NREC   LENGTH (MB)   RECORD NAMES
              1      20       69.67       500      610      700      900      950      970     1000      129      960     1100   
                                          VAR    BASINP    GEOM    SYMINP    ZMAT    AOBASIS   BASIS     P2S    ABASIS      S 
                                         1400     1410     1200     1210     1080     1600     1650     1300     1700     1380   
                                           T        V       H0       H01     AOSYM     SMH    MOLCAS    ERIS     OPER     JKOP   

              2       3        0.57       700     1000     2100   
                                         GEOM     BASIS     RHF  

 PROGRAMS   *        TOTAL   CCSD(T)       RHF       INT
 CPU TIMES  *        12.98     11.25      0.83      0.84
 REAL TIME  *        13.80 SEC
 DISK USED  *       194.36 MB      
 GA USED    *         0.00 MB       (max)       0.00 MB       (current)
 **********************************************************************************************************************************

        CCSD(T)         RHF-SCF 
    -80.78753235    -80.39767810
 **********************************************************************************************************************************
 Variable memory released
