
 Primary working directories    : /tmp/1049102.1234.gen4.q
 Secondary working directories  : /tmp/1049102.1234.gen4.q
 Wavefunction directory         : /home/vulcan/mel64643/wfu/
 Main file repository           : /tmp/1049102.1234.gen4.q/

 ARCHNAME  : Linux/x86_64
 FC        : /opt/intel/compilers_and_libraries_2016.1.150/linux/bin/intel64/ifort
 FCVERSION : 16.0.1
 BLASLIB   : -mkl
 id        : ccgc

 Nodes     nprocs
 n026         1
 ga_uses_ma=false, calling ma_init with nominal heap.
 GA-space will be limited to   8.0 MW (determined by -G option)

 Using customized tuning parameters: mindgm=10; mindgv=16; mindgc=4; mindgr=1; noblas=0; mincuda=1000; minvec=7
 default implementation of scratch files=df  

 ***,Optimization of h2o_3
 memory,1000,m
 gthresh,energy=1.0d-12,orbital=1.0d-10,oneint=1.0d-16,twoint=1.0d-16,optgrad=1.0d-6,compress=1.0d-13
 geomtyp=xyz
 
 
 
 bohr
 geometry = {
  C    0.9136557195    1.4032723741   -2.2738761760
  C    0.7442479803    2.7042832204    0.0196748929
  C    0.9963309454    1.4075803233    2.3082243233
  C    1.4292475795   -1.1996179383    2.2963877016
  C    1.6106245340   -2.4982643362    0.0026775407
  C    1.3473393626   -1.2032142967   -2.2854634996
  H    0.6990973222    2.4146195176   -4.0418591762
  H    0.4018824127    4.7233053522    0.0236136399
  H    0.8502965656    2.4183662957    4.0837307947
  H    1.6233754468   -2.2134773393    4.0657084336
  H    1.9529906058   -4.5177654270   -0.0015680400
  H    1.4775706123   -2.2160669626   -4.0613079728
  N   -5.4427889355   -0.3571453230   -0.0704000454
  H   -5.5915916741   -1.5669982080   -1.5520908728
  H   -6.0692684218   -1.3168592005    1.4683050113
  H   -3.5620781882   -0.0738076497    0.1983211217
 }
 
 basis=aug-cc-pvdz, H=cc-pvdz
 {rhf;maxit,200}
 {ccsd(t)}

 Variables initialized (661), CPU time= 0.00 sec
 Commands  initialized (458), CPU time= 0.01 sec, 486 directives.
 Default parameters read. Elapsed time= 0.06 sec

 Checking input...
 Passed
1


                                         ***  PROGRAM SYSTEM MOLPRO  ***
                         Copyright, University College Cardiff Consultants Limited, 2008

                                    Version 2010.1 linked May 16 2016 07:17:05


 **********************************************************************************************************************************
 LABEL *   Optimization of h2o_3                                                         
 Linux-4.4.3/n026(x86_64) 64 bit mpp version                                             DATE: 20-Mar-24          TIME: 18:11:22  
 **********************************************************************************************************************************

 SHA1:             9e8077add272b0f3cad6f7df79ec5211205f459d
 **********************************************************************************************************************************

 THRESHOLDS:

 ZERO    =  1.00D-12  ONEINT  =  1.00D-16  TWOINT  =  1.00D-16  PREFAC  =  1.00D-14  LOCALI  =  1.00D-09  EORDER  =  1.00D-04
 ENERGY  =  1.00D-12  ETEST   =  0.00D+00  EDENS   =  0.00D+00  THRDEDEF=  1.00D-06  GRADIENT=  1.00D-02  STEP    =  1.00D-03
 ORBITAL =  1.00D-10  CIVEC   =  1.00D-05  COEFF   =  1.00D-04  PRINTCI =  5.00D-02  PUNCHCI =  9.90D+01  OPTGRAD =  1.00D-06
 OPTENERG=  1.00D-06  OPTSTEP =  3.00D-04  THRGRAD =  1.00D-10  COMPRESS=  1.00D-13  VARMIN  =  1.00D-07  VARMAX  =  1.00D-03
 THRDOUB =  0.00D+00  THRDIV  =  1.00D-05  THRRED  =  1.00D-07  THRPSP  =  1.00D+00  THRDC   =  1.00D-10  THRCS   =  1.00D-10
 THRNRM  =  1.00D-08  THREQ   =  0.00D+00  THRDE   =  1.00D+00  THRREF  =  1.00D-05  SPARFAC =  1.00D+00  THRDLP  =  1.00D-07
 THRDIA  =  1.00D-10  THRDLS  =  1.00D-07  THRGPS  =  0.00D+00  THRKEX  =  0.00D+00  THRDIS  =  2.00D-01  THRVAR  =  1.00D-10
 THRLOC  =  1.00D-06  THRGAP  =  1.00D-06  THRLOCT = -1.00D+00  THRGAPT = -1.00D+00  THRORB  =  1.00D-06  THRMLTP =  0.00D+00
 THRCPQCI=  1.00D-10  KEXTA   =  0.00D+00  THRCOARS=  0.00D+00  SYMTOL  =  1.00D-06  GRADTOL =  1.00D-06  THROVL  =  1.00D-08
 THRORTH =  1.00D-08  GRID    =  1.00D-06  GRIDMAX =  1.00D-03  DTMAX   =  0.00D+00

 SETTING GEOMTYP        =    XYZ
 ZUNIT=BOHR
 

 Variable memory set to 1000000000 words,  buffer space   230000 words

 SETTING BASIS          =    AUG-CC-PVDZ,H=CC-PVDZ


 Recomputing integrals since basis changed


 Using spherical harmonics

 Library entry C      S aug-cc-pVDZ          selected for orbital group  1
 Library entry C      P aug-cc-pVDZ          selected for orbital group  1
 Library entry C      D aug-cc-pVDZ          selected for orbital group  1
 Library entry H      S cc-pVDZ              selected for orbital group  2
 Library entry H      P cc-pVDZ              selected for orbital group  2
 Library entry N      S aug-cc-pVDZ          selected for orbital group  3
 Library entry N      P aug-cc-pVDZ          selected for orbital group  3
 Library entry N      D aug-cc-pVDZ          selected for orbital group  3

1PROGRAM * SEWARD (Integral evaluation for generally contracted gaussian basis sets)     Author: Roland Lindh, 1990

 Geometry written to block  1 of record 700


 Point group  C1  



 ATOMIC COORDINATES

 NR  ATOM    CHARGE       X              Y              Z

   1  C       6.00    0.913655720    1.403272374   -2.273876176
   2  C       6.00    0.744247980    2.704283220    0.019674893
   3  C       6.00    0.996330945    1.407580323    2.308224323
   4  C       6.00    1.429247579   -1.199617938    2.296387702
   5  C       6.00    1.610624534   -2.498264336    0.002677541
   6  C       6.00    1.347339363   -1.203214297   -2.285463500
   7  H       1.00    0.699097322    2.414619518   -4.041859176
   8  H       1.00    0.401882413    4.723305352    0.023613640
   9  H       1.00    0.850296566    2.418366296    4.083730795
  10  H       1.00    1.623375447   -2.213477339    4.065708434
  11  H       1.00    1.952990606   -4.517765427   -0.001568040
  12  H       1.00    1.477570612   -2.216066963   -4.061307973
  13  N       7.00   -5.442788936   -0.357145323   -0.070400045
  14  H       1.00   -5.591591674   -1.566998208   -1.552090873
  15  H       1.00   -6.069268422   -1.316859200    1.468305011
  16  H       1.00   -3.562078188   -0.073807650    0.198321122

 Bond lengths in Bohr (Angstrom)

 1-2  2.642291564  1-6  2.642345271  1-7  2.048077694  2-3  2.642431214  2-8  2.047847666
     ( 1.398240475)     ( 1.398268896)     ( 1.083796038)     ( 1.398314375)     ( 1.083674313)

  3- 4  2.642922567   3- 9  2.048276727   4- 5  2.642061008   4-10  2.048436566   5- 6  2.642359383
       ( 1.398574387)       ( 1.083901362)       ( 1.398118470)       ( 1.083985945)       ( 1.398276363)

  5-11  2.048320582   6-12  2.048524907  13-14  1.918669843  13-15  1.918629856  13-16  1.920823838
       ( 1.083924569)       ( 1.084032693)       ( 1.015316353)       ( 1.015295192)       ( 1.016456198)

 Bond angles

  1- 2- 3  120.26699267   1- 2- 8  119.85701822   1- 6- 5  119.73679900   1- 6-12  120.12950130

  2-1-6  120.00179668   2-1-7  119.96368040   2-3-4  119.72501987   2-3-9  120.11762756

  3- 2- 8  119.87432177   3- 4- 5  120.00111974   3- 4-10  119.99390535   4- 3- 9  120.15701894

  4- 5- 6  120.26693086   4- 5-11  119.86023488   5- 4-10  120.00497020   5- 6-12  120.13368508

  6- 1- 7  120.03378301   6- 5-11  119.87272092  14-13-15  106.17607583  14-13-16  106.08043224

 15-13-16  106.33745550

 NUCLEAR CHARGE:                   52
 NUMBER OF PRIMITIVE AOS:         322
 NUMBER OF SYMMETRY AOS:          308
 NUMBER OF CONTRACTIONS:          206   ( 206A   )
 NUMBER OF CORE ORBITALS:           7   (   7A   )
 NUMBER OF VALENCE ORBITALS:       37   (  37A   )


 NUCLEAR REPULSION ENERGY  273.71077991


 Eigenvalues of metric

         1 0.861E-05 0.184E-04 0.228E-04 0.532E-04 0.640E-04 0.646E-04 0.107E-03 0.107E-03


 Contracted 2-electron integrals neglected if value below      1.0D-16
 AO integral compression algorithm  1   Integral accuracy      1.0D-16

     1893.204 MB (compressed) written to integral file ( 94.6%)

     Node minimum: 1893.204 MB, node maximum: 1893.204 MB


 NUMBER OF SORTED TWO-ELECTRON INTEGRALS:  227303181.     BUFFER LENGTH:  32768
 NUMBER OF SEGMENTS:  15  SEGMENT LENGTH:   15999503      RECORD LENGTH: 524288

 Memory used in sort:      16.56 MW

 SORT1 READ   250230805. AND WROTE   226408886. INTEGRALS IN    654 RECORDS. CPU TIME:     2.62 SEC, REAL TIME:     5.82 SEC
 SORT2 READ   226408886. AND WROTE   227303181. INTEGRALS IN   7222 RECORDS. CPU TIME:     1.47 SEC, REAL TIME:     2.49 SEC

 FILE SIZES:   FILE 1:  1743.8 MBYTE,  FILE 4:  2743.1 MBYTE,   TOTAL:   4486.9 MBYTE

 OPERATOR DM      FOR CENTER  0  COORDINATES:    0.000000    0.000000    0.000000


 **********************************************************************************************************************************
 DATASETS  * FILE   NREC   LENGTH (MB)   RECORD NAMES
              1      19     1744.29       500      610      700      900      950      970     1000      129      960     1100   
                                          VAR    BASINP    GEOM    SYMINP    ZMAT    AOBASIS   BASIS     P2S    ABASIS      S 
                                         1400     1410     1200     1210     1080     1600     1650     1300     1700   
                                           T        V       H0       H01     AOSYM     SMH    MOLCAS    ERIS     OPER   

 PROGRAMS   *        TOTAL       INT
 CPU TIMES  *        15.68     15.62
 REAL TIME  *        21.79 SEC
 DISK USED  *         6.38 GB      
 GA USED    *         0.01 MB       (max)       0.00 MB       (current)
 **********************************************************************************************************************************

1PROGRAM * RHF-SCF (CLOSED SHELL)       Authors: W. Meyer, H.-J. Werner


 NUMBER OF ELECTRONS:      26+   26-    SPACE SYMMETRY=1    SPIN SYMMETRY: Singlet 
 CONVERGENCE THRESHOLDS:    1.00E-10 (Density)    1.00E-13 (Energy)
 MAX. NUMBER OF ITERATIONS:      200
 INTERPOLATION TYPE:            DIIS
 INTERPOLATION STEPS:              2 (START)      1 (STEP)
 LEVEL SHIFTS:                  0.00 (CLOSED)  0.00 (OPEN) 



 Orbital guess generated from atomic densities. Full valence occupancy:   44

 Molecular orbital dump at record        2100.2

 ITERATION    DDIFF          GRAD             ENERGY        2-EL.EN.            DIPOLE MOMENTS         DIIS
    1      0.000D+00      0.000D+00      -286.85322741    740.883692    0.51947   -0.76806    0.13541    0
    2      0.000D+00      0.322D-02      -286.92078506    735.093297    0.43518   -0.38445    0.06195    1
    3      0.827D-02      0.133D-02      -286.93011354    737.725143    0.45170   -0.52289    0.09182    2
    4      0.218D-02      0.381D-03      -286.93133156    737.205395    0.45031   -0.49620    0.08409    3
    5      0.783D-03      0.526D-04      -286.93135536    737.194163    0.45612   -0.50625    0.08803    4
    6      0.135D-03      0.176D-04      -286.93135778    737.209067    0.45498   -0.50078    0.08596    5
    7      0.512D-04      0.553D-05      -286.93135806    737.205970    0.45563   -0.50299    0.08671    6
    8      0.150D-04      0.129D-05      -286.93135808    737.204973    0.45578   -0.50263    0.08657    7
    9      0.418D-05      0.541D-06      -286.93135808    737.205430    0.45582   -0.50272    0.08660    7
   10      0.148D-05      0.143D-06      -286.93135808    737.205379    0.45582   -0.50273    0.08660    7
   11      0.515D-06      0.408D-07      -286.93135808    737.205365    0.45583   -0.50272    0.08660    7
   12      0.141D-06      0.173D-07      -286.93135808    737.205378    0.45583   -0.50273    0.08660    8
   13      0.605D-07      0.755D-08      -286.93135808    737.205373    0.45583   -0.50273    0.08660    8
   14      0.333D-07      0.360D-08      -286.93135808    737.205375    0.45583   -0.50273    0.08660    8
   15      0.199D-07      0.137D-08      -286.93135808    737.205375    0.45583   -0.50273    0.08660    8
   16      0.712D-08      0.455D-09      -286.93135808    737.205375    0.45583   -0.50273    0.08660    9
   17      0.213D-08      0.125D-09      -286.93135808    737.205375    0.45583   -0.50273    0.08660    9
   18      0.373D-09      0.385D-10      -286.93135808    737.205375    0.45583   -0.50273    0.08660    9
   19      0.196D-09      0.171D-10      -286.93135808    737.205375    0.45583   -0.50273    0.08660    9
   20      0.131D-09      0.874D-11      -286.93135808    737.205375    0.45583   -0.50273    0.08660    9
   21      0.136D-09      0.414D-11      -286.93135808    737.205375    0.45583   -0.50273    0.08660    9
   22      0.169D-09      0.125D-11      -286.93135808    737.205375    0.45583   -0.50273    0.08660    9
   23      0.131D-09      0.854D-12      -286.93135808    737.205375    0.45583   -0.50273    0.08660    9
   24      0.135D-09      0.669D-12      -286.93135808    737.205375    0.45583   -0.50273    0.08660    9
   25      0.712D-10      0.593D-12      -286.93135808    737.205375    0.45583   -0.50273    0.08660    9
   26      0.588D-10      0.617D-12      -286.93135808    737.205375    0.45583   -0.50273    0.08660    0

 Final occupancy:  26

 !RHF STATE 1.1 Energy               -286.931358079393
 Nuclear energy                       273.71077991
 One-electron energy                 -929.24482532
 Two-electron energy                  368.60268733
 Virial quotient                       -1.00146519
 !RHF STATE 1.1 Dipole moment           0.45582872    -0.50272592     0.08659686
 Dipole moment /Debye                   1.15852515    -1.27771815     0.22009285

 Orbital energies:

         1.1          2.1          3.1          4.1          5.1          6.1          7.1          8.1          9.1         10.1
    -15.535004   -11.250624   -11.250104   -11.249653   -11.248782   -11.248689   -11.247781    -1.157506    -1.125559    -1.022404

        11.1         12.1         13.1         14.1         15.1         16.1         17.1         18.1         19.1         20.1
     -1.021604    -0.830835    -0.830341    -0.714505    -0.650465    -0.623924    -0.611676    -0.609821    -0.594284    -0.592736

        21.1         22.1         23.1         24.1         25.1         26.1         27.1         28.1
     -0.504919    -0.500836    -0.499278    -0.413430    -0.343188    -0.341778     0.063906     0.066382


 **********************************************************************************************************************************
 DATASETS  * FILE   NREC   LENGTH (MB)   RECORD NAMES
              1      19     1744.29       500      610      700      900      950      970     1000      129      960     1100   
                                          VAR    BASINP    GEOM    SYMINP    ZMAT    AOBASIS   BASIS     P2S    ABASIS      S 
                                         1400     1410     1200     1210     1080     1600     1650     1300     1700   
                                           T        V       H0       H01     AOSYM     SMH    MOLCAS    ERIS     OPER   

              2       3        1.40       700     1000     2100   
                                         GEOM     BASIS     RHF  

 PROGRAMS   *        TOTAL       RHF       INT
 CPU TIMES  *        62.62     46.94     15.62
 REAL TIME  *        74.01 SEC
 DISK USED  *         6.38 GB      
 GA USED    *         0.01 MB       (max)       0.00 MB       (current)
 **********************************************************************************************************************************


1PROGRAM * CCSD (Closed-shell coupled cluster)     Authors: C. Hampel, H.-J. Werner, 1991, M. Deegan, P.J. Knowles, 1992


 Convergence thresholds:  THRVAR = 1.00D-08  THRDEN = 1.00D-12

 CCSD(T)     terms to be evaluated (factor= 1.000)


 Number of core orbitals:           7 (   7 )
 Number of closed-shell orbitals:  19 (  19 )
 Number of external orbitals:     180 ( 180 )

 Molecular orbitals read from record     2100.2  Type=RHF/CANONICAL (state 1.1)

 Number of N-1 electron functions:              19
 Number of N-2 electron functions:             190
 Number of singly external CSFs:              3420
 Number of doubly external CSFs:           5849910
 Total number of CSFs:                     5853331

 Length of J-op  integral file:               0.00 MB
 Length of K-op  integral file:               2.96 MB
 Length of 3-ext integral record:             0.00 MB

 Memory could be reduced to 140.12 Mwords without degradation in triples

 Integral transformation finished. Total CPU:  16.89 sec, npass=  1  Memory used: 101.90 MW

 Reference energy:                   -286.93135808

 MP2 singlet pair energy:              -0.62063287
 MP2 triplet pair energy:              -0.38983438
 MP2 correlation energy:               -1.01046725
 MP2 total energy:                   -287.94182533

 SCS-MP2 correlation energy:           -0.98732306   (PS=  1.200000  PT=  0.333333)
 SCS-MP2 total energy:               -287.91868114

 ITER.      SQ.NORM     CORR.ENERGY   TOTAL ENERGY   ENERGY CHANGE        DEN1      VAR(S)    VAR(P)  DIIS     TIME
   1      1.38488292    -1.05475933  -287.98611741    -0.04429208    -0.01721340  0.36D-02  0.80D-02  1  1    69.27
   2      1.41439594    -1.06062200  -287.99198008    -0.00586267    -0.02705308  0.63D-04  0.10D-02  2  2   122.05
   3      1.42352694    -1.06071773  -287.99207581    -0.00009573    -0.00464338  0.27D-04  0.84D-04  3  3   174.87
   4      1.42746427    -1.06088648  -287.99224456    -0.00016875    -0.00121414  0.22D-05  0.11D-04  4  4   227.78
   5      1.42867795    -1.06091743  -287.99227551    -0.00003095    -0.00027323  0.27D-06  0.13D-05  5  5   280.66
   6      1.42898056    -1.06090720  -287.99226527     0.00001024    -0.00004349  0.23D-07  0.79D-07  6  6   333.59
   7      1.42902132    -1.06090883  -287.99226691    -0.00000163    -0.00000103  0.35D-08  0.82D-08  6  2   386.47
   8      1.42903051    -1.06090868  -287.99226676     0.00000014    -0.00000117  0.75D-09  0.76D-09  6  1   439.33
   9      1.42903034    -1.06090882  -287.99226690    -0.00000014     0.00000123  0.21D-09  0.92D-10  6  4   492.23
  10      1.42903153    -1.06090883  -287.99226691    -0.00000001    -0.00000018  0.57D-10  0.15D-10  6  3   545.11
  11      1.42903148    -1.06090885  -287.99226693    -0.00000002     0.00000013  0.14D-10  0.37D-11  6  5   598.01
  12      1.42903144    -1.06090885  -287.99226693    -0.00000000     0.00000003  0.15D-11  0.10D-11  6  6   650.88
  13      1.42903126    -1.06090885  -287.99226693    -0.00000000     0.00000006  0.69D-13  0.20D-12  6  2   703.77
  14      1.42903116    -1.06090885  -287.99226693    -0.00000000     0.00000002  0.81D-14  0.40D-13  6  1   756.62
  15      1.42903110    -1.06090885  -287.99226693    -0.00000000     0.00000001  0.90D-15  0.54D-14  6  3   809.50
  16      1.42903108    -1.06090885  -287.99226693    -0.00000000     0.00000000  0.12D-15  0.37D-15  6  4   862.38
  17      1.42903108    -1.06090885  -287.99226693    -0.00000000     0.00000000  0.32D-16  0.44D-16  6  5   915.26
  18      1.42903108    -1.06090885  -287.99226693    -0.00000000     0.00000000  0.85D-17  0.71D-17  6  6   968.13
  19      1.42903108    -1.06090885  -287.99226693    -0.00000000     0.00000000  0.25D-17  0.79D-18  6  2  1021.02
  20      1.42903108    -1.06090885  -287.99226693    -0.00000000     0.00000000  0.81D-18  0.19D-18  6  1  1073.95
  21      1.42903108    -1.06090885  -287.99226693    -0.00000000     0.00000000  0.31D-18  0.82D-19  6  3  1126.85
  22      1.42903108    -1.06090885  -287.99226693    -0.00000000     0.00000000  0.12D-18  0.40D-19  6  4  1179.74
  23      1.42903108    -1.06090885  -287.99226693    -0.00000000     0.00000000  0.55D-19  0.22D-19  6  6  1232.64

 Norm of t1 vector:      0.08385650      S-energy:    -0.00000000      T1 diagnostic:  0.00961900
                                                                       D1 diagnostic:  0.02619502

 Doubles amplitudes (print threshold =  0.500E-01):

         I         J         SYM. A    SYM. B    A         B      T(IJ, AB)

        18        18         1         1         6         6     -0.05260272
        19        19         1         1         7         7     -0.05521216


 Total CPU time for triples:   1025.37 sec


 RESULTS
 =======

  Reference energy                   -286.931358079391
  CCSD singlet pair energy             -0.711157289807
  CCSD triplet pair energy             -0.349751564068
  CCSD correlation energy              -1.060908853876

  Triples (T) contribution             -0.045602874993
  Total correlation energy             -1.106511728870

  CCSD total energy                  -287.992266933268
  CCSD[T] energy                     -288.038740010711
  CCSD-T energy                      -288.037481268607
 !CCSD(T) total energy               -288.037869808261

 Timing summary (sec):

 STEP                 CPU(USER)    SYS     CPU(TOT)    WALL
 Transformation         17.52      0.92     18.44     18.45
 CCSD iterations      1215.14     12.64   1227.78   1227.96
 Triples              1025.37     11.23   1036.60   1036.69

 Program statistics:

 Available memory in ccsd:               999998456
 Min. memory needed in ccsd:              14392275
 Max. memory used in ccsd:                19775697
 Max. memory used in cckext:              16737545 (23 integral passes)



 **********************************************************************************************************************************
 DATASETS  * FILE   NREC   LENGTH (MB)   RECORD NAMES
              1      20     2287.90       500      610      700      900      950      970     1000      129      960     1100   
                                          VAR    BASINP    GEOM    SYMINP    ZMAT    AOBASIS   BASIS     P2S    ABASIS      S 
                                         1400     1410     1200     1210     1080     1600     1650     1300     1700     1380   
                                           T        V       H0       H01     AOSYM     SMH    MOLCAS    ERIS     OPER     JKOP   

              2       3        1.40       700     1000     2100   
                                         GEOM     BASIS     RHF  

 PROGRAMS   *        TOTAL   CCSD(T)       RHF       INT
 CPU TIMES  *      2320.67   2258.04     46.94     15.62
 REAL TIME  *      2357.23 SEC
 DISK USED  *         6.38 GB      
 GA USED    *         0.01 MB       (max)       0.00 MB       (current)
 **********************************************************************************************************************************

        CCSD(T)         RHF-SCF 
   -288.03786981   -286.93135808
 **********************************************************************************************************************************
 Variable memory released
