
 Primary working directories    : /tmp/1049502.1405.gen6.q
 Secondary working directories  : /tmp/1049502.1405.gen6.q
 Wavefunction directory         : /home/vulcan/jj04645/wfu/
 Main file repository           : /tmp/1049502.1405.gen6.q/

 ARCHNAME  : Linux/x86_64
 FC        : /opt/intel/compilers_and_libraries_2016.1.150/linux/bin/intel64/ifort
 FCVERSION : 16.0.1
 BLASLIB   : -mkl
 id        : ccgc

 Nodes     nprocs
 n084         1
 ga_uses_ma=false, calling ma_init with nominal heap.
 GA-space will be limited to   8.0 MW (determined by -G option)

 Using customized tuning parameters: mindgm=10; mindgv=16; mindgc=4; mindgr=1; noblas=0; mincuda=1000; minvec=7
 default implementation of scratch files=df  

 ***,Optimization of neopentane
 memory,1000,m
 gthresh,energy=1.0d-12,orbital=1.0d-10,oneint=1.0d-16,twoint=1.0d-16,optgrad=1.0d-6,compress=1.0d-13
 geomtyp=xyz
 
 bohr
 geometry = {
  C    0.0066216807    0.0066330207   -0.0008280638
  C    2.3691023400   -0.0000719113   -1.6776145789
  C    0.0003263137   -2.3613411625    1.6681930491
  C   -0.0048140311    2.3695195649    1.6753608407
  C   -2.3617563688   -0.0052545013   -1.6692455598
  H    2.4169267002    1.6744550028   -2.8887431944
  H   -1.6705541938   -2.4000724989    2.8846708713
  H    1.6615462078    2.4128835772    2.8978677712
  H   -2.4012955891   -1.6807202661   -2.8793741478
  H    4.0873636226   -0.0134929300   -0.5284591842
  H   -0.0133689413   -4.0758195942    0.5134046582
  H    0.0043876844    4.0875509180    0.5258202027
  H   -4.0759963518   -0.0041291584   -0.5140225969
  H    2.4063096210   -1.6737315453   -2.8903136870
  H    1.6726743387   -2.4106534814    2.8822690175
  H   -1.6816641215    2.4067945192    2.8836424430
  H   -2.4158089118    1.6674504466   -2.8826278407
 }
 
 basis=VDZ
 {rhf;maxit,200}
 {ccsd(t);maxit,200}

 Variables initialized (661), CPU time= 0.00 sec
 Commands  initialized (458), CPU time= 0.00 sec, 486 directives.
 Default parameters read. Elapsed time= 0.04 sec

 Checking input...
 Passed
1


                                         ***  PROGRAM SYSTEM MOLPRO  ***
                         Copyright, University College Cardiff Consultants Limited, 2008

                                    Version 2010.1 linked May 16 2016 07:17:05


 **********************************************************************************************************************************
 LABEL *   Optimization of neopentane                                                    
 Linux-4.4.3/n084(x86_64) 64 bit mpp version                                             DATE: 31-Mar-24          TIME: 01:20:51  
 **********************************************************************************************************************************

 SHA1:             9e8077add272b0f3cad6f7df79ec5211205f459d
 **********************************************************************************************************************************

 THRESHOLDS:

 ZERO    =  1.00D-12  ONEINT  =  1.00D-16  TWOINT  =  1.00D-16  PREFAC  =  1.00D-14  LOCALI  =  1.00D-09  EORDER  =  1.00D-04
 ENERGY  =  1.00D-12  ETEST   =  0.00D+00  EDENS   =  0.00D+00  THRDEDEF=  1.00D-06  GRADIENT=  1.00D-02  STEP    =  1.00D-03
 ORBITAL =  1.00D-10  CIVEC   =  1.00D-05  COEFF   =  1.00D-04  PRINTCI =  5.00D-02  PUNCHCI =  9.90D+01  OPTGRAD =  1.00D-06
 OPTENERG=  1.00D-06  OPTSTEP =  3.00D-04  THRGRAD =  1.00D-10  COMPRESS=  1.00D-13  VARMIN  =  1.00D-07  VARMAX  =  1.00D-03
 THRDOUB =  0.00D+00  THRDIV  =  1.00D-05  THRRED  =  1.00D-07  THRPSP  =  1.00D+00  THRDC   =  1.00D-10  THRCS   =  1.00D-10
 THRNRM  =  1.00D-08  THREQ   =  0.00D+00  THRDE   =  1.00D+00  THRREF  =  1.00D-05  SPARFAC =  1.00D+00  THRDLP  =  1.00D-07
 THRDIA  =  1.00D-10  THRDLS  =  1.00D-07  THRGPS  =  0.00D+00  THRKEX  =  0.00D+00  THRDIS  =  2.00D-01  THRVAR  =  1.00D-10
 THRLOC  =  1.00D-06  THRGAP  =  1.00D-06  THRLOCT = -1.00D+00  THRGAPT = -1.00D+00  THRORB  =  1.00D-06  THRMLTP =  0.00D+00
 THRCPQCI=  1.00D-10  KEXTA   =  0.00D+00  THRCOARS=  0.00D+00  SYMTOL  =  1.00D-06  GRADTOL =  1.00D-06  THROVL  =  1.00D-08
 THRORTH =  1.00D-08  GRID    =  1.00D-06  GRIDMAX =  1.00D-03  DTMAX   =  0.00D+00

 SETTING GEOMTYP        =    XYZ
 ZUNIT=BOHR
 

 Variable memory set to 1000000000 words,  buffer space   230000 words

 SETTING BASIS          =    VDZ


 Recomputing integrals since basis changed


 Using spherical harmonics

 Library entry C      S cc-pVDZ              selected for orbital group  1
 Library entry C      P cc-pVDZ              selected for orbital group  1
 Library entry C      D cc-pVDZ              selected for orbital group  1
 Library entry H      S cc-pVDZ              selected for orbital group  2
 Library entry H      P cc-pVDZ              selected for orbital group  2

1PROGRAM * SEWARD (Integral evaluation for generally contracted gaussian basis sets)     Author: Roland Lindh, 1990

 Geometry written to block  1 of record 700


 Point group  C1  



 ATOMIC COORDINATES

 NR  ATOM    CHARGE       X              Y              Z

   1  C       6.00    0.006621681    0.006633021   -0.000828064
   2  C       6.00    2.369102340   -0.000071911   -1.677614579
   3  C       6.00    0.000326314   -2.361341163    1.668193049
   4  C       6.00   -0.004814031    2.369519565    1.675360841
   5  C       6.00   -2.361756369   -0.005254501   -1.669245560
   6  H       1.00    2.416926700    1.674455003   -2.888743194
   7  H       1.00   -1.670554194   -2.400072499    2.884670871
   8  H       1.00    1.661546208    2.412883577    2.897867771
   9  H       1.00   -2.401295589   -1.680720266   -2.879374148
  10  H       1.00    4.087363623   -0.013492930   -0.528459184
  11  H       1.00   -0.013368941   -4.075819594    0.513404658
  12  H       1.00    0.004387684    4.087550918    0.525820203
  13  H       1.00   -4.075996352   -0.004129158   -0.514022597
  14  H       1.00    2.406309621   -1.673731545   -2.890313687
  15  H       1.00    1.672674339   -2.410653481    2.882269018
  16  H       1.00   -1.681664122    2.406794519    2.883642443
  17  H       1.00   -2.415808912    1.667450447   -2.882627841

 Bond lengths in Bohr (Angstrom)

 1-2  2.897062795  1-3  2.897062795  1-4  2.897062795  1-5  2.897062795  2-6  2.067162325
     ( 1.533059604)     ( 1.533059604)     ( 1.533059604)     ( 1.533059604)     ( 1.093895190)

  2-10  2.067162326   2-14  2.067162325   3- 7  2.067162325   3-11  2.067162326   3-15  2.067162325
       ( 1.093895190)       ( 1.093895190)       ( 1.093895190)       ( 1.093895190)       ( 1.093895190)

  4- 8  2.067162325   4-12  2.067162326   4-16  2.067162325   5- 9  2.067162325   5-13  2.067162325
       ( 1.093895190)       ( 1.093895190)       ( 1.093895190)       ( 1.093895190)       ( 1.093895190)

  5-17  2.067162325
       ( 1.093895190)

 Bond angles

  1- 2- 6  110.86072162   1- 2-10  110.86072262   1- 2-14  110.86072264   1- 3- 7  110.86072276

  1- 3-11  110.86072169   1- 3-15  110.86072172   1- 4- 8  110.86072275   1- 4-12  110.86072170

  1- 4-16  110.86072172   1- 5- 9  110.86072161   1- 5-13  110.86072263   1- 5-17  110.86072263

  2-1-3  109.47071421   2-1-4  109.87585655   2-1-5  109.47071421   3-1-4  109.47071421

  3- 1- 5  109.06557187   4- 1- 5  109.47071421   6- 2-10  108.16354612   6- 2-14  108.16354617

  7- 3-11  107.92963816   7- 3-15  107.92963821   8- 4-12  107.92963816   8- 4-16  107.92963819

  9- 5-13  108.16354614   9- 5-17  108.16354613  10- 2-14  107.81268451  11- 3-15  108.28049973

 12- 4-16  108.28049976  13- 5-17  107.81268453

 NUCLEAR CHARGE:                   42
 NUMBER OF PRIMITIVE AOS:         219
 NUMBER OF SYMMETRY AOS:          214
 NUMBER OF CONTRACTIONS:          130   ( 130A   )
 NUMBER OF CORE ORBITALS:           5   (   5A   )
 NUMBER OF VALENCE ORBITALS:       32   (  32A   )


 NUCLEAR REPULSION ENERGY  198.59976060


 Eigenvalues of metric

         1 0.280E-02 0.500E-02 0.504E-02 0.507E-02 0.171E-01 0.188E-01 0.189E-01 0.190E-01


 Contracted 2-electron integrals neglected if value below      1.0D-16
 AO integral compression algorithm  1   Integral accuracy      1.0D-16

     303.563 MB (compressed) written to integral file ( 97.4%)

     Node minimum: 303.563 MB, node maximum: 303.563 MB


 NUMBER OF SORTED TWO-ELECTRON INTEGRALS:   36256870.     BUFFER LENGTH:  32768
 NUMBER OF SEGMENTS:   3  SEGMENT LENGTH:   15998004      RECORD LENGTH: 524288

 Memory used in sort:      16.56 MW

 SORT1 READ    38983293. AND WROTE    36209993. INTEGRALS IN    105 RECORDS. CPU TIME:     0.35 SEC, REAL TIME:     0.57 SEC
 SORT2 READ    36209993. AND WROTE    36256870. INTEGRALS IN   1158 RECORDS. CPU TIME:     0.28 SEC, REAL TIME:     0.43 SEC

 FILE SIZES:   FILE 1:   283.9 MBYTE,  FILE 4:   440.4 MBYTE,   TOTAL:    724.4 MBYTE

 OPERATOR DM      FOR CENTER  0  COORDINATES:    0.000000    0.000000    0.000000


 **********************************************************************************************************************************
 DATASETS  * FILE   NREC   LENGTH (MB)   RECORD NAMES
              1      19      284.15       500      610      700      900      950      970     1000      129      960     1100   
                                          VAR    BASINP    GEOM    SYMINP    ZMAT    AOBASIS   BASIS     P2S    ABASIS      S 
                                         1400     1410     1200     1210     1080     1600     1650     1300     1700   
                                           T        V       H0       H01     AOSYM     SMH    MOLCAS    ERIS     OPER   

 PROGRAMS   *        TOTAL       INT
 CPU TIMES  *         3.57      3.54
 REAL TIME  *         4.54 SEC
 DISK USED  *         1.03 GB      
 GA USED    *         0.01 MB       (max)       0.00 MB       (current)
 **********************************************************************************************************************************

1PROGRAM * RHF-SCF (CLOSED SHELL)       Authors: W. Meyer, H.-J. Werner


 NUMBER OF ELECTRONS:      21+   21-    SPACE SYMMETRY=1    SPIN SYMMETRY: Singlet 
 CONVERGENCE THRESHOLDS:    1.00E-10 (Density)    1.00E-13 (Energy)
 MAX. NUMBER OF ITERATIONS:      200
 INTERPOLATION TYPE:            DIIS
 INTERPOLATION STEPS:              2 (START)      1 (STEP)
 LEVEL SHIFTS:                  0.00 (CLOSED)  0.00 (OPEN) 



 Orbital guess generated from atomic densities. Full valence occupancy:   37

 Molecular orbital dump at record        2100.2

 ITERATION    DDIFF          GRAD             ENERGY        2-EL.EN.            DIPOLE MOMENTS         DIIS
    1      0.000D+00      0.000D+00      -196.27088317    527.678386    0.00015    0.00015    0.00219    0
    2      0.000D+00      0.467D-02      -196.33874116    521.944971    0.00060    0.00061    0.00052    1
    3      0.930D-02      0.177D-02      -196.34653161    524.515085    0.00081    0.00082    0.00101    2
    4      0.346D-02      0.571D-03      -196.34767837    523.813760    0.00078    0.00079    0.00082    3
    5      0.114D-02      0.118D-03      -196.34771295    523.880268    0.00075    0.00076    0.00082    4
    6      0.198D-03      0.238D-04      -196.34771463    523.876508    0.00077    0.00078    0.00082    5
    7      0.659D-04      0.226D-05      -196.34771465    523.876275    0.00076    0.00077    0.00082    6
    8      0.684D-05      0.490D-06      -196.34771465    523.876233    0.00077    0.00077    0.00083    6
    9      0.137D-05      0.771D-07      -196.34771465    523.876226    0.00076    0.00077    0.00083    5
   10      0.242D-06      0.203D-07      -196.34771465    523.876229    0.00076    0.00077    0.00083    6
   11      0.465D-07      0.423D-08      -196.34771465    523.876232    0.00076    0.00077    0.00083    6
   12      0.107D-07      0.723D-09      -196.34771465    523.876231    0.00076    0.00077    0.00083    6
   13      0.158D-08      0.316D-09      -196.34771465    523.876231    0.00076    0.00077    0.00083    6
   14      0.623D-09      0.476D-10      -196.34771465    523.876231    0.00076    0.00077    0.00083    6
   15      0.118D-09      0.167D-10      -196.34771465    523.876231    0.00076    0.00077    0.00083    7
   16      0.454D-10      0.349D-11      -196.34771465    523.876231    0.00076    0.00077    0.00083    0

 Final occupancy:  21

 !RHF STATE 1.1 Energy               -196.347714652039
 Nuclear energy                       198.59976060
 One-electron energy                 -656.88559069
 Two-electron energy                  261.93811543
 Virial quotient                       -1.00118116
 !RHF STATE 1.1 Dipole moment           0.00076365     0.00076984     0.00082519
 Dipole moment /Debye                   0.00194087     0.00195660     0.00209729

 Orbital energies:

         1.1          2.1          3.1          4.1          5.1          6.1          7.1          8.1          9.1         10.1
    -11.230713   -11.214278   -11.214250   -11.213935   -11.213905    -1.103751    -0.927983    -0.927564    -0.927134    -0.728614

        11.1         12.1         13.1         14.1         15.1         16.1         17.1         18.1         19.1         20.1
     -0.609422    -0.609077    -0.608733    -0.550489    -0.550487    -0.508098    -0.507784    -0.507471    -0.451063    -0.450334

        21.1         22.1         23.1
     -0.449592     0.170677     0.231069


 **********************************************************************************************************************************
 DATASETS  * FILE   NREC   LENGTH (MB)   RECORD NAMES
              1      19      284.15       500      610      700      900      950      970     1000      129      960     1100   
                                          VAR    BASINP    GEOM    SYMINP    ZMAT    AOBASIS   BASIS     P2S    ABASIS      S 
                                         1400     1410     1200     1210     1080     1600     1650     1300     1700   
                                           T        V       H0       H01     AOSYM     SMH    MOLCAS    ERIS     OPER   

              2       3        0.89       700     1000     2100   
                                         GEOM     BASIS     RHF  

 PROGRAMS   *        TOTAL       RHF       INT
 CPU TIMES  *         7.35      3.78      3.54
 REAL TIME  *         8.82 SEC
 DISK USED  *         1.03 GB      
 GA USED    *         0.01 MB       (max)       0.00 MB       (current)
 **********************************************************************************************************************************


1PROGRAM * CCSD (Closed-shell coupled cluster)     Authors: C. Hampel, H.-J. Werner, 1991, M. Deegan, P.J. Knowles, 1992


 Convergence thresholds:  THRVAR = 1.00D-08  THRDEN = 1.00D-12

 CCSD(T)     terms to be evaluated (factor= 1.000)


 Number of core orbitals:           5 (   5 )
 Number of closed-shell orbitals:  16 (  16 )
 Number of external orbitals:     109 ( 109 )

 Molecular orbitals read from record     2100.2  Type=RHF/CANONICAL (state 1.1)

 Number of N-1 electron functions:              16
 Number of N-2 electron functions:             136
 Number of singly external CSFs:              1744
 Number of doubly external CSFs:           1521640
 Total number of CSFs:                     1523385

 Length of J-op  integral file:               0.00 MB
 Length of K-op  integral file:               1.20 MB
 Length of 3-ext integral record:             0.00 MB

 Memory could be reduced to 28.13 Mwords without degradation in triples

 Integral transformation finished. Total CPU:   1.46 sec, npass=  1  Memory used:  22.98 MW

 Reference energy:                   -196.34771465

 MP2 singlet pair energy:              -0.48845382
 MP2 triplet pair energy:              -0.25007898
 MP2 correlation energy:               -0.73853279
 MP2 total energy:                   -197.08624745

 SCS-MP2 correlation energy:           -0.74174928   (PS=  1.200000  PT=  0.333333)
 SCS-MP2 total energy:               -197.08946393

 ITER.      SQ.NORM     CORR.ENERGY   TOTAL ENERGY   ENERGY CHANGE        DEN1      VAR(S)    VAR(P)  DIIS     TIME
   1      1.28821677    -0.80655758  -197.15427223    -0.06802479    -0.04667718  0.17D-02  0.47D-02  1  1     5.93
   2      1.31153671    -0.81149092  -197.15920557    -0.00493334    -0.02354487  0.47D-04  0.32D-03  2  2    10.47
   3      1.31553915    -0.81164092  -197.15935557    -0.00015000    -0.00242799  0.53D-05  0.22D-04  3  3    15.00
   4      1.31658417    -0.81170317  -197.15941782    -0.00006226    -0.00046429  0.25D-06  0.12D-05  4  4    19.53
   5      1.31671019    -0.81170753  -197.15942219    -0.00000436    -0.00005137  0.14D-07  0.93D-07  5  5    24.06
   6      1.31672257    -0.81170512  -197.15941977     0.00000242    -0.00000842  0.68D-09  0.61D-08  6  6    28.60
   7      1.31672112    -0.81170539  -197.15942004    -0.00000028     0.00000063  0.16D-09  0.52D-09  6  1    33.13
   8      1.31672082    -0.81170554  -197.15942019    -0.00000015     0.00000028  0.78D-11  0.30D-10  6  2    37.66
   9      1.31672053    -0.81170559  -197.15942024    -0.00000005     0.00000025  0.11D-11  0.25D-11  6  3    42.18
  10      1.31672043    -0.81170559  -197.15942025    -0.00000001     0.00000009  0.90D-13  0.22D-12  6  4    46.71
  11      1.31672036    -0.81170560  -197.15942025    -0.00000000     0.00000004  0.96D-14  0.24D-13  6  5    51.25
  12      1.31672033    -0.81170560  -197.15942025    -0.00000000     0.00000002  0.91D-15  0.12D-14  6  1    55.78
  13      1.31672032    -0.81170560  -197.15942025    -0.00000000     0.00000000  0.81D-16  0.70D-16  6  6    60.32
  14      1.31672032    -0.81170560  -197.15942025    -0.00000000     0.00000000  0.15D-16  0.97D-17  6  2    64.86
  15      1.31672032    -0.81170560  -197.15942025    -0.00000000     0.00000000  0.13D-17  0.11D-17  6  3    69.40
  16      1.31672032    -0.81170560  -197.15942025     0.00000000    -0.00000000  0.76D-19  0.94D-19  6  4    73.94
  17      1.31672032    -0.81170560  -197.15942025     0.00000000    -0.00000000  0.46D-20  0.89D-20  6  5    78.48
  18      1.31672032    -0.81170560  -197.15942025     0.00000000    -0.00000000  0.65D-21  0.13D-20  6  1    83.01
  19      1.31672032    -0.81170560  -197.15942025     0.00000000    -0.00000000  0.74D-22  0.18D-21  6  6    87.54

 Norm of t1 vector:      0.05469759      S-energy:    -0.00000000      T1 diagnostic:  0.00683720
                                                                       D1 diagnostic:  0.01260737


 Total CPU time for triples:     70.40 sec


 RESULTS
 =======

  Reference energy                   -196.347714652038
  CCSD singlet pair energy             -0.577588501551
  CCSD triplet pair energy             -0.234117097971
  CCSD correlation energy              -0.811705599522

  Triples (T) contribution             -0.023942582464
  Total correlation energy             -0.835648181986

  CCSD total energy                  -197.159420251560
  CCSD[T] energy                     -197.183822176762
  CCSD-T energy                      -197.183114169957
 !CCSD(T) total energy               -197.183362834024

 Timing summary (sec):

 STEP                 CPU(USER)    SYS     CPU(TOT)    WALL
 Transformation          1.52      0.19      1.71      1.73
 CCSD iterations        86.02      2.00     88.02     88.04
 Triples                70.40      1.44     71.84     71.85

 Program statistics:

 Available memory in ccsd:               999998876
 Min. memory needed in ccsd:               3966807
 Max. memory used in ccsd:                 5311887
 Max. memory used in cckext:               4858018 (19 integral passes)



 **********************************************************************************************************************************
 DATASETS  * FILE   NREC   LENGTH (MB)   RECORD NAMES
              1      20      395.86       500      610      700      900      950      970     1000      129      960     1100   
                                          VAR    BASINP    GEOM    SYMINP    ZMAT    AOBASIS   BASIS     P2S    ABASIS      S 
                                         1400     1410     1200     1210     1080     1600     1650     1300     1700     1380   
                                           T        V       H0       H01     AOSYM     SMH    MOLCAS    ERIS     OPER     JKOP   

              2       3        0.89       700     1000     2100   
                                         GEOM     BASIS     RHF  

 PROGRAMS   *        TOTAL   CCSD(T)       RHF       INT
 CPU TIMES  *       165.30    157.95      3.78      3.54
 REAL TIME  *       170.49 SEC
 DISK USED  *         1.03 GB      
 GA USED    *         0.01 MB       (max)       0.00 MB       (current)
 **********************************************************************************************************************************

        CCSD(T)         RHF-SCF 
   -197.18336283   -196.34771465
 **********************************************************************************************************************************
 Variable memory released
