
 Primary working directories    : /tmp/943168.25.gen5.q
 Secondary working directories  : /tmp/943168.25.gen5.q
 Wavefunction directory         : /home/vulcan/mel64643/wfu/
 Main file repository           : /tmp/943168.25.gen5.q/

 ARCHNAME  : Linux/x86_64
 FC        : /opt/intel/compilers_and_libraries_2016.1.150/linux/bin/intel64/ifort
 FCVERSION : 16.0.1
 BLASLIB   : -mkl
 id        : ccgc

 Nodes     nprocs
 n073         1
 ga_uses_ma=false, calling ma_init with nominal heap.
 GA-space will be limited to   8.0 MW (determined by -G option)

 Using customized tuning parameters: mindgm=10; mindgv=16; mindgc=4; mindgr=1; noblas=0; mincuda=1000; minvec=7
 default implementation of scratch files=df  

 ***,Optimization of h2o_2
 memory,1000,m
 gthresh,energy=1.0d-12,orbital=1.0d-10,oneint=1.0d-16,twoint=1.0d-16,optgrad=1.0d-6,compress=1.0d-13
 geomtyp=xyz
 
 bohr
 geometry = {
  C   -0.0009979100   -3.4217417489    0.0019622195
  H   -0.9572702820   -2.7278252738   -1.6792590832
  H   -0.9621111349   -2.7336085996    1.6828001466
  H    1.9373842340   -2.7397345180   -0.0024615112
  H   -0.0074009806   -5.4765405722   -0.0015816112
  C   -0.0019216718    3.4217558999   -0.0002926469
  H   -0.0028620857    5.4815674313   -0.0009713394
  H    0.9688872379    2.7319326442   -1.6809858441
  H    0.9688641477    2.7330403394    1.6808680997
  H   -1.9425715545    2.7311543978   -0.0000784299
 }
 
 basis=AVDZ
 {rhf;maxit,200}
 {ccsd(t);maxit,200}

 Variables initialized (661), CPU time= 0.01 sec
 Commands  initialized (458), CPU time= 0.00 sec, 486 directives.
 Default parameters read. Elapsed time= 0.04 sec

 Checking input...
 Passed
1


                                         ***  PROGRAM SYSTEM MOLPRO  ***
                         Copyright, University College Cardiff Consultants Limited, 2008

                                    Version 2010.1 linked May 16 2016 07:17:05


 **********************************************************************************************************************************
 LABEL *   Optimization of h2o_2                                                         
 Linux-4.4.3/n073(x86_64) 64 bit mpp version                                             DATE: 23-Oct-23          TIME: 10:38:19  
 **********************************************************************************************************************************

 SHA1:             9e8077add272b0f3cad6f7df79ec5211205f459d
 **********************************************************************************************************************************

 THRESHOLDS:

 ZERO    =  1.00D-12  ONEINT  =  1.00D-16  TWOINT  =  1.00D-16  PREFAC  =  1.00D-14  LOCALI  =  1.00D-09  EORDER  =  1.00D-04
 ENERGY  =  1.00D-12  ETEST   =  0.00D+00  EDENS   =  0.00D+00  THRDEDEF=  1.00D-06  GRADIENT=  1.00D-02  STEP    =  1.00D-03
 ORBITAL =  1.00D-10  CIVEC   =  1.00D-05  COEFF   =  1.00D-04  PRINTCI =  5.00D-02  PUNCHCI =  9.90D+01  OPTGRAD =  1.00D-06
 OPTENERG=  1.00D-06  OPTSTEP =  3.00D-04  THRGRAD =  1.00D-10  COMPRESS=  1.00D-13  VARMIN  =  1.00D-07  VARMAX  =  1.00D-03
 THRDOUB =  0.00D+00  THRDIV  =  1.00D-05  THRRED  =  1.00D-07  THRPSP  =  1.00D+00  THRDC   =  1.00D-10  THRCS   =  1.00D-10
 THRNRM  =  1.00D-08  THREQ   =  0.00D+00  THRDE   =  1.00D+00  THRREF  =  1.00D-05  SPARFAC =  1.00D+00  THRDLP  =  1.00D-07
 THRDIA  =  1.00D-10  THRDLS  =  1.00D-07  THRGPS  =  0.00D+00  THRKEX  =  0.00D+00  THRDIS  =  2.00D-01  THRVAR  =  1.00D-10
 THRLOC  =  1.00D-06  THRGAP  =  1.00D-06  THRLOCT = -1.00D+00  THRGAPT = -1.00D+00  THRORB  =  1.00D-06  THRMLTP =  0.00D+00
 THRCPQCI=  1.00D-10  KEXTA   =  0.00D+00  THRCOARS=  0.00D+00  SYMTOL  =  1.00D-06  GRADTOL =  1.00D-06  THROVL  =  1.00D-08
 THRORTH =  1.00D-08  GRID    =  1.00D-06  GRIDMAX =  1.00D-03  DTMAX   =  0.00D+00

 SETTING GEOMTYP        =    XYZ
 ZUNIT=BOHR
 

 Variable memory set to 1000000000 words,  buffer space   230000 words

 SETTING BASIS          =    AVDZ


 Recomputing integrals since basis changed


 Using spherical harmonics

 Library entry C      S aug-cc-pVDZ          selected for orbital group  1
 Library entry C      P aug-cc-pVDZ          selected for orbital group  1
 Library entry C      D aug-cc-pVDZ          selected for orbital group  1
 Library entry H      S aug-cc-pVDZ          selected for orbital group  2
 Library entry H      P aug-cc-pVDZ          selected for orbital group  2

1PROGRAM * SEWARD (Integral evaluation for generally contracted gaussian basis sets)     Author: Roland Lindh, 1990

 Geometry written to block  1 of record 700


 Point group  C1  



 ATOMIC COORDINATES

 NR  ATOM    CHARGE       X              Y              Z

   1  C       6.00   -0.000997910   -3.421741749    0.001962220
   2  H       1.00   -0.957270282   -2.727825274   -1.679259083
   3  H       1.00   -0.962111135   -2.733608600    1.682800147
   4  H       1.00    1.937384234   -2.739734518   -0.002461511
   5  H       1.00   -0.007400981   -5.476540572   -0.001581611
   6  C       6.00   -0.001921672    3.421755900   -0.000292647
   7  H       1.00   -0.002862086    5.481567431   -0.000971339
   8  H       1.00    0.968887238    2.731932644   -1.680985844
   9  H       1.00    0.968864148    2.733040339    1.680868100
  10  H       1.00   -1.942571554    2.731154398   -0.000078430

 Bond lengths in Bohr (Angstrom)

 1-2  2.054867877  1-3  2.054867879  1-4  2.054867093  1-5  2.054811856  6-7  2.059811858
     ( 1.087389248)     ( 1.087389249)     ( 1.087388833)     ( 1.087359603)     ( 1.090005490)

  6- 8  2.059867881   6- 9  2.059867881   6-10  2.059867095
       ( 1.090035136)       ( 1.090035136)       ( 1.090034720)

 Bond angles

  2-1-3  109.78489828   2-1-4  108.97449751   2-1-5  109.56223829   3-1-4  109.37963988

  3-1-5  109.56223829   4-1-5  109.56233049   7-6-8  109.56240831   7-6-9  109.56240831

  7- 6-10  109.56250040   8- 6- 9  109.37992579   8- 6-10  109.37980975   9- 6-10  109.37980975

 NUCLEAR CHARGE:                   20
 NUMBER OF PRIMITIVE AOS:         162
 NUMBER OF SYMMETRY AOS:          158
 NUMBER OF CONTRACTIONS:          118   ( 118A   )
 NUMBER OF CORE ORBITALS:           2   (   2A   )
 NUMBER OF VALENCE ORBITALS:       16   (  16A   )


 NUCLEAR REPULSION ENERGY   41.37512207


 Eigenvalues of metric

         1 0.368E-03 0.567E-03 0.571E-03 0.608E-03 0.725E-03 0.726E-03 0.776E-03 0.101E-02


 Contracted 2-electron integrals neglected if value below      1.0D-16
 AO integral compression algorithm  1   Integral accuracy      1.0D-16

     211.812 MB (compressed) written to integral file ( 92.7%)

     Node minimum: 211.812 MB, node maximum: 211.812 MB


 NUMBER OF SORTED TWO-ELECTRON INTEGRALS:   24650731.     BUFFER LENGTH:  32768
 NUMBER OF SEGMENTS:   2  SEGMENT LENGTH:   15997996      RECORD LENGTH: 524288

 Memory used in sort:      16.56 MW

 SORT1 READ    28594353. AND WROTE    24447562. INTEGRALS IN     71 RECORDS. CPU TIME:     0.28 SEC, REAL TIME:     0.43 SEC
 SORT2 READ    24447562. AND WROTE    24650731. INTEGRALS IN    808 RECORDS. CPU TIME:     0.23 SEC, REAL TIME:     0.36 SEC

 FILE SIZES:   FILE 1:   188.9 MBYTE,  FILE 4:   297.8 MBYTE,   TOTAL:    486.8 MBYTE

 OPERATOR DM      FOR CENTER  0  COORDINATES:    0.000000    0.000000    0.000000


 **********************************************************************************************************************************
 DATASETS  * FILE   NREC   LENGTH (MB)   RECORD NAMES
              1      19      189.11       500      610      700      900      950      970     1000      129      960     1100   
                                          VAR    BASINP    GEOM    SYMINP    ZMAT    AOBASIS   BASIS     P2S    ABASIS      S 
                                         1400     1410     1200     1210     1080     1600     1650     1300     1700   
                                           T        V       H0       H01     AOSYM     SMH    MOLCAS    ERIS     OPER   

 PROGRAMS   *        TOTAL       INT
 CPU TIMES  *         1.65      1.61
 REAL TIME  *         2.29 SEC
 DISK USED  *       699.36 MB      
 GA USED    *         0.00 MB       (max)       0.00 MB       (current)
 **********************************************************************************************************************************

1PROGRAM * RHF-SCF (CLOSED SHELL)       Authors: W. Meyer, H.-J. Werner


 NUMBER OF ELECTRONS:      10+   10-    SPACE SYMMETRY=1    SPIN SYMMETRY: Singlet 
 CONVERGENCE THRESHOLDS:    1.00E-10 (Density)    1.00E-13 (Energy)
 MAX. NUMBER OF ITERATIONS:      200
 INTERPOLATION TYPE:            DIIS
 INTERPOLATION STEPS:              2 (START)      1 (STEP)
 LEVEL SHIFTS:                  0.00 (CLOSED)  0.00 (OPEN) 



 Orbital guess generated from atomic densities. Full valence occupancy:   18

 Molecular orbital dump at record        2100.2

 ITERATION    DDIFF          GRAD             ENERGY        2-EL.EN.            DIPOLE MOMENTS         DIIS
    1      0.000D+00      0.000D+00       -80.36220436    134.859698    0.00224    0.00009   -0.00127    0
    2      0.000D+00      0.369D-02       -80.39420767    132.546143    0.00057    0.00000   -0.00027    1
    3      0.813D-02      0.137D-02       -80.39819381    133.374945    0.00089    0.00001   -0.00048    2
    4      0.257D-02      0.371D-03       -80.39878106    133.244637    0.00076    0.00000   -0.00042    3
    5      0.869D-03      0.457D-04       -80.39878978    133.251521    0.00075   -0.00000   -0.00041    4
    6      0.877D-04      0.298D-05       -80.39878983    133.251355    0.00075   -0.00000   -0.00041    5
    7      0.107D-04      0.348D-06       -80.39878983    133.251339    0.00075   -0.00000   -0.00041    5
    8      0.164D-05      0.120D-06       -80.39878983    133.251337    0.00075   -0.00000   -0.00041    5
    9      0.364D-06      0.159D-07       -80.39878983    133.251337    0.00075   -0.00000   -0.00041    5
   10      0.110D-06      0.224D-08       -80.39878983    133.251338    0.00075   -0.00000   -0.00041    5
   11      0.618D-08      0.293D-09       -80.39878983    133.251338    0.00075   -0.00000   -0.00041    5
   12      0.109D-08      0.749D-10       -80.39878983    133.251338    0.00075   -0.00000   -0.00041    6
   13      0.421D-09      0.247D-10       -80.39878983    133.251338    0.00075   -0.00000   -0.00041    6
   14      0.741D-10      0.397D-11       -80.39878983    133.251338    0.00075   -0.00000   -0.00041    6
   15      0.963D-11      0.103D-11       -80.39878983    133.251338    0.00075   -0.00000   -0.00041    0

 Final occupancy:  10

 !RHF STATE 1.1 Energy                -80.398789826088
 Nuclear energy                        41.37512207
 One-electron energy                 -188.39958072
 Two-electron energy                   66.62566882
 Virial quotient                       -1.00177290
 !RHF STATE 1.1 Dipole moment           0.00074710    -0.00000130    -0.00041259
 Dipole moment /Debye                   0.00189881    -0.00000331    -0.00104863

 Orbital energies:

         1.1          2.1          3.1          4.1          5.1          6.1          7.1          8.1          9.1         10.1
    -11.214652   -11.213389    -0.946175    -0.940125    -0.551247    -0.547394    -0.546395    -0.539776    -0.538956    -0.536013

        11.1         12.1
      0.035489     0.045876


 **********************************************************************************************************************************
 DATASETS  * FILE   NREC   LENGTH (MB)   RECORD NAMES
              1      19      189.11       500      610      700      900      950      970     1000      129      960     1100   
                                          VAR    BASINP    GEOM    SYMINP    ZMAT    AOBASIS   BASIS     P2S    ABASIS      S 
                                         1400     1410     1200     1210     1080     1600     1650     1300     1700   
                                           T        V       H0       H01     AOSYM     SMH    MOLCAS    ERIS     OPER   

              2       3        0.70       700     1000     2100   
                                         GEOM     BASIS     RHF  

 PROGRAMS   *        TOTAL       RHF       INT
 CPU TIMES  *         4.58      2.93      1.61
 REAL TIME  *         5.63 SEC
 DISK USED  *       699.36 MB      
 GA USED    *         0.00 MB       (max)       0.00 MB       (current)
 **********************************************************************************************************************************


1PROGRAM * CCSD (Closed-shell coupled cluster)     Authors: C. Hampel, H.-J. Werner, 1991, M. Deegan, P.J. Knowles, 1992


 Convergence thresholds:  THRVAR = 1.00D-08  THRDEN = 1.00D-12

 CCSD(T)     terms to be evaluated (factor= 1.000)


 Number of core orbitals:           2 (   2 )
 Number of closed-shell orbitals:   8 (   8 )
 Number of external orbitals:     108 ( 108 )

 Molecular orbitals read from record     2100.2  Type=RHF/CANONICAL (state 1.1)

 Number of N-1 electron functions:               8
 Number of N-2 electron functions:              36
 Number of singly external CSFs:               864
 Number of doubly external CSFs:            373680
 Total number of CSFs:                      374545

 Length of J-op  integral file:               0.00 MB
 Length of K-op  integral file:               1.00 MB
 Length of 3-ext integral record:             0.00 MB

 Memory could be reduced to 14.62 Mwords without degradation in triples

 Integral transformation finished. Total CPU:   0.72 sec, npass=  1  Memory used:   8.61 MW

 Reference energy:                    -80.39878983

 MP2 singlet pair energy:              -0.24094435
 MP2 triplet pair energy:              -0.09675748
 MP2 correlation energy:               -0.33770182
 MP2 total energy:                    -80.73649165

 SCS-MP2 correlation energy:           -0.34933787   (PS=  1.200000  PT=  0.333333)
 SCS-MP2 total energy:                -80.74812769

 ITER.      SQ.NORM     CORR.ENERGY   TOTAL ENERGY   ENERGY CHANGE        DEN1      VAR(S)    VAR(P)  DIIS     TIME
   1      1.14022405    -0.38132406   -80.78011388    -0.04362224    -0.03251116  0.70D-03  0.24D-02  1  1     1.58
   2      1.15322706    -0.38406980   -80.78285962    -0.00274574    -0.01266967  0.16D-04  0.11D-03  2  2     2.50
   3      1.15532523    -0.38420126   -80.78299109    -0.00013146    -0.00112330  0.25D-05  0.71D-05  3  3     3.42
   4      1.15576966    -0.38421929   -80.78300911    -0.00001803    -0.00017583  0.10D-06  0.44D-06  4  4     4.35
   5      1.15584037    -0.38421599   -80.78300581     0.00000330    -0.00003201  0.39D-08  0.30D-07  5  5     5.27
   6      1.15584427    -0.38421498   -80.78300480     0.00000101    -0.00000141  0.28D-09  0.20D-08  6  6     6.20
   7      1.15584467    -0.38421519   -80.78300502    -0.00000022    -0.00000003  0.24D-10  0.13D-09  6  1     7.13
   8      1.15584474    -0.38421521   -80.78300504    -0.00000002    -0.00000007  0.24D-11  0.95D-11  6  2     8.04
   9      1.15584468    -0.38421521   -80.78300504    -0.00000000     0.00000003  0.44D-12  0.74D-12  6  3     8.98
  10      1.15584464    -0.38421521   -80.78300504    -0.00000000     0.00000002  0.34D-13  0.65D-13  6  4     9.90
  11      1.15584462    -0.38421521   -80.78300504    -0.00000000     0.00000002  0.31D-14  0.70D-14  6  5    10.82
  12      1.15584460    -0.38421522   -80.78300504    -0.00000000     0.00000001  0.27D-15  0.84D-15  6  6    11.74
  13      1.15584460    -0.38421522   -80.78300504    -0.00000000     0.00000000  0.22D-16  0.10D-15  6  1    12.65
  14      1.15584460    -0.38421522   -80.78300504    -0.00000000     0.00000000  0.25D-17  0.11D-16  6  3    13.55
  15      1.15584460    -0.38421522   -80.78300504    -0.00000000     0.00000000  0.19D-18  0.59D-18  6  2    14.48
  16      1.15584460    -0.38421522   -80.78300504    -0.00000000     0.00000000  0.26D-19  0.45D-19  6  4    15.40
  17      1.15584460    -0.38421522   -80.78300504    -0.00000000     0.00000000  0.31D-20  0.57D-20  6  5    16.33
  18      1.15584460    -0.38421522   -80.78300504    -0.00000000     0.00000000  0.34D-21  0.48D-21  6  6    17.25

 Norm of t1 vector:      0.03911747      S-energy:     0.00000000      T1 diagnostic:  0.00691506
                                                                       D1 diagnostic:  0.01252269


 Total CPU time for triples:     10.54 sec


 RESULTS
 =======

  Reference energy                    -80.398789826088
  CCSD singlet pair energy             -0.289968584070
  CCSD triplet pair energy             -0.094246631504
  CCSD correlation energy              -0.384215215574

  Triples (T) contribution             -0.009201688629
  Total correlation energy             -0.393416904203

  CCSD total energy                   -80.783005041662
  CCSD[T] energy                      -80.792426601689
  CCSD-T energy                       -80.792090019896
 !CCSD(T) total energy                -80.792206730291

 Timing summary (sec):

 STEP                 CPU(USER)    SYS     CPU(TOT)    WALL
 Transformation          0.74      0.09      0.83      0.83
 CCSD iterations        16.51      0.88     17.39     17.43
 Triples                10.54      0.24     10.78     10.78

 Program statistics:

 Available memory in ccsd:               999999644
 Min. memory needed in ccsd:               1156281
 Max. memory used in ccsd:                 1468601
 Max. memory used in cckext:               1135046 (18 integral passes)



 **********************************************************************************************************************************
 DATASETS  * FILE   NREC   LENGTH (MB)   RECORD NAMES
              1      20      236.09       500      610      700      900      950      970     1000      129      960     1100   
                                          VAR    BASINP    GEOM    SYMINP    ZMAT    AOBASIS   BASIS     P2S    ABASIS      S 
                                         1400     1410     1200     1210     1080     1600     1650     1300     1700     1380   
                                           T        V       H0       H01     AOSYM     SMH    MOLCAS    ERIS     OPER     JKOP   

              2       3        0.70       700     1000     2100   
                                         GEOM     BASIS     RHF  

 PROGRAMS   *        TOTAL   CCSD(T)       RHF       INT
 CPU TIMES  *        32.38     27.80      2.93      1.61
 REAL TIME  *        34.71 SEC
 DISK USED  *       699.36 MB      
 GA USED    *         0.00 MB       (max)       0.00 MB       (current)
 **********************************************************************************************************************************

        CCSD(T)         RHF-SCF 
    -80.79220673    -80.39878983
 **********************************************************************************************************************************
 Variable memory released
