
 Primary working directories    : /tmp/943448.136.gen6.q
 Secondary working directories  : /tmp/943448.136.gen6.q
 Wavefunction directory         : /home/vulcan/mel64643/wfu/
 Main file repository           : /tmp/943448.136.gen6.q/

 ARCHNAME  : Linux/x86_64
 FC        : /opt/intel/compilers_and_libraries_2016.1.150/linux/bin/intel64/ifort
 FCVERSION : 16.0.1
 BLASLIB   : -mkl
 id        : ccgc

 Nodes     nprocs
 n081         1
 ga_uses_ma=false, calling ma_init with nominal heap.
 GA-space will be limited to   8.0 MW (determined by -G option)

 Using customized tuning parameters: mindgm=10; mindgv=16; mindgc=4; mindgr=1; noblas=0; mincuda=1000; minvec=7
 default implementation of scratch files=df  

 ***,Optimization of nh3_nitrosmethane
 memory,1000,m
 gthresh,energy=1.0d-12,orbital=1.0d-10,oneint=1.0d-16,twoint=1.0d-16,optgrad=1.0d-6,compress=1.0d-13
 geomtyp=xyz
 
 bohr
 geometry = {
  N   -5.2233866048   -0.1848102465    0.0063018531
  H   -6.3079568786    0.2180791879   -1.5328878350
  H   -3.7594192557    1.0586030400   -0.0104435627
  H   -6.2877411631    0.2418682690    1.5355335859
  H   -0.9251574616   -2.3992563930   -0.0080339784
  H    1.8872692954   -3.4308351980   -1.6674099116
  H    1.8762866576   -3.4371043824    1.6659463008
  C    1.1353418981   -2.4696672146   -0.0013775348
  N    2.2661780746    0.0979777557    0.0071773879
  O    0.7027039282    1.7822021910    0.0051936948
 }
 
 basis=aug-cc-pvdz
 {rhf;maxit,200}
 {ccsd(t);maxit,200}

 Variables initialized (661), CPU time= 0.01 sec
 Commands  initialized (458), CPU time= 0.00 sec, 486 directives.
 Default parameters read. Elapsed time= 0.05 sec

 Checking input...
 Passed
1


                                         ***  PROGRAM SYSTEM MOLPRO  ***
                         Copyright, University College Cardiff Consultants Limited, 2008

                                    Version 2010.1 linked May 16 2016 07:17:05


 **********************************************************************************************************************************
 LABEL *   Optimization of nh3_nitrosmethane                                             
 Linux-4.4.3/n081(x86_64) 64 bit mpp version                                             DATE: 26-Oct-23          TIME: 11:58:04  
 **********************************************************************************************************************************

 SHA1:             9e8077add272b0f3cad6f7df79ec5211205f459d
 **********************************************************************************************************************************

 THRESHOLDS:

 ZERO    =  1.00D-12  ONEINT  =  1.00D-16  TWOINT  =  1.00D-16  PREFAC  =  1.00D-14  LOCALI  =  1.00D-09  EORDER  =  1.00D-04
 ENERGY  =  1.00D-12  ETEST   =  0.00D+00  EDENS   =  0.00D+00  THRDEDEF=  1.00D-06  GRADIENT=  1.00D-02  STEP    =  1.00D-03
 ORBITAL =  1.00D-10  CIVEC   =  1.00D-05  COEFF   =  1.00D-04  PRINTCI =  5.00D-02  PUNCHCI =  9.90D+01  OPTGRAD =  1.00D-06
 OPTENERG=  1.00D-06  OPTSTEP =  3.00D-04  THRGRAD =  1.00D-10  COMPRESS=  1.00D-13  VARMIN  =  1.00D-07  VARMAX  =  1.00D-03
 THRDOUB =  0.00D+00  THRDIV  =  1.00D-05  THRRED  =  1.00D-07  THRPSP  =  1.00D+00  THRDC   =  1.00D-10  THRCS   =  1.00D-10
 THRNRM  =  1.00D-08  THREQ   =  0.00D+00  THRDE   =  1.00D+00  THRREF  =  1.00D-05  SPARFAC =  1.00D+00  THRDLP  =  1.00D-07
 THRDIA  =  1.00D-10  THRDLS  =  1.00D-07  THRGPS  =  0.00D+00  THRKEX  =  0.00D+00  THRDIS  =  2.00D-01  THRVAR  =  1.00D-10
 THRLOC  =  1.00D-06  THRGAP  =  1.00D-06  THRLOCT = -1.00D+00  THRGAPT = -1.00D+00  THRORB  =  1.00D-06  THRMLTP =  0.00D+00
 THRCPQCI=  1.00D-10  KEXTA   =  0.00D+00  THRCOARS=  0.00D+00  SYMTOL  =  1.00D-06  GRADTOL =  1.00D-06  THROVL  =  1.00D-08
 THRORTH =  1.00D-08  GRID    =  1.00D-06  GRIDMAX =  1.00D-03  DTMAX   =  0.00D+00

 SETTING GEOMTYP        =    XYZ
 ZUNIT=BOHR
 

 Variable memory set to 1000000000 words,  buffer space   230000 words

 SETTING BASIS          =    AUG-CC-PVDZ


 Recomputing integrals since basis changed


 Using spherical harmonics

 Library entry N      S aug-cc-pVDZ          selected for orbital group  1
 Library entry N      P aug-cc-pVDZ          selected for orbital group  1
 Library entry N      D aug-cc-pVDZ          selected for orbital group  1
 Library entry H      S aug-cc-pVDZ          selected for orbital group  2
 Library entry H      P aug-cc-pVDZ          selected for orbital group  2
 Library entry C      S aug-cc-pVDZ          selected for orbital group  3
 Library entry C      P aug-cc-pVDZ          selected for orbital group  3
 Library entry C      D aug-cc-pVDZ          selected for orbital group  3
 Library entry O      S aug-cc-pVDZ          selected for orbital group  5
 Library entry O      P aug-cc-pVDZ          selected for orbital group  5
 Library entry O      D aug-cc-pVDZ          selected for orbital group  5

1PROGRAM * SEWARD (Integral evaluation for generally contracted gaussian basis sets)     Author: Roland Lindh, 1990

 Geometry written to block  1 of record 700


 Point group  C1  



 ATOMIC COORDINATES

 NR  ATOM    CHARGE       X              Y              Z

   1  N       7.00   -5.223386605   -0.184810246    0.006301853
   2  H       1.00   -6.307956879    0.218079188   -1.532887835
   3  H       1.00   -3.759419256    1.058603040   -0.010443563
   4  H       1.00   -6.287741163    0.241868269    1.535533586
   5  H       1.00   -0.925157462   -2.399256393   -0.008033978
   6  H       1.00    1.887269295   -3.430835198   -1.667409912
   7  H       1.00    1.876286658   -3.437104382    1.665946301
   8  C       6.00    1.135341898   -2.469667215   -0.001377535
   9  N       7.00    2.266178075    0.097977756    0.007177388
  10  O       8.00    0.702703928    1.782202191    0.005193695

 Bond lengths in Bohr (Angstrom)

 1-2  1.925543422  1-3  1.920822066  1-4  1.911401285  5-8  2.061712784  6-8  2.065164057
     ( 1.018953694)     ( 1.016455260)     ( 1.011469998)     ( 1.091011417)     ( 1.092837752)

  7- 8  2.065164057   8- 9  2.805648648   9-10  2.298057286
       ( 1.092837752)       ( 1.484685321)       ( 1.216079541)

 Bond angles

  2-1-3  106.67095258   2-1-4  106.21107617   3-1-4  106.67095270   5-8-6  112.15889747

  5-8-7  112.15889744   5-8-9  111.81278713   6-8-7  107.61735149   6-8-9  106.35838687

  7- 8- 9  106.35838687   8- 9-10  113.35946297

 NUCLEAR CHARGE:                   34
 NUMBER OF PRIMITIVE AOS:         214
 NUMBER OF SYMMETRY AOS:          206
 NUMBER OF CONTRACTIONS:          146   ( 146A   )
 NUMBER OF CORE ORBITALS:           4   (   4A   )
 NUMBER OF VALENCE ORBITALS:       22   (  22A   )


 NUCLEAR REPULSION ENERGY  117.39102898


 Eigenvalues of metric

         1 0.324E-03 0.518E-03 0.620E-03 0.674E-03 0.106E-02 0.117E-02 0.126E-02 0.186E-02


 Contracted 2-electron integrals neglected if value below      1.0D-16
 AO integral compression algorithm  1   Integral accuracy      1.0D-16

     493.879 MB (compressed) written to integral file ( 92.1%)

     Node minimum: 493.879 MB, node maximum: 493.879 MB


 NUMBER OF SORTED TWO-ELECTRON INTEGRALS:   57582546.     BUFFER LENGTH:  32768
 NUMBER OF SEGMENTS:   4  SEGMENT LENGTH:   15999503      RECORD LENGTH: 524288

 Memory used in sort:      16.56 MW

 SORT1 READ    67015859. AND WROTE    57256373. INTEGRALS IN    166 RECORDS. CPU TIME:     0.58 SEC, REAL TIME:     1.35 SEC
 SORT2 READ    57256373. AND WROTE    57582546. INTEGRALS IN   1884 RECORDS. CPU TIME:     0.44 SEC, REAL TIME:     0.63 SEC

 FILE SIZES:   FILE 1:   433.9 MBYTE,  FILE 4:   696.3 MBYTE,   TOTAL:   1130.2 MBYTE

 OPERATOR DM      FOR CENTER  0  COORDINATES:    0.000000    0.000000    0.000000


 **********************************************************************************************************************************
 DATASETS  * FILE   NREC   LENGTH (MB)   RECORD NAMES
              1      19      434.16       500      610      700      900      950      970     1000      129      960     1100   
                                          VAR    BASINP    GEOM    SYMINP    ZMAT    AOBASIS   BASIS     P2S    ABASIS      S 
                                         1400     1410     1200     1210     1080     1600     1650     1300     1700   
                                           T        V       H0       H01     AOSYM     SMH    MOLCAS    ERIS     OPER   

 PROGRAMS   *        TOTAL       INT
 CPU TIMES  *         2.97      2.93
 REAL TIME  *         4.35 SEC
 DISK USED  *         1.62 GB      
 GA USED    *         0.00 MB       (max)       0.00 MB       (current)
 **********************************************************************************************************************************

1PROGRAM * RHF-SCF (CLOSED SHELL)       Authors: W. Meyer, H.-J. Werner


 NUMBER OF ELECTRONS:      17+   17-    SPACE SYMMETRY=1    SPIN SYMMETRY: Singlet 
 CONVERGENCE THRESHOLDS:    1.00E-10 (Density)    1.00E-13 (Energy)
 MAX. NUMBER OF ITERATIONS:      200
 INTERPOLATION TYPE:            DIIS
 INTERPOLATION STEPS:              2 (START)      1 (STEP)
 LEVEL SHIFTS:                  0.00 (CLOSED)  0.00 (OPEN) 



 Orbital guess generated from atomic densities. Full valence occupancy:   26

 Molecular orbital dump at record        2100.2

 ITERATION    DDIFF          GRAD             ENERGY        2-EL.EN.            DIPOLE MOMENTS         DIIS
    1      0.000D+00      0.000D+00      -224.96616743    393.092704    0.07207   -0.57941   -0.01288    0
    2      0.000D+00      0.594D-02      -225.02697849    392.712615   -0.57737   -0.38555   -0.00644    1
    3      0.111D-01      0.415D-02      -225.06087265    393.263407   -0.23304   -0.56313   -0.00693    2
    4      0.480D-02      0.830D-03      -225.06313330    393.098381   -0.31105   -0.46566   -0.00705    3
    5      0.121D-02      0.329D-03      -225.06355769    393.110017   -0.30866   -0.49544   -0.00677    4
    6      0.540D-03      0.799D-04      -225.06360057    393.137484   -0.31412   -0.49250   -0.00678    5
    7      0.180D-03      0.305D-04      -225.06360667    393.121276   -0.31574   -0.49255   -0.00677    6
    8      0.748D-04      0.124D-04      -225.06360767    393.127729   -0.31676   -0.49245   -0.00678    7
    9      0.285D-04      0.531D-05      -225.06360788    393.126599   -0.31704   -0.49215   -0.00678    8
   10      0.160D-04      0.163D-05      -225.06360791    393.126306   -0.31712   -0.49197   -0.00678    8
   11      0.483D-05      0.547D-06      -225.06360791    393.126413   -0.31714   -0.49188   -0.00678    8
   12      0.162D-05      0.167D-06      -225.06360791    393.126376   -0.31714   -0.49186   -0.00678    8
   13      0.580D-06      0.525D-07      -225.06360791    393.126370   -0.31714   -0.49185   -0.00678    8
   14      0.145D-06      0.268D-07      -225.06360791    393.126372   -0.31714   -0.49185   -0.00678    9
   15      0.659D-07      0.396D-08      -225.06360791    393.126372   -0.31714   -0.49185   -0.00678    8
   16      0.993D-08      0.255D-08      -225.06360791    393.126372   -0.31714   -0.49185   -0.00678    7
   17      0.101D-07      0.171D-08      -225.06360791    393.126372   -0.31714   -0.49185   -0.00678    7
   18      0.128D-07      0.772D-09      -225.06360791    393.126372   -0.31714   -0.49185   -0.00678    8
   19      0.728D-08      0.214D-09      -225.06360791    393.126372   -0.31714   -0.49185   -0.00678    9
   20      0.126D-08      0.537D-10      -225.06360791    393.126372   -0.31714   -0.49185   -0.00678    9
   21      0.225D-09      0.198D-10      -225.06360791    393.126372   -0.31714   -0.49185   -0.00678    9
   22      0.467D-10      0.597D-11      -225.06360791    393.126372   -0.31714   -0.49185   -0.00678    9
   23      0.179D-10      0.176D-11      -225.06360791    393.126372   -0.31714   -0.49185   -0.00678    9
   24      0.652D-11      0.651D-12      -225.06360791    393.126372   -0.31714   -0.49185   -0.00678    8
   25      0.233D-11      0.329D-12      -225.06360791    393.126372   -0.31714   -0.49185   -0.00678    8
   26      0.149D-11      0.107D-12      -225.06360791    393.126372   -0.31714   -0.49185   -0.00678    8
   27      0.160D-11      0.800D-13      -225.06360791    393.126372   -0.31714   -0.49185   -0.00678    9
   28      0.104D-11      0.627D-13      -225.06360791    393.126372   -0.31714   -0.49185   -0.00678    9
   29      0.606D-12      0.550D-13      -225.06360791    393.126372   -0.31714   -0.49185   -0.00678    9
   30      0.489D-12      0.579D-13      -225.06360791    393.126372   -0.31714   -0.49185   -0.00678    9
   31      0.274D-12      0.536D-13      -225.06360791    393.126372   -0.31714   -0.49185   -0.00678    9
   32      0.270D-12      0.532D-13      -225.06360791    393.126372   -0.31714   -0.49185   -0.00678    9
   33      0.172D-12      0.419D-13      -225.06360791    393.126372   -0.31714   -0.49185   -0.00678    9
   34      0.231D-12      0.554D-13      -225.06360791    393.126372   -0.31714   -0.49185   -0.00678    9
   35      0.331D-12      0.441D-13      -225.06360791    393.126372   -0.31714   -0.49185   -0.00678    9
   36      0.164D-12      0.440D-13      -225.06360791    393.126372   -0.31714   -0.49185   -0.00678    9
   37      0.105D-12      0.430D-13      -225.06360791    393.126372   -0.31714   -0.49185   -0.00678    9
   38      0.226D-12      0.486D-13      -225.06360791    393.126372   -0.31714   -0.49185   -0.00678    9
   39      0.204D-12      0.479D-13      -225.06360791    393.126372   -0.31714   -0.49185   -0.00678    9
   40      0.158D-12      0.372D-13      -225.06360791    393.126372   -0.31714   -0.49185   -0.00678    9
   41      0.158D-12      0.384D-13      -225.06360791    393.126372   -0.31714   -0.49185   -0.00678    9
   42      0.203D-12      0.455D-13      -225.06360791    393.126372   -0.31714   -0.49185   -0.00678    9
   43      0.263D-12      0.393D-13      -225.06360791    393.126372   -0.31714   -0.49185   -0.00678    9
   44      0.246D-12      0.571D-13      -225.06360791    393.126372   -0.31714   -0.49185   -0.00678    0

 Final occupancy:  17

 !RHF STATE 1.1 Energy               -225.063607908469
 Nuclear energy                       117.39102898
 One-electron energy                 -539.01782301
 Two-electron energy                  196.56318612
 Virial quotient                       -1.00217585
 !RHF STATE 1.1 Dipole moment          -0.31714333    -0.49185327    -0.00677942
 Dipole moment /Debye                  -0.80604515    -1.25008443    -0.01723043

 Orbital energies:

         1.1          2.1          3.1          4.1          5.1          6.1          7.1          8.1          9.1         10.1
    -20.640520   -15.714912   -15.548589   -11.270865    -1.515098    -1.140414    -1.076163    -0.862456    -0.691442    -0.676049

        11.1         12.1         13.1         14.1         15.1         16.1         17.1         18.1         19.1
     -0.636318    -0.624912    -0.623051    -0.555720    -0.534526    -0.428482    -0.406209     0.034988     0.046241


 **********************************************************************************************************************************
 DATASETS  * FILE   NREC   LENGTH (MB)   RECORD NAMES
              1      19      434.16       500      610      700      900      950      970     1000      129      960     1100   
                                          VAR    BASINP    GEOM    SYMINP    ZMAT    AOBASIS   BASIS     P2S    ABASIS      S 
                                         1400     1410     1200     1210     1080     1600     1650     1300     1700   
                                           T        V       H0       H01     AOSYM     SMH    MOLCAS    ERIS     OPER   

              2       3        0.86       700     1000     2100   
                                         GEOM     BASIS     RHF  

 PROGRAMS   *        TOTAL       RHF       INT
 CPU TIMES  *        18.15     15.17      2.93
 REAL TIME  *        21.47 SEC
 DISK USED  *         1.62 GB      
 GA USED    *         0.00 MB       (max)       0.00 MB       (current)
 **********************************************************************************************************************************


1PROGRAM * CCSD (Closed-shell coupled cluster)     Authors: C. Hampel, H.-J. Werner, 1991, M. Deegan, P.J. Knowles, 1992


 Convergence thresholds:  THRVAR = 1.00D-08  THRDEN = 1.00D-12

 CCSD(T)     terms to be evaluated (factor= 1.000)


 Number of core orbitals:           4 (   4 )
 Number of closed-shell orbitals:  13 (  13 )
 Number of external orbitals:     129 ( 129 )

 Molecular orbitals read from record     2100.2  Type=RHF/CANONICAL (state 1.1)

 Number of N-1 electron functions:              13
 Number of N-2 electron functions:              91
 Number of singly external CSFs:              1677
 Number of doubly external CSFs:           1407003
 Total number of CSFs:                     1408681

 Length of J-op  integral file:               0.00 MB
 Length of K-op  integral file:               1.50 MB
 Length of 3-ext integral record:             0.00 MB

 Memory could be reduced to 37.23 Mwords without degradation in triples

 Integral transformation finished. Total CPU:   1.94 sec, npass=  1  Memory used:  25.63 MW

 Reference energy:                   -225.06360791

 MP2 singlet pair energy:              -0.45131175
 MP2 triplet pair energy:              -0.26573692
 MP2 correlation energy:               -0.71704867
 MP2 total energy:                   -225.78065658

 SCS-MP2 correlation energy:           -0.70692152   (PS=  1.200000  PT=  0.333333)
 SCS-MP2 total energy:               -225.77052943

 ITER.      SQ.NORM     CORR.ENERGY   TOTAL ENERGY   ENERGY CHANGE        DEN1      VAR(S)    VAR(P)  DIIS     TIME
   1      1.24222810    -0.75079523  -225.81440314    -0.03374656    -0.00984039  0.53D-02  0.49D-02  1  1     5.99
   2      1.26409495    -0.75385318  -225.81746109    -0.00305796    -0.02116446  0.17D-03  0.87D-03  2  2    10.07
   3      1.27420092    -0.75456152  -225.81816943    -0.00070833    -0.00465152  0.12D-03  0.62D-04  3  3    14.16
   4      1.27838796    -0.75452595  -225.81813386     0.00003556    -0.00138458  0.11D-04  0.11D-04  4  4    18.26
   5      1.28006639    -0.75454401  -225.81815191    -0.00001805    -0.00036576  0.20D-05  0.17D-05  5  5    22.37
   6      1.28053407    -0.75451365  -225.81812156     0.00003036    -0.00005600  0.17D-06  0.34D-06  6  6    26.47
   7      1.28063962    -0.75451022  -225.81811813     0.00000343    -0.00000444  0.37D-07  0.92D-07  6  2    30.58
   8      1.28066675    -0.75451103  -225.81811894    -0.00000081    -0.00000066  0.53D-08  0.22D-07  6  1    34.68
   9      1.28067298    -0.75451038  -225.81811828     0.00000065     0.00000234  0.21D-08  0.33D-08  6  3    38.78
  10      1.28066762    -0.75451134  -225.81811925    -0.00000096     0.00000152  0.47D-09  0.64D-09  6  5    42.88
  11      1.28066701    -0.75451152  -225.81811943    -0.00000018     0.00000058  0.14D-09  0.68D-10  6  4    46.99
  12      1.28066604    -0.75451156  -225.81811947    -0.00000004     0.00000018  0.40D-10  0.13D-10  6  6    51.11
  13      1.28066539    -0.75451162  -225.81811952    -0.00000005     0.00000007  0.92D-11  0.35D-11  6  2    55.22
  14      1.28066488    -0.75451162  -225.81811953    -0.00000001     0.00000007  0.25D-11  0.80D-12  6  1    59.32
  15      1.28066458    -0.75451163  -225.81811954    -0.00000001     0.00000005  0.46D-12  0.21D-12  6  5    63.44
  16      1.28066442    -0.75451164  -225.81811955    -0.00000001     0.00000003  0.15D-12  0.41D-13  6  3    67.56
  17      1.28066437    -0.75451164  -225.81811955    -0.00000000     0.00000001  0.98D-13  0.15D-13  6  4    71.67
  18      1.28066435    -0.75451164  -225.81811955    -0.00000000     0.00000000  0.65D-13  0.82D-14  6  6    75.78
  19      1.28066435    -0.75451164  -225.81811955     0.00000000    -0.00000000  0.32D-13  0.44D-14  6  2    79.89
  20      1.28066435    -0.75451164  -225.81811955     0.00000000     0.00000000  0.96D-14  0.23D-14  6  1    83.99
  21      1.28066436    -0.75451164  -225.81811955     0.00000000    -0.00000000  0.23D-14  0.11D-14  6  3    88.11
  22      1.28066436    -0.75451164  -225.81811955    -0.00000000     0.00000000  0.33D-15  0.34D-15  6  5    92.21
  23      1.28066436    -0.75451164  -225.81811955     0.00000000    -0.00000000  0.55D-16  0.97D-16  6  6    96.32
  24      1.28066436    -0.75451164  -225.81811955    -0.00000000    -0.00000000  0.43D-17  0.20D-16  6  4   100.43
  25      1.28066436    -0.75451164  -225.81811955     0.00000000    -0.00000000  0.11D-17  0.27D-17  6  2   104.53
  26      1.28066436    -0.75451164  -225.81811955     0.00000000    -0.00000000  0.51D-18  0.89D-18  6  1   108.64
  27      1.28066436    -0.75451164  -225.81811955     0.00000000    -0.00000000  0.27D-18  0.25D-18  6  3   112.74
  28      1.28066436    -0.75451164  -225.81811955     0.00000000    -0.00000000  0.19D-18  0.64D-19  6  5   116.84
  29      1.28066436    -0.75451164  -225.81811955     0.00000000    -0.00000000  0.14D-18  0.24D-19  6  6   120.94
  30      1.28066436    -0.75451164  -225.81811955     0.00000000    -0.00000000  0.88D-19  0.11D-19  6  4   125.05

 Norm of t1 vector:      0.11184066      S-energy:     0.00000000      T1 diagnostic:  0.01550951
                                                                       D1 diagnostic:  0.04952877

 Doubles amplitudes (print threshold =  0.500E-01):

         I         J         SYM. A    SYM. B    A         B      T(IJ, AB)

         7         7         1         1         7         7     -0.05236323
        11         7         1         1         7         7     -0.05297118
        11        11         1         1         7         7     -0.07521918


 Total CPU time for triples:     65.26 sec


 RESULTS
 =======

  Reference energy                   -225.063607908469
  CCSD singlet pair energy             -0.519382973937
  CCSD triplet pair energy             -0.235128668616
  CCSD correlation energy              -0.754511642551

  Triples (T) contribution             -0.026868461520
  Total correlation energy             -0.781380104072

  CCSD total energy                  -225.818119551020
  CCSD[T] energy                     -225.846617523758
  CCSD-T energy                      -225.844477318157
 !CCSD(T) total energy               -225.844988012541

 Timing summary (sec):

 STEP                 CPU(USER)    SYS     CPU(TOT)    WALL
 Transformation          2.00      0.19      2.19      2.20
 CCSD iterations       123.05      3.50    126.55    126.61
 Triples                65.26      1.25     66.51     66.53

 Program statistics:

 Available memory in ccsd:               999999224
 Min. memory needed in ccsd:               3720021
 Max. memory used in ccsd:                 4957023
 Max. memory used in cckext:               4136268 (30 integral passes)



 **********************************************************************************************************************************
 DATASETS  * FILE   NREC   LENGTH (MB)   RECORD NAMES
              1      20      570.43       500      610      700      900      950      970     1000      129      960     1100   
                                          VAR    BASINP    GEOM    SYMINP    ZMAT    AOBASIS   BASIS     P2S    ABASIS      S 
                                         1400     1410     1200     1210     1080     1600     1650     1300     1700     1380   
                                           T        V       H0       H01     AOSYM     SMH    MOLCAS    ERIS     OPER     JKOP   

              2       3        0.86       700     1000     2100   
                                         GEOM     BASIS     RHF  

 PROGRAMS   *        TOTAL   CCSD(T)       RHF       INT
 CPU TIMES  *       208.48    190.32     15.17      2.93
 REAL TIME  *       216.85 SEC
 DISK USED  *         1.62 GB      
 GA USED    *         0.00 MB       (max)       0.00 MB       (current)
 **********************************************************************************************************************************

        CCSD(T)         RHF-SCF 
   -225.84498801   -225.06360791
 **********************************************************************************************************************************
 Variable memory released
