
 Primary working directories    : /tmp/1049102.481.gen6.q
 Secondary working directories  : /tmp/1049102.481.gen6.q
 Wavefunction directory         : /home/vulcan/mel64643/wfu/
 Main file repository           : /tmp/1049102.481.gen6.q/

 ARCHNAME  : Linux/x86_64
 FC        : /opt/intel/compilers_and_libraries_2016.1.150/linux/bin/intel64/ifort
 FCVERSION : 16.0.1
 BLASLIB   : -mkl
 id        : ccgc

 Nodes     nprocs
 n082         1
 ga_uses_ma=false, calling ma_init with nominal heap.
 GA-space will be limited to   8.0 MW (determined by -G option)

 Using customized tuning parameters: mindgm=10; mindgv=16; mindgc=4; mindgr=1; noblas=0; mincuda=1000; minvec=7
 default implementation of scratch files=df  

 ***,Optimization of h2o_3
 memory,1000,m
 gthresh,energy=1.0d-12,orbital=1.0d-10,oneint=1.0d-16,twoint=1.0d-16,optgrad=1.0d-6,compress=1.0d-13
 geomtyp=xyz
 
 
 
 bohr
 geometry = {
  C    0.9150301708    1.4061967208   -2.2739785937
  C    0.7392692345    2.7099525009    0.0175347992
  C    0.9982357643    1.4065817469    2.3015233486
  C    1.4313650882   -1.2005972036    2.2939998623
  C    1.6078533040   -2.5038614668    0.0025285930
  C    1.3489452104   -1.2002670353   -2.2812558321
  H    0.7062238442    2.4105449925   -4.0352372912
  H    0.3892736977    4.7205876256    0.0233908977
  H    0.8568509002    2.4159729182    4.0768206164
  H    1.6296126529   -2.2116988295    4.0663978208
  H    1.9413431082   -4.5236313360   -0.0033348715
  H    1.4828634869   -2.2074252290   -4.0520318853
  N   -5.4428795595   -0.3570843492   -0.0709808834
  H   -5.5916234960   -1.5684683866   -1.5514260602
  H   -6.0692470661   -1.3152679477    1.4687231345
  H   -3.5621844736   -0.0733243192    0.1974040219
 }
 
 basis=aug-cc-pvdz, H=cc-pvdz
 {rhf;maxit,200}
 {ccsd(t)}

 Variables initialized (661), CPU time= 0.01 sec
 Commands  initialized (458), CPU time= 0.00 sec, 486 directives.
 Default parameters read. Elapsed time= 0.04 sec

 Checking input...
 Passed
1


                                         ***  PROGRAM SYSTEM MOLPRO  ***
                         Copyright, University College Cardiff Consultants Limited, 2008

                                    Version 2010.1 linked May 16 2016 07:17:05


 **********************************************************************************************************************************
 LABEL *   Optimization of h2o_3                                                         
 Linux-4.4.3/n082(x86_64) 64 bit mpp version                                             DATE: 19-Mar-24          TIME: 07:55:52  
 **********************************************************************************************************************************

 SHA1:             9e8077add272b0f3cad6f7df79ec5211205f459d
 **********************************************************************************************************************************

 THRESHOLDS:

 ZERO    =  1.00D-12  ONEINT  =  1.00D-16  TWOINT  =  1.00D-16  PREFAC  =  1.00D-14  LOCALI  =  1.00D-09  EORDER  =  1.00D-04
 ENERGY  =  1.00D-12  ETEST   =  0.00D+00  EDENS   =  0.00D+00  THRDEDEF=  1.00D-06  GRADIENT=  1.00D-02  STEP    =  1.00D-03
 ORBITAL =  1.00D-10  CIVEC   =  1.00D-05  COEFF   =  1.00D-04  PRINTCI =  5.00D-02  PUNCHCI =  9.90D+01  OPTGRAD =  1.00D-06
 OPTENERG=  1.00D-06  OPTSTEP =  3.00D-04  THRGRAD =  1.00D-10  COMPRESS=  1.00D-13  VARMIN  =  1.00D-07  VARMAX  =  1.00D-03
 THRDOUB =  0.00D+00  THRDIV  =  1.00D-05  THRRED  =  1.00D-07  THRPSP  =  1.00D+00  THRDC   =  1.00D-10  THRCS   =  1.00D-10
 THRNRM  =  1.00D-08  THREQ   =  0.00D+00  THRDE   =  1.00D+00  THRREF  =  1.00D-05  SPARFAC =  1.00D+00  THRDLP  =  1.00D-07
 THRDIA  =  1.00D-10  THRDLS  =  1.00D-07  THRGPS  =  0.00D+00  THRKEX  =  0.00D+00  THRDIS  =  2.00D-01  THRVAR  =  1.00D-10
 THRLOC  =  1.00D-06  THRGAP  =  1.00D-06  THRLOCT = -1.00D+00  THRGAPT = -1.00D+00  THRORB  =  1.00D-06  THRMLTP =  0.00D+00
 THRCPQCI=  1.00D-10  KEXTA   =  0.00D+00  THRCOARS=  0.00D+00  SYMTOL  =  1.00D-06  GRADTOL =  1.00D-06  THROVL  =  1.00D-08
 THRORTH =  1.00D-08  GRID    =  1.00D-06  GRIDMAX =  1.00D-03  DTMAX   =  0.00D+00

 SETTING GEOMTYP        =    XYZ
 ZUNIT=BOHR
 

 Variable memory set to 1000000000 words,  buffer space   230000 words

 SETTING BASIS          =    AUG-CC-PVDZ,H=CC-PVDZ


 Recomputing integrals since basis changed


 Using spherical harmonics

 Library entry C      S aug-cc-pVDZ          selected for orbital group  1
 Library entry C      P aug-cc-pVDZ          selected for orbital group  1
 Library entry C      D aug-cc-pVDZ          selected for orbital group  1
 Library entry H      S cc-pVDZ              selected for orbital group  2
 Library entry H      P cc-pVDZ              selected for orbital group  2
 Library entry N      S aug-cc-pVDZ          selected for orbital group  3
 Library entry N      P aug-cc-pVDZ          selected for orbital group  3
 Library entry N      D aug-cc-pVDZ          selected for orbital group  3

1PROGRAM * SEWARD (Integral evaluation for generally contracted gaussian basis sets)     Author: Roland Lindh, 1990

 Geometry written to block  1 of record 700


 Point group  C1  



 ATOMIC COORDINATES

 NR  ATOM    CHARGE       X              Y              Z

   1  C       6.00    0.915030171    1.406196721   -2.273978594
   2  C       6.00    0.739269235    2.709952501    0.017534799
   3  C       6.00    0.998235764    1.406581747    2.301523349
   4  C       6.00    1.431365088   -1.200597204    2.293999862
   5  C       6.00    1.607853304   -2.503861467    0.002528593
   6  C       6.00    1.348945210   -1.200267035   -2.281255832
   7  H       1.00    0.706223844    2.410544993   -4.035237291
   8  H       1.00    0.389273698    4.720587626    0.023390898
   9  H       1.00    0.856850900    2.415972918    4.076820616
  10  H       1.00    1.629612653   -2.211698829    4.066397821
  11  H       1.00    1.941343108   -4.523631336   -0.003334871
  12  H       1.00    1.482863487   -2.207425229   -4.052031885
  13  N       7.00   -5.442879559   -0.357084349   -0.070980883
  14  H       1.00   -5.591623496   -1.568468387   -1.551426060
  15  H       1.00   -6.069247066   -1.315267948    1.468723135
  16  H       1.00   -3.562184474   -0.073324319    0.197404022

 Bond lengths in Bohr (Angstrom)

 1-2  2.642291557  1-6  2.642345271  1-7  2.038221708  2-3  2.642431206  2-8  2.040878432
     ( 1.398240471)     ( 1.398268896)     ( 1.078580475)     ( 1.398314371)     ( 1.079986353)

  3- 4  2.642922567   3- 9  2.047080996   4- 5  2.642061015   4-10  2.050127586   5- 6  2.642359389
       ( 1.398574387)       ( 1.083268608)       ( 1.398118474)       ( 1.084880794)       ( 1.398276367)

  5-11  2.047124851   6-12  2.041555672  13-14  1.918669843  13-15  1.918629856  13-16  1.920823838
       ( 1.083291815)       ( 1.080344733)       ( 1.015316352)       ( 1.015295192)       ( 1.016456198)

 Bond angles

  1- 2- 3  119.98067317   1- 2- 8  120.00017314   1- 6- 5  120.02353273   1- 6-12  119.98613444

  2-1-6  120.00199082   2-1-7  119.96358329   2-3-4  120.01167852   2-3-9  119.97429915

  3- 2- 8  120.01747668   3- 4- 5  120.00136331   3- 4-10  119.99378352   4- 3- 9  120.01369060

  4- 5- 6  119.98073352   4- 5-11  120.00333322   5- 4-10  120.00484846   5- 6-12  119.99031829

  6- 1- 7  120.03368598   6- 5-11  120.01581926  14-13-15  106.17607584  14-13-16  106.08043224

 15-13-16  106.33745550

 NUCLEAR CHARGE:                   52
 NUMBER OF PRIMITIVE AOS:         322
 NUMBER OF SYMMETRY AOS:          308
 NUMBER OF CONTRACTIONS:          206   ( 206A   )
 NUMBER OF CORE ORBITALS:           7   (   7A   )
 NUMBER OF VALENCE ORBITALS:       37   (  37A   )


 NUCLEAR REPULSION ENERGY  273.77385726


 Eigenvalues of metric

         1 0.861E-05 0.183E-04 0.227E-04 0.533E-04 0.642E-04 0.643E-04 0.107E-03 0.107E-03


 Contracted 2-electron integrals neglected if value below      1.0D-16
 AO integral compression algorithm  1   Integral accuracy      1.0D-16

     1892.418 MB (compressed) written to integral file ( 94.5%)

     Node minimum: 1892.418 MB, node maximum: 1892.418 MB


 NUMBER OF SORTED TWO-ELECTRON INTEGRALS:  227303181.     BUFFER LENGTH:  32768
 NUMBER OF SEGMENTS:  15  SEGMENT LENGTH:   15999503      RECORD LENGTH: 524288

 Memory used in sort:      16.56 MW

 SORT1 READ   250230724. AND WROTE   226414360. INTEGRALS IN    654 RECORDS. CPU TIME:     2.19 SEC, REAL TIME:     3.70 SEC
 SORT2 READ   226414360. AND WROTE   227303181. INTEGRALS IN   7219 RECORDS. CPU TIME:     1.50 SEC, REAL TIME:     2.34 SEC

 FILE SIZES:   FILE 1:  1743.3 MBYTE,  FILE 4:  2743.1 MBYTE,   TOTAL:   4486.4 MBYTE

 OPERATOR DM      FOR CENTER  0  COORDINATES:    0.000000    0.000000    0.000000


 **********************************************************************************************************************************
 DATASETS  * FILE   NREC   LENGTH (MB)   RECORD NAMES
              1      19     1743.78       500      610      700      900      950      970     1000      129      960     1100   
                                          VAR    BASINP    GEOM    SYMINP    ZMAT    AOBASIS   BASIS     P2S    ABASIS      S 
                                         1400     1410     1200     1210     1080     1600     1650     1300     1700   
                                           T        V       H0       H01     AOSYM     SMH    MOLCAS    ERIS     OPER   

 PROGRAMS   *        TOTAL       INT
 CPU TIMES  *        12.63     12.59
 REAL TIME  *        16.39 SEC
 DISK USED  *         6.38 GB      
 GA USED    *         0.01 MB       (max)       0.00 MB       (current)
 **********************************************************************************************************************************

1PROGRAM * RHF-SCF (CLOSED SHELL)       Authors: W. Meyer, H.-J. Werner


 NUMBER OF ELECTRONS:      26+   26-    SPACE SYMMETRY=1    SPIN SYMMETRY: Singlet 
 CONVERGENCE THRESHOLDS:    1.00E-10 (Density)    1.00E-13 (Energy)
 MAX. NUMBER OF ITERATIONS:      200
 INTERPOLATION TYPE:            DIIS
 INTERPOLATION STEPS:              2 (START)      1 (STEP)
 LEVEL SHIFTS:                  0.00 (CLOSED)  0.00 (OPEN) 



 Orbital guess generated from atomic densities. Full valence occupancy:   44

 Molecular orbital dump at record        2100.2

 ITERATION    DDIFF          GRAD             ENERGY        2-EL.EN.            DIPOLE MOMENTS         DIIS
    1      0.000D+00      0.000D+00      -286.85324281    740.997682    0.52031   -0.77201    0.14338    0
    2      0.000D+00      0.322D-02      -286.92082708    735.217268    0.43473   -0.38248    0.05895    1
    3      0.828D-02      0.133D-02      -286.93014935    737.842737    0.45173   -0.52284    0.09226    2
    4      0.218D-02      0.381D-03      -286.93136791    737.324842    0.45014   -0.49512    0.08284    3
    5      0.784D-03      0.530D-04      -286.93139191    737.312709    0.45602   -0.50546    0.08727    4
    6      0.135D-03      0.180D-04      -286.93139441    737.327787    0.45487   -0.49988    0.08493    5
    7      0.516D-04      0.556D-05      -286.93139469    737.324775    0.45552   -0.50208    0.08574    6
    8      0.151D-04      0.130D-05      -286.93139471    737.323746    0.45567   -0.50174    0.08559    7
    9      0.419D-05      0.544D-06      -286.93139472    737.324203    0.45570   -0.50182    0.08562    7
   10      0.150D-05      0.143D-06      -286.93139472    737.324153    0.45571   -0.50183    0.08562    7
   11      0.517D-06      0.411D-07      -286.93139472    737.324138    0.45572   -0.50183    0.08562    7
   12      0.142D-06      0.175D-07      -286.93139472    737.324152    0.45572   -0.50183    0.08562    8
   13      0.613D-07      0.763D-08      -286.93139472    737.324147    0.45572   -0.50183    0.08562    8
   14      0.339D-07      0.363D-08      -286.93139472    737.324149    0.45572   -0.50183    0.08562    8
   15      0.202D-07      0.138D-08      -286.93139472    737.324148    0.45572   -0.50183    0.08562    8
   16      0.712D-08      0.459D-09      -286.93139472    737.324148    0.45572   -0.50183    0.08562    9
   17      0.213D-08      0.127D-09      -286.93139472    737.324148    0.45572   -0.50183    0.08562    9
   18      0.426D-09      0.389D-10      -286.93139472    737.324148    0.45572   -0.50183    0.08562    9
   19      0.212D-09      0.169D-10      -286.93139472    737.324148    0.45572   -0.50183    0.08562    9
   20      0.258D-09      0.882D-11      -286.93139472    737.324148    0.45572   -0.50183    0.08562    9
   21      0.134D-09      0.419D-11      -286.93139472    737.324148    0.45572   -0.50183    0.08562    9
   22      0.294D-09      0.129D-11      -286.93139472    737.324148    0.45572   -0.50183    0.08562    9
   23      0.170D-09      0.710D-12      -286.93139472    737.324148    0.45572   -0.50183    0.08562    9
   24      0.764D-10      0.596D-12      -286.93139472    737.324148    0.45572   -0.50183    0.08562    9
   25      0.555D-10      0.532D-12      -286.93139472    737.324148    0.45572   -0.50183    0.08562    9
   26      0.426D-10      0.471D-12      -286.93139472    737.324148    0.45572   -0.50183    0.08562    9
   27      0.279D-10      0.458D-12      -286.93139472    737.324148    0.45572   -0.50183    0.08562    9
   28      0.204D-10      0.483D-12      -286.93139472    737.324148    0.45572   -0.50183    0.08562    9
   29      0.252D-10      0.512D-12      -286.93139472    737.324148    0.45572   -0.50183    0.08562    9
   30      0.194D-10      0.484D-12      -286.93139472    737.324148    0.45572   -0.50183    0.08562    9
   31      0.693D-11      0.494D-12      -286.93139472    737.324148    0.45572   -0.50183    0.08562    9
   32      0.132D-10      0.489D-12      -286.93139472    737.324148    0.45572   -0.50183    0.08562    9
   33      0.150D-10      0.498D-12      -286.93139472    737.324148    0.45572   -0.50183    0.08562    9
   34      0.181D-10      0.483D-12      -286.93139472    737.324148    0.45572   -0.50183    0.08562    9
   35      0.131D-10      0.434D-12      -286.93139472    737.324148    0.45572   -0.50183    0.08562    9
   36      0.163D-10      0.524D-12      -286.93139472    737.324148    0.45572   -0.50183    0.08562    0

 Final occupancy:  26

 !RHF STATE 1.1 Energy               -286.931394716080
 Nuclear energy                       273.77385726
 One-electron energy                 -929.36732613
 Two-electron energy                  368.66207415
 Virial quotient                       -1.00139719
 !RHF STATE 1.1 Dipole moment           0.45571753    -0.50182800     0.08562174
 Dipole moment /Debye                   1.15824255    -1.27543600     0.21761450

 Orbital energies:

         1.1          2.1          3.1          4.1          5.1          6.1          7.1          8.1          9.1         10.1
    -15.535005   -11.250509   -11.249751   -11.249310   -11.248620   -11.248224   -11.247332    -1.157503    -1.125561    -1.022221

        11.1         12.1         13.1         14.1         15.1         16.1         17.1         18.1         19.1         20.1
     -1.022116    -0.831019    -0.830917    -0.715096    -0.651337    -0.623843    -0.611677    -0.609821    -0.594011    -0.593891

        21.1         22.1         23.1         24.1         25.1         26.1         27.1         28.1
     -0.504819    -0.500408    -0.500337    -0.413436    -0.342906    -0.341921     0.063901     0.066408


 **********************************************************************************************************************************
 DATASETS  * FILE   NREC   LENGTH (MB)   RECORD NAMES
              1      19     1743.78       500      610      700      900      950      970     1000      129      960     1100   
                                          VAR    BASINP    GEOM    SYMINP    ZMAT    AOBASIS   BASIS     P2S    ABASIS      S 
                                         1400     1410     1200     1210     1080     1600     1650     1300     1700   
                                           T        V       H0       H01     AOSYM     SMH    MOLCAS    ERIS     OPER   

              2       3        1.40       700     1000     2100   
                                         GEOM     BASIS     RHF  

 PROGRAMS   *        TOTAL       RHF       INT
 CPU TIMES  *        66.10     53.46     12.59
 REAL TIME  *        75.69 SEC
 DISK USED  *         6.38 GB      
 GA USED    *         0.01 MB       (max)       0.00 MB       (current)
 **********************************************************************************************************************************


1PROGRAM * CCSD (Closed-shell coupled cluster)     Authors: C. Hampel, H.-J. Werner, 1991, M. Deegan, P.J. Knowles, 1992


 Convergence thresholds:  THRVAR = 1.00D-08  THRDEN = 1.00D-12

 CCSD(T)     terms to be evaluated (factor= 1.000)


 Number of core orbitals:           7 (   7 )
 Number of closed-shell orbitals:  19 (  19 )
 Number of external orbitals:     180 ( 180 )

 Molecular orbitals read from record     2100.2  Type=RHF/CANONICAL (state 1.1)

 Number of N-1 electron functions:              19
 Number of N-2 electron functions:             190
 Number of singly external CSFs:              3420
 Number of doubly external CSFs:           5849910
 Total number of CSFs:                     5853331

 Length of J-op  integral file:               0.00 MB
 Length of K-op  integral file:               2.96 MB
 Length of 3-ext integral record:             0.00 MB

 Memory could be reduced to 140.12 Mwords without degradation in triples

 Integral transformation finished. Total CPU:  10.43 sec, npass=  1  Memory used: 101.90 MW

 Reference energy:                   -286.93139472

 MP2 singlet pair energy:              -0.62044366
 MP2 triplet pair energy:              -0.38977292
 MP2 correlation energy:               -1.01021658
 MP2 total energy:                   -287.94161129

 SCS-MP2 correlation energy:           -0.98705777   (PS=  1.200000  PT=  0.333333)
 SCS-MP2 total energy:               -287.91845248

 ITER.      SQ.NORM     CORR.ENERGY   TOTAL ENERGY   ENERGY CHANGE        DEN1      VAR(S)    VAR(P)  DIIS     TIME
   1      1.38461260    -1.05451460  -287.98590932    -0.04429802    -0.01725169  0.36D-02  0.80D-02  1  1    43.49
   2      1.41407521    -1.06036689  -287.99176161    -0.00585229    -0.02702276  0.63D-04  0.10D-02  2  2    76.92
   3      1.42318285    -1.06046161  -287.99185633    -0.00009472    -0.00463173  0.27D-04  0.84D-04  3  3   110.36
   4      1.42711622    -1.06062997  -287.99202468    -0.00016835    -0.00121230  0.22D-05  0.11D-04  4  4   143.85
   5      1.42832937    -1.06066081  -287.99205553    -0.00003085    -0.00027294  0.27D-06  0.13D-05  5  5   177.35
   6      1.42863141    -1.06065059  -287.99204530     0.00001023    -0.00004336  0.23D-07  0.79D-07  6  6   210.86
   7      1.42867210    -1.06065221  -287.99204693    -0.00000163    -0.00000103  0.35D-08  0.81D-08  6  2   244.38
   8      1.42868127    -1.06065207  -287.99204679     0.00000014    -0.00000117  0.75D-09  0.76D-09  6  1   277.89
   9      1.42868110    -1.06065221  -287.99204692    -0.00000013     0.00000123  0.21D-09  0.92D-10  6  4   311.42
  10      1.42868229    -1.06065222  -287.99204694    -0.00000001    -0.00000018  0.57D-10  0.15D-10  6  3   344.95
  11      1.42868224    -1.06065224  -287.99204695    -0.00000002     0.00000013  0.14D-10  0.37D-11  6  5   378.46
  12      1.42868220    -1.06065224  -287.99204696    -0.00000000     0.00000003  0.15D-11  0.10D-11  6  6   411.98
  13      1.42868202    -1.06065224  -287.99204696    -0.00000000     0.00000006  0.69D-13  0.20D-12  6  2   445.51
  14      1.42868192    -1.06065224  -287.99204696    -0.00000000     0.00000002  0.80D-14  0.40D-13  6  1   479.02
  15      1.42868186    -1.06065224  -287.99204696    -0.00000000     0.00000001  0.89D-15  0.53D-14  6  3   512.54
  16      1.42868184    -1.06065224  -287.99204696    -0.00000000     0.00000000  0.12D-15  0.37D-15  6  4   546.02
  17      1.42868184    -1.06065224  -287.99204696    -0.00000000     0.00000000  0.31D-16  0.44D-16  6  5   579.45
  18      1.42868184    -1.06065224  -287.99204696    -0.00000000     0.00000000  0.82D-17  0.70D-17  6  6   612.86
  19      1.42868184    -1.06065224  -287.99204696    -0.00000000     0.00000000  0.24D-17  0.77D-18  6  2   646.29
  20      1.42868184    -1.06065224  -287.99204696    -0.00000000     0.00000000  0.77D-18  0.19D-18  6  1   679.79
  21      1.42868184    -1.06065224  -287.99204696    -0.00000000     0.00000000  0.29D-18  0.75D-19  6  3   713.33
  22      1.42868184    -1.06065224  -287.99204696    -0.00000000     0.00000000  0.11D-18  0.36D-19  6  4   746.86
  23      1.42868184    -1.06065224  -287.99204696    -0.00000000     0.00000000  0.51D-19  0.20D-19  6  6   780.37

 Norm of t1 vector:      0.08385419      S-energy:    -0.00000000      T1 diagnostic:  0.00961874
                                                                       D1 diagnostic:  0.02620139

 Doubles amplitudes (print threshold =  0.500E-01):

         I         J         SYM. A    SYM. B    A         B      T(IJ, AB)

        18        18         1         1         6         6     -0.05112863
        19        19         1         1         7         7     -0.05455384


 Total CPU time for triples:    679.59 sec


 RESULTS
 =======

  Reference energy                   -286.931394716082
  CCSD singlet pair energy             -0.710900428259
  CCSD triplet pair energy             -0.349751815468
  CCSD correlation energy              -1.060652243727

  Triples (T) contribution             -0.045566219311
  Total correlation energy             -1.106218463038

  CCSD total energy                  -287.992046959809
  CCSD[T] energy                     -288.038482295753
  CCSD-T energy                      -288.037225165749
 !CCSD(T) total energy               -288.037613179119

 Timing summary (sec):

 STEP                 CPU(USER)    SYS     CPU(TOT)    WALL
 Transformation         10.76      0.76     11.52     11.53
 CCSD iterations       769.63     11.54    781.17    782.06
 Triples               679.59     10.39    689.98    690.06

 Program statistics:

 Available memory in ccsd:               999998456
 Min. memory needed in ccsd:              14392275
 Max. memory used in ccsd:                19775697
 Max. memory used in cckext:              16737545 (23 integral passes)



 **********************************************************************************************************************************
 DATASETS  * FILE   NREC   LENGTH (MB)   RECORD NAMES
              1      20     2287.38       500      610      700      900      950      970     1000      129      960     1100   
                                          VAR    BASINP    GEOM    SYMINP    ZMAT    AOBASIS   BASIS     P2S    ABASIS      S 
                                         1400     1410     1200     1210     1080     1600     1650     1300     1700     1380   
                                           T        V       H0       H01     AOSYM     SMH    MOLCAS    ERIS     OPER     JKOP   

              2       3        1.40       700     1000     2100   
                                         GEOM     BASIS     RHF  

 PROGRAMS   *        TOTAL   CCSD(T)       RHF       INT
 CPU TIMES  *      1526.08   1459.99     53.46     12.59
 REAL TIME  *      1559.45 SEC
 DISK USED  *         6.38 GB      
 GA USED    *         0.01 MB       (max)       0.00 MB       (current)
 **********************************************************************************************************************************

        CCSD(T)         RHF-SCF 
   -288.03761318   -286.93139472
 **********************************************************************************************************************************
 Variable memory released
