
 Primary working directories    : /tmp/943417.406.gen6.q
 Secondary working directories  : /tmp/943417.406.gen6.q
 Wavefunction directory         : /home/vulcan/mel64643/wfu/
 Main file repository           : /tmp/943417.406.gen6.q/

 ARCHNAME  : Linux/x86_64
 FC        : /opt/intel/compilers_and_libraries_2016.1.150/linux/bin/intel64/ifort
 FCVERSION : 16.0.1
 BLASLIB   : -mkl
 id        : ccgc

 Nodes     nprocs
 n074         1
 ga_uses_ma=false, calling ma_init with nominal heap.
 GA-space will be limited to   8.0 MW (determined by -G option)

 Using customized tuning parameters: mindgm=10; mindgv=16; mindgc=4; mindgr=1; noblas=0; mincuda=1000; minvec=7
 default implementation of scratch files=df  

 ***,Optimization of nh3_nitrosmethane
 memory,1000,m
 gthresh,energy=1.0d-12,orbital=1.0d-10,oneint=1.0d-16,twoint=1.0d-16,optgrad=1.0d-6,compress=1.0d-13
 geomtyp=xyz
 
 bohr
 geometry = {
  N   -5.2300269860   -0.1859655572   -0.0049962737
  H   -6.3074698831    0.2374747133   -1.5348169545
  H   -3.7552925403    1.0447371894    0.0043030904
  H   -6.2941696723    0.2389158592    1.5337084749
  H   -0.9227925019   -2.4021642261    0.0000608352
  H    1.8856675372   -3.4332779165   -1.6663077924
  H    1.8852850117   -3.4332805495    1.6670723652
  C    1.1378061865   -2.4699328984    0.0002972477
  N    2.2653709655    0.0991646065    0.0004286720
  O    0.6997403725    1.7813857883    0.0002503353
 }
 
 basis=cc-pvdz
 {rhf;maxit,200}
 {ccsd(t);maxit,200}

 Variables initialized (661), CPU time= 0.00 sec
 Commands  initialized (458), CPU time= 0.01 sec, 486 directives.
 Default parameters read. Elapsed time= 0.04 sec

 Checking input...
 Passed
1


                                         ***  PROGRAM SYSTEM MOLPRO  ***
                         Copyright, University College Cardiff Consultants Limited, 2008

                                    Version 2010.1 linked May 16 2016 07:17:05


 **********************************************************************************************************************************
 LABEL *   Optimization of nh3_nitrosmethane                                             
 Linux-4.4.3/n074(x86_64) 64 bit mpp version                                             DATE: 25-Oct-23          TIME: 17:15:03  
 **********************************************************************************************************************************

 SHA1:             9e8077add272b0f3cad6f7df79ec5211205f459d
 **********************************************************************************************************************************

 THRESHOLDS:

 ZERO    =  1.00D-12  ONEINT  =  1.00D-16  TWOINT  =  1.00D-16  PREFAC  =  1.00D-14  LOCALI  =  1.00D-09  EORDER  =  1.00D-04
 ENERGY  =  1.00D-12  ETEST   =  0.00D+00  EDENS   =  0.00D+00  THRDEDEF=  1.00D-06  GRADIENT=  1.00D-02  STEP    =  1.00D-03
 ORBITAL =  1.00D-10  CIVEC   =  1.00D-05  COEFF   =  1.00D-04  PRINTCI =  5.00D-02  PUNCHCI =  9.90D+01  OPTGRAD =  1.00D-06
 OPTENERG=  1.00D-06  OPTSTEP =  3.00D-04  THRGRAD =  1.00D-10  COMPRESS=  1.00D-13  VARMIN  =  1.00D-07  VARMAX  =  1.00D-03
 THRDOUB =  0.00D+00  THRDIV  =  1.00D-05  THRRED  =  1.00D-07  THRPSP  =  1.00D+00  THRDC   =  1.00D-10  THRCS   =  1.00D-10
 THRNRM  =  1.00D-08  THREQ   =  0.00D+00  THRDE   =  1.00D+00  THRREF  =  1.00D-05  SPARFAC =  1.00D+00  THRDLP  =  1.00D-07
 THRDIA  =  1.00D-10  THRDLS  =  1.00D-07  THRGPS  =  0.00D+00  THRKEX  =  0.00D+00  THRDIS  =  2.00D-01  THRVAR  =  1.00D-10
 THRLOC  =  1.00D-06  THRGAP  =  1.00D-06  THRLOCT = -1.00D+00  THRGAPT = -1.00D+00  THRORB  =  1.00D-06  THRMLTP =  0.00D+00
 THRCPQCI=  1.00D-10  KEXTA   =  0.00D+00  THRCOARS=  0.00D+00  SYMTOL  =  1.00D-06  GRADTOL =  1.00D-06  THROVL  =  1.00D-08
 THRORTH =  1.00D-08  GRID    =  1.00D-06  GRIDMAX =  1.00D-03  DTMAX   =  0.00D+00

 SETTING GEOMTYP        =    XYZ
 ZUNIT=BOHR
 

 Variable memory set to 1000000000 words,  buffer space   230000 words

 SETTING BASIS          =    CC-PVDZ


 Recomputing integrals since basis changed


 Using spherical harmonics

 Library entry N      S cc-pVDZ              selected for orbital group  1
 Library entry N      P cc-pVDZ              selected for orbital group  1
 Library entry N      D cc-pVDZ              selected for orbital group  1
 Library entry H      S cc-pVDZ              selected for orbital group  2
 Library entry H      P cc-pVDZ              selected for orbital group  2
 Library entry C      S cc-pVDZ              selected for orbital group  3
 Library entry C      P cc-pVDZ              selected for orbital group  3
 Library entry C      D cc-pVDZ              selected for orbital group  3
 Library entry O      S cc-pVDZ              selected for orbital group  5
 Library entry O      P cc-pVDZ              selected for orbital group  5
 Library entry O      D cc-pVDZ              selected for orbital group  5

1PROGRAM * SEWARD (Integral evaluation for generally contracted gaussian basis sets)     Author: Roland Lindh, 1990

 Geometry written to block  1 of record 700


 Point group  C1  



 ATOMIC COORDINATES

 NR  ATOM    CHARGE       X              Y              Z

   1  N       7.00   -5.230026986   -0.185965557   -0.004996274
   2  H       1.00   -6.307469883    0.237474713   -1.534816955
   3  H       1.00   -3.755292540    1.044737189    0.004303090
   4  H       1.00   -6.294169672    0.238915859    1.533708475
   5  H       1.00   -0.922792502   -2.402164226    0.000060835
   6  H       1.00    1.885667537   -3.433277916   -1.666307792
   7  H       1.00    1.885285012   -3.433280550    1.667072365
   8  C       6.00    1.137806186   -2.469932898    0.000297248
   9  N       7.00    2.265370965    0.099164607    0.000428672
  10  O       8.00    0.699740372    1.781385788    0.000250335

 Bond lengths in Bohr (Angstrom)

 1-2  1.918472354  1-3  1.920822067  1-4  1.918472355  5-8  2.061712784  6-8  2.065164057
     ( 1.015211846)     ( 1.016455261)     ( 1.015211847)     ( 1.091011417)     ( 1.092837752)

  7- 8  2.065164057   8- 9  2.805648648   9-10  2.298057286
       ( 1.092837752)       ( 1.484685321)       ( 1.216079541)

 Bond angles

  2-1-3  107.07540320   2-1-4  106.21038509   3-1-4  106.26512582   5-8-6  112.15889787

  5-8-7  112.15889786   5-8-9  111.81278754   6-8-7  107.61735051   6-8-9  106.35838670

  7- 8- 9  106.35838669   8- 9-10  113.35946297

 NUCLEAR CHARGE:                   34
 NUMBER OF PRIMITIVE AOS:         150
 NUMBER OF SYMMETRY AOS:          146
 NUMBER OF CONTRACTIONS:           86   (  86A   )
 NUMBER OF CORE ORBITALS:           4   (   4A   )
 NUMBER OF VALENCE ORBITALS:       22   (  22A   )


 NUCLEAR REPULSION ENERGY  117.37196696


 Eigenvalues of metric

         1 0.629E-02 0.972E-02 0.151E-01 0.180E-01 0.298E-01 0.370E-01 0.392E-01 0.407E-01


 Contracted 2-electron integrals neglected if value below      1.0D-16
 AO integral compression algorithm  1   Integral accuracy      1.0D-16

     51.905 MB (compressed) written to integral file ( 81.4%)

     Node minimum: 51.905 MB, node maximum: 51.905 MB


 NUMBER OF SORTED TWO-ELECTRON INTEGRALS:    6999411.     BUFFER LENGTH:  32768
 NUMBER OF SEGMENTS:   1  SEGMENT LENGTH:    6999411      RECORD LENGTH: 524288

 Memory used in sort:       7.56 MW

 SORT1 READ     8003884. AND WROTE     6870719. INTEGRALS IN     20 RECORDS. CPU TIME:     0.07 SEC, REAL TIME:     0.11 SEC
 SORT2 READ     6870719. AND WROTE     6999411. INTEGRALS IN    198 RECORDS. CPU TIME:     0.08 SEC, REAL TIME:     0.11 SEC

 FILE SIZES:   FILE 1:    47.9 MBYTE,  FILE 4:    83.9 MBYTE,   TOTAL:    131.8 MBYTE

 OPERATOR DM      FOR CENTER  0  COORDINATES:    0.000000    0.000000    0.000000


 **********************************************************************************************************************************
 DATASETS  * FILE   NREC   LENGTH (MB)   RECORD NAMES
              1      19       48.01       500      610      700      900      950      970     1000      129      960     1100   
                                          VAR    BASINP    GEOM    SYMINP    ZMAT    AOBASIS   BASIS     P2S    ABASIS      S 
                                         1400     1410     1200     1210     1080     1600     1650     1300     1700   
                                           T        V       H0       H01     AOSYM     SMH    MOLCAS    ERIS     OPER   

 PROGRAMS   *        TOTAL       INT
 CPU TIMES  *         0.76      0.72
 REAL TIME  *         1.04 SEC
 DISK USED  *       184.52 MB      
 GA USED    *         0.00 MB       (max)       0.00 MB       (current)
 **********************************************************************************************************************************

1PROGRAM * RHF-SCF (CLOSED SHELL)       Authors: W. Meyer, H.-J. Werner


 NUMBER OF ELECTRONS:      17+   17-    SPACE SYMMETRY=1    SPIN SYMMETRY: Singlet 
 CONVERGENCE THRESHOLDS:    1.00E-10 (Density)    1.00E-13 (Energy)
 MAX. NUMBER OF ITERATIONS:      200
 INTERPOLATION TYPE:            DIIS
 INTERPOLATION STEPS:              2 (START)      1 (STEP)
 LEVEL SHIFTS:                  0.00 (CLOSED)  0.00 (OPEN) 



 Orbital guess generated from atomic densities. Full valence occupancy:   26

 Molecular orbital dump at record        2100.2

 ITERATION    DDIFF          GRAD             ENERGY        2-EL.EN.            DIPOLE MOMENTS         DIIS
    1      0.000D+00      0.000D+00      -224.94598954    393.748248    0.11402   -0.56828    0.00532    0
    2      0.000D+00      0.101D-01      -225.00729318    393.204568   -0.58338   -0.30269    0.00221    1
    3      0.189D-01      0.693D-02      -225.03993895    393.720174   -0.24044   -0.51338    0.00287    2
    4      0.825D-02      0.139D-02      -225.04210140    393.611254   -0.31945   -0.42170    0.00297    3
    5      0.216D-02      0.531D-03      -225.04247825    393.607341   -0.32078   -0.44834    0.00286    4
    6      0.908D-03      0.129D-03      -225.04251478    393.629648   -0.32566   -0.44653    0.00287    5
    7      0.304D-03      0.512D-04      -225.04252058    393.617433   -0.32726   -0.44675    0.00287    6
    8      0.124D-03      0.198D-04      -225.04252144    393.622997   -0.32803   -0.44672    0.00287    7
    9      0.433D-04      0.826D-05      -225.04252161    393.621657   -0.32821   -0.44642    0.00287    8
   10      0.226D-04      0.230D-05      -225.04252162    393.621479   -0.32827   -0.44626    0.00287    8
   11      0.658D-05      0.694D-06      -225.04252162    393.621530   -0.32829   -0.44619    0.00287    8
   12      0.187D-05      0.221D-06      -225.04252162    393.621493   -0.32829   -0.44617    0.00287    8
   13      0.754D-06      0.701D-07      -225.04252162    393.621487   -0.32829   -0.44617    0.00287    8
   14      0.181D-06      0.348D-07      -225.04252162    393.621488   -0.32829   -0.44617    0.00287    8
   15      0.910D-07      0.831D-08      -225.04252162    393.621488   -0.32829   -0.44617    0.00287    8
   16      0.167D-07      0.481D-08      -225.04252162    393.621488   -0.32829   -0.44617    0.00287    8
   17      0.135D-07      0.354D-08      -225.04252162    393.621489   -0.32829   -0.44617    0.00287    8
   18      0.227D-07      0.177D-08      -225.04252162    393.621488   -0.32829   -0.44617    0.00287    8
   19      0.153D-07      0.616D-09      -225.04252162    393.621488   -0.32829   -0.44617    0.00287    9
   20      0.503D-08      0.125D-09      -225.04252162    393.621488   -0.32829   -0.44617    0.00287    9
   21      0.416D-09      0.340D-10      -225.04252162    393.621488   -0.32829   -0.44617    0.00287    9
   22      0.104D-09      0.790D-11      -225.04252162    393.621488   -0.32829   -0.44617    0.00287    8
   23      0.219D-10      0.246D-11      -225.04252162    393.621488   -0.32829   -0.44617    0.00287    0

 Final occupancy:  17

 !RHF STATE 1.1 Energy               -225.042521623110
 Nuclear energy                       117.37196696
 One-electron energy                 -539.22523268
 Two-electron energy                  196.81074410
 Virial quotient                       -1.00156669
 !RHF STATE 1.1 Dipole moment          -0.32829408    -0.44616779     0.00287171
 Dipole moment /Debye                  -0.83438566    -1.13397113     0.00729868

 Orbital energies:

         1.1          2.1          3.1          4.1          5.1          6.1          7.1          8.1          9.1         10.1
    -20.626253   -15.699291   -15.537161   -11.266047    -1.506958    -1.130535    -1.070290    -0.855608    -0.684878    -0.667842

        11.1         12.1         13.1         14.1         15.1         16.1         17.1         18.1         19.1
     -0.631095    -0.615449    -0.613156    -0.550847    -0.527991    -0.420014    -0.398457     0.109326     0.186976


 **********************************************************************************************************************************
 DATASETS  * FILE   NREC   LENGTH (MB)   RECORD NAMES
              1      19       48.01       500      610      700      900      950      970     1000      129      960     1100   
                                          VAR    BASINP    GEOM    SYMINP    ZMAT    AOBASIS   BASIS     P2S    ABASIS      S 
                                         1400     1410     1200     1210     1080     1600     1650     1300     1700   
                                           T        V       H0       H01     AOSYM     SMH    MOLCAS    ERIS     OPER   

              2       3        0.57       700     1000     2100   
                                         GEOM     BASIS     RHF  

 PROGRAMS   *        TOTAL       RHF       INT
 CPU TIMES  *         1.87      1.10      0.72
 REAL TIME  *         2.26 SEC
 DISK USED  *       184.52 MB      
 GA USED    *         0.00 MB       (max)       0.00 MB       (current)
 **********************************************************************************************************************************


1PROGRAM * CCSD (Closed-shell coupled cluster)     Authors: C. Hampel, H.-J. Werner, 1991, M. Deegan, P.J. Knowles, 1992


 Convergence thresholds:  THRVAR = 1.00D-08  THRDEN = 1.00D-12

 CCSD(T)     terms to be evaluated (factor= 1.000)


 Number of core orbitals:           4 (   4 )
 Number of closed-shell orbitals:  13 (  13 )
 Number of external orbitals:      69 (  69 )

 Molecular orbitals read from record     2100.2  Type=RHF/CANONICAL (state 1.1)

 Number of N-1 electron functions:              13
 Number of N-2 electron functions:              91
 Number of singly external CSFs:               897
 Number of doubly external CSFs:            402753
 Total number of CSFs:                      403651

 Length of J-op  integral file:               0.00 MB
 Length of K-op  integral file:               0.54 MB
 Length of 3-ext integral record:             0.00 MB

 Memory could be reduced to 6.46 Mwords without degradation in triples

 Integral transformation finished. Total CPU:   0.25 sec, npass=  1  Memory used:   5.81 MW

 Reference energy:                   -225.04252162

 MP2 singlet pair energy:              -0.42990359
 MP2 triplet pair energy:              -0.25005964
 MP2 correlation energy:               -0.67996323
 MP2 total energy:                   -225.72248486

 SCS-MP2 correlation energy:           -0.67147698   (PS=  1.200000  PT=  0.333333)
 SCS-MP2 total energy:               -225.71399860

 ITER.      SQ.NORM     CORR.ENERGY   TOTAL ENERGY   ENERGY CHANGE        DEN1      VAR(S)    VAR(P)  DIIS     TIME
   1      1.22681215    -0.71575578  -225.75827741    -0.03579255    -0.01323856  0.44D-02  0.46D-02  1  1     0.92
   2      1.24749741    -0.71906632  -225.76158794    -0.00331054    -0.02058612  0.13D-03  0.82D-03  2  2     1.60
   3      1.25646742    -0.71975416  -225.76227579    -0.00068784    -0.00431040  0.10D-03  0.59D-04  3  3     2.29
   4      1.26019275    -0.71974502  -225.76226665     0.00000914    -0.00126837  0.77D-05  0.10D-04  4  4     2.97
   5      1.26162538    -0.71976470  -225.76228633    -0.00001968    -0.00032465  0.14D-05  0.17D-05  5  5     3.65
   6      1.26202522    -0.71973701  -225.76225863     0.00002770    -0.00004716  0.78D-07  0.36D-06  6  6     4.34
   7      1.26211571    -0.71973517  -225.76225679     0.00000184    -0.00000215  0.20D-07  0.96D-07  6  2     5.02
   8      1.26213810    -0.71973524  -225.76225687    -0.00000008     0.00000225  0.86D-08  0.24D-07  6  5     5.70
   9      1.26213330    -0.71973611  -225.76225773    -0.00000087     0.00000163  0.17D-08  0.27D-08  6  1     6.39
  10      1.26213323    -0.71973638  -225.76225800    -0.00000027    -0.00000144  0.39D-09  0.30D-09  6  3     7.08
  11      1.26213172    -0.71973664  -225.76225827    -0.00000027     0.00000088  0.78D-10  0.49D-10  6  4     7.77
  12      1.26213099    -0.71973671  -225.76225833    -0.00000006     0.00000022  0.19D-10  0.11D-10  6  6     8.45
  13      1.26213025    -0.71973674  -225.76225836    -0.00000003     0.00000017  0.37D-11  0.17D-11  6  2     9.14
  14      1.26212988    -0.71973676  -225.76225838    -0.00000002     0.00000012  0.88D-12  0.49D-12  6  1     9.82
  15      1.26212961    -0.71973677  -225.76225839    -0.00000001     0.00000005  0.20D-12  0.83D-13  6  5    10.50
  16      1.26212955    -0.71973677  -225.76225839    -0.00000000     0.00000001  0.12D-12  0.35D-13  6  3    11.18
  17      1.26212951    -0.71973677  -225.76225840    -0.00000000     0.00000001  0.72D-13  0.14D-13  6  4    11.87
  18      1.26212950    -0.71973677  -225.76225840    -0.00000000    -0.00000000  0.43D-13  0.54D-14  6  6    12.55
  19      1.26212950    -0.71973677  -225.76225840     0.00000000    -0.00000000  0.17D-13  0.26D-14  6  2    13.22
  20      1.26212950    -0.71973677  -225.76225840     0.00000000     0.00000000  0.58D-14  0.16D-14  6  1    13.90
  21      1.26212951    -0.71973677  -225.76225840     0.00000000    -0.00000000  0.12D-14  0.81D-15  6  3    14.59
  22      1.26212951    -0.71973677  -225.76225840     0.00000000     0.00000000  0.18D-15  0.20D-15  6  5    15.28
  23      1.26212951    -0.71973677  -225.76225840     0.00000000    -0.00000000  0.51D-16  0.61D-16  6  4    15.96
  24      1.26212951    -0.71973677  -225.76225840    -0.00000000     0.00000000  0.30D-17  0.13D-16  6  6    16.65
  25      1.26212951    -0.71973677  -225.76225840     0.00000000    -0.00000000  0.98D-18  0.36D-17  6  2    17.33
  26      1.26212951    -0.71973677  -225.76225840     0.00000000    -0.00000000  0.17D-18  0.36D-18  6  5    18.01
  27      1.26212951    -0.71973677  -225.76225840    -0.00000000    -0.00000000  0.95D-19  0.64D-19  6  1    18.69
  28      1.26212951    -0.71973677  -225.76225840     0.00000000    -0.00000000  0.19D-19  0.85D-20  6  3    19.38
  29      1.26212951    -0.71973677  -225.76225840     0.00000000    -0.00000000  0.64D-20  0.19D-20  6  4    20.06
  30      1.26212951    -0.71973677  -225.76225840     0.00000000    -0.00000000  0.38D-20  0.75D-21  6  6    20.74
  31      1.26212951    -0.71973677  -225.76225840     0.00000000    -0.00000000  0.14D-20  0.25D-21  6  2    21.43

 Norm of t1 vector:      0.10009205      S-energy:    -0.00000000      T1 diagnostic:  0.01388027
                                                                       D1 diagnostic:  0.05076297

 Doubles amplitudes (print threshold =  0.500E-01):

         I         J         SYM. A    SYM. B    A         B      T(IJ, AB)

         7         7         1         1         1         1     -0.06082785
        11         7         1         1         1         1     -0.06597023
        11        11         1         1         1         1     -0.09635152


 Total CPU time for triples:      6.16 sec


 RESULTS
 =======

  Reference energy                   -225.042521623110
  CCSD singlet pair energy             -0.499052808131
  CCSD triplet pair energy             -0.220683964520
  CCSD correlation energy              -0.719736772652

  Triples (T) contribution             -0.021672169961
  Total correlation energy             -0.741408942612

  CCSD total energy                  -225.762258395762
  CCSD[T] energy                     -225.785305568397
  CCSD-T energy                      -225.783527178137
 !CCSD(T) total energy               -225.783930565723

 Timing summary (sec):

 STEP                 CPU(USER)    SYS     CPU(TOT)    WALL
 Transformation          0.26      0.04      0.30      0.31
 CCSD iterations        21.17      0.70     21.87     21.92
 Triples                 6.16      0.14      6.30      6.31

 Program statistics:

 Available memory in ccsd:               999999224
 Min. memory needed in ccsd:               1143606
 Max. memory used in ccsd:                 1480488
 Max. memory used in cckext:               1471436 (31 integral passes)



 **********************************************************************************************************************************
 DATASETS  * FILE   NREC   LENGTH (MB)   RECORD NAMES
              1      20       73.63       500      610      700      900      950      970     1000      129      960     1100   
                                          VAR    BASINP    GEOM    SYMINP    ZMAT    AOBASIS   BASIS     P2S    ABASIS      S 
                                         1400     1410     1200     1210     1080     1600     1650     1300     1700     1380   
                                           T        V       H0       H01     AOSYM     SMH    MOLCAS    ERIS     OPER     JKOP   

              2       3        0.57       700     1000     2100   
                                         GEOM     BASIS     RHF  

 PROGRAMS   *        TOTAL   CCSD(T)       RHF       INT
 CPU TIMES  *        29.47     27.60      1.10      0.72
 REAL TIME  *        30.83 SEC
 DISK USED  *       197.16 MB      
 GA USED    *         0.00 MB       (max)       0.00 MB       (current)
 **********************************************************************************************************************************

        CCSD(T)         RHF-SCF 
   -225.78393057   -225.04252162
 **********************************************************************************************************************************
 Variable memory released
