
 Primary working directories    : /tmp/917005.86.gen4.q
 Secondary working directories  : /tmp/917005.86.gen4.q
 Wavefunction directory         : /home/vulcan/lo21740/wfu/
 Main file repository           : /tmp/917005.86.gen4.q/

 ARCHNAME  : Linux/x86_64
 FC        : /opt/intel/compilers_and_libraries_2016.1.150/linux/bin/intel64/ifort
 FCVERSION : 16.0.1
 BLASLIB   : -mkl
 id        : ccgc

 Nodes     nprocs
 n033         1
 ga_uses_ma=false, calling ma_init with nominal heap.
 GA-space will be limited to   8.0 MW (determined by -G option)

 Using customized tuning parameters: mindgm=10; mindgv=16; mindgc=4; mindgr=1; noblas=0; mincuda=1000; minvec=7
 default implementation of scratch files=df  

 ***,Optimization of h2o_2
 memory,1000,m
 gthresh,energy=1.0d-12,orbital=1.0d-10,oneint=1.0d-16,twoint=1.0d-16,optgrad=1.0d-6,compress=1.0d-13
 geomtyp=xyz
 
 bohr
 geometry = {
  C    0.0012100783   -3.4196390917    0.0013138160
  H   -0.9724819745   -2.7317455921   -1.6846297483
  H   -0.9677697931   -2.7305244975    1.6772258244
  H    1.9366101232   -2.7292011554    0.0003784877
  H    0.0037671164   -5.4844474680    0.0041167367
  C    0.0009201062    3.4176137348    0.0023741714
  H   -0.0002886813    5.4774251821    0.0019005266
  H    0.9668517565    2.7336881090   -1.6835313374
  H    0.9727958596    2.7344662206    1.6851762286
  H   -1.9416145914    2.7323645582   -0.0043247055
 }
 
 basis=VDZ
 {rhf;maxit,200}
 {ccsd(t);maxit,200}

 Variables initialized (661), CPU time= 0.01 sec
 Commands  initialized (458), CPU time= 0.00 sec, 486 directives.
 Default parameters read. Elapsed time= 0.06 sec

 Checking input...
 Passed
1


                                         ***  PROGRAM SYSTEM MOLPRO  ***
                         Copyright, University College Cardiff Consultants Limited, 2008

                                    Version 2010.1 linked May 16 2016 07:17:05


 **********************************************************************************************************************************
 LABEL *   Optimization of h2o_2                                                         
 Linux-4.4.3/n033(x86_64) 64 bit mpp version                                             DATE: 19-Jul-23          TIME: 16:09:27  
 **********************************************************************************************************************************

 SHA1:             9e8077add272b0f3cad6f7df79ec5211205f459d
 **********************************************************************************************************************************

 THRESHOLDS:

 ZERO    =  1.00D-12  ONEINT  =  1.00D-16  TWOINT  =  1.00D-16  PREFAC  =  1.00D-14  LOCALI  =  1.00D-09  EORDER  =  1.00D-04
 ENERGY  =  1.00D-12  ETEST   =  0.00D+00  EDENS   =  0.00D+00  THRDEDEF=  1.00D-06  GRADIENT=  1.00D-02  STEP    =  1.00D-03
 ORBITAL =  1.00D-10  CIVEC   =  1.00D-05  COEFF   =  1.00D-04  PRINTCI =  5.00D-02  PUNCHCI =  9.90D+01  OPTGRAD =  1.00D-06
 OPTENERG=  1.00D-06  OPTSTEP =  3.00D-04  THRGRAD =  1.00D-10  COMPRESS=  1.00D-13  VARMIN  =  1.00D-07  VARMAX  =  1.00D-03
 THRDOUB =  0.00D+00  THRDIV  =  1.00D-05  THRRED  =  1.00D-07  THRPSP  =  1.00D+00  THRDC   =  1.00D-10  THRCS   =  1.00D-10
 THRNRM  =  1.00D-08  THREQ   =  0.00D+00  THRDE   =  1.00D+00  THRREF  =  1.00D-05  SPARFAC =  1.00D+00  THRDLP  =  1.00D-07
 THRDIA  =  1.00D-10  THRDLS  =  1.00D-07  THRGPS  =  0.00D+00  THRKEX  =  0.00D+00  THRDIS  =  2.00D-01  THRVAR  =  1.00D-10
 THRLOC  =  1.00D-06  THRGAP  =  1.00D-06  THRLOCT = -1.00D+00  THRGAPT = -1.00D+00  THRORB  =  1.00D-06  THRMLTP =  0.00D+00
 THRCPQCI=  1.00D-10  KEXTA   =  0.00D+00  THRCOARS=  0.00D+00  SYMTOL  =  1.00D-06  GRADTOL =  1.00D-06  THROVL  =  1.00D-08
 THRORTH =  1.00D-08  GRID    =  1.00D-06  GRIDMAX =  1.00D-03  DTMAX   =  0.00D+00

 SETTING GEOMTYP        =    XYZ
 ZUNIT=BOHR
 

 Variable memory set to 1000000000 words,  buffer space   230000 words

 SETTING BASIS          =    VDZ


 Recomputing integrals since basis changed


 Using spherical harmonics

 Library entry C      S cc-pVDZ              selected for orbital group  1
 Library entry C      P cc-pVDZ              selected for orbital group  1
 Library entry C      D cc-pVDZ              selected for orbital group  1
 Library entry H      S cc-pVDZ              selected for orbital group  2
 Library entry H      P cc-pVDZ              selected for orbital group  2

1PROGRAM * SEWARD (Integral evaluation for generally contracted gaussian basis sets)     Author: Roland Lindh, 1990

 Geometry written to block  1 of record 700


 Point group  C1  



 ATOMIC COORDINATES

 NR  ATOM    CHARGE       X              Y              Z

   1  C       6.00    0.001210078   -3.419639092    0.001313816
   2  H       1.00   -0.972481974   -2.731745592   -1.684629748
   3  H       1.00   -0.967769793   -2.730524497    1.677225824
   4  H       1.00    1.936610123   -2.729201155    0.000378488
   5  H       1.00    0.003767116   -5.484447468    0.004116737
   6  C       6.00    0.000920106    3.417613735    0.002374171
   7  H       1.00   -0.000288681    5.477425182    0.001900527
   8  H       1.00    0.966851756    2.733688109   -1.683531337
   9  H       1.00    0.972795860    2.734466221    1.685176229
  10  H       1.00   -1.941614591    2.732364558   -0.004324705

 Bond lengths in Bohr (Angstrom)

 1-2  2.064867885  1-3  2.054867873  1-4  2.054867089  1-5  2.064811862  6-7  2.059811856
     ( 1.092681024)     ( 1.087389246)     ( 1.087388831)     ( 1.092651378)     ( 1.090005489)

  6- 8  2.059867860   6- 9  2.059867901   6-10  2.059867073
       ( 1.090035125)       ( 1.090035147)       ( 1.090034709)

 Bond angles

  2-1-3  109.37992603   2-1-4  109.37980988   2-1-5  109.56240831   3-1-4  109.37981046

  3-1-5  109.56240760   4-1-5  109.56250004   7-6-8  109.39695182   7-6-9  109.39695131

  7- 6-10  109.39704391   8- 6- 9  109.71066666   8- 6-10  109.21435183   9- 6-10  109.71055068

 NUCLEAR CHARGE:                   20
 NUMBER OF PRIMITIVE AOS:         110
 NUMBER OF SYMMETRY AOS:          108
 NUMBER OF CONTRACTIONS:           68   (  68A   )
 NUMBER OF CORE ORBITALS:           2   (   2A   )
 NUMBER OF VALENCE ORBITALS:       16   (  16A   )


 NUCLEAR REPULSION ENERGY   41.35000737


 Eigenvalues of metric

         1 0.113E-01 0.127E-01 0.347E-01 0.349E-01 0.356E-01 0.376E-01 0.382E-01 0.384E-01


 Contracted 2-electron integrals neglected if value below      1.0D-16
 AO integral compression algorithm  1   Integral accuracy      1.0D-16

     21.496 MB (compressed) written to integral file ( 87.6%)

     Node minimum: 21.496 MB, node maximum: 21.496 MB


 NUMBER OF SORTED TWO-ELECTRON INTEGRALS:    2753031.     BUFFER LENGTH:  32768
 NUMBER OF SEGMENTS:   1  SEGMENT LENGTH:    2753031      RECORD LENGTH: 524288

 Memory used in sort:       3.31 MW

 SORT1 READ     3104305. AND WROTE     2685904. INTEGRALS IN      8 RECORDS. CPU TIME:     0.03 SEC, REAL TIME:     0.05 SEC
 SORT2 READ     2685904. AND WROTE     2753031. INTEGRALS IN     82 RECORDS. CPU TIME:     0.05 SEC, REAL TIME:     0.07 SEC

 FILE SIZES:   FILE 1:    21.5 MBYTE,  FILE 4:    33.6 MBYTE,   TOTAL:     55.1 MBYTE

 OPERATOR DM      FOR CENTER  0  COORDINATES:    0.000000    0.000000    0.000000


 **********************************************************************************************************************************
 DATASETS  * FILE   NREC   LENGTH (MB)   RECORD NAMES
              1      19       21.55       500      610      700      900      950      970     1000      129      960     1100   
                                          VAR    BASINP    GEOM    SYMINP    ZMAT    AOBASIS   BASIS     P2S    ABASIS      S 
                                         1400     1410     1200     1210     1080     1600     1650     1300     1700   
                                           T        V       H0       H01     AOSYM     SMH    MOLCAS    ERIS     OPER   

 PROGRAMS   *        TOTAL       INT
 CPU TIMES  *         0.62      0.56
 REAL TIME  *         0.84 SEC
 DISK USED  *        77.35 MB      
 GA USED    *         0.00 MB       (max)       0.00 MB       (current)
 **********************************************************************************************************************************

1PROGRAM * RHF-SCF (CLOSED SHELL)       Authors: W. Meyer, H.-J. Werner


 NUMBER OF ELECTRONS:      10+   10-    SPACE SYMMETRY=1    SPIN SYMMETRY: Singlet 
 CONVERGENCE THRESHOLDS:    1.00E-10 (Density)    1.00E-13 (Energy)
 MAX. NUMBER OF ITERATIONS:      200
 INTERPOLATION TYPE:            DIIS
 INTERPOLATION STEPS:              2 (START)      1 (STEP)
 LEVEL SHIFTS:                  0.00 (CLOSED)  0.00 (OPEN) 



 Orbital guess generated from atomic densities. Full valence occupancy:   18

 Molecular orbital dump at record        2100.2

 ITERATION    DDIFF          GRAD             ENERGY        2-EL.EN.            DIPOLE MOMENTS         DIIS
    1      0.000D+00      0.000D+00       -80.35959434    134.847597   -0.00223    0.00113   -0.00387    0
    2      0.000D+00      0.637D-02       -80.39227025    132.566006    0.00022    0.00195    0.00039    1
    3      0.132D-01      0.234D-02       -80.39613305    133.367773    0.00012    0.00221    0.00020    2
    4      0.460D-02      0.630D-03       -80.39666178    133.230814    0.00038    0.00235    0.00065    3
    5      0.165D-02      0.664D-04       -80.39666630    133.236823    0.00041    0.00238    0.00071    4
    6      0.233D-03      0.393D-05       -80.39666632    133.236687    0.00041    0.00238    0.00071    5
    7      0.205D-04      0.239D-06       -80.39666632    133.236683    0.00041    0.00238    0.00071    5
    8      0.763D-06      0.409D-07       -80.39666632    133.236685    0.00041    0.00238    0.00071    4
    9      0.104D-06      0.111D-07       -80.39666632    133.236685    0.00041    0.00238    0.00072    4
   10      0.367D-07      0.252D-08       -80.39666632    133.236686    0.00041    0.00238    0.00072    5
   11      0.861D-08      0.363D-09       -80.39666632    133.236686    0.00041    0.00238    0.00072    5
   12      0.894D-09      0.106D-09       -80.39666632    133.236686    0.00041    0.00238    0.00072    6
   13      0.296D-09      0.271D-10       -80.39666632    133.236686    0.00041    0.00238    0.00072    6
   14      0.820D-10      0.431D-11       -80.39666632    133.236686    0.00041    0.00238    0.00072    6
   15      0.172D-10      0.820D-12       -80.39666632    133.236686    0.00041    0.00238    0.00072    6
   16      0.180D-11      0.224D-12       -80.39666632    133.236686    0.00041    0.00238    0.00072    0

 Final occupancy:  10

 !RHF STATE 1.1 Energy                -80.396666323579
 Nuclear energy                        41.35000737
 One-electron energy                 -188.36501650
 Two-electron energy                   66.61834281
 Virial quotient                       -1.00229759
 !RHF STATE 1.1 Dipole moment           0.00041193     0.00238208     0.00071515
 Dipole moment /Debye                   0.00104696     0.00605424     0.00181762

 Orbital energies:

         1.1          2.1          3.1          4.1          5.1          6.1          7.1          8.1          9.1         10.1
    -11.215330   -11.215255    -0.944268    -0.938373    -0.549109    -0.545759    -0.545665    -0.538293    -0.538259    -0.533854

        11.1         12.1
      0.172485     0.229251


 **********************************************************************************************************************************
 DATASETS  * FILE   NREC   LENGTH (MB)   RECORD NAMES
              1      19       21.55       500      610      700      900      950      970     1000      129      960     1100   
                                          VAR    BASINP    GEOM    SYMINP    ZMAT    AOBASIS   BASIS     P2S    ABASIS      S 
                                         1400     1410     1200     1210     1080     1600     1650     1300     1700   
                                           T        V       H0       H01     AOSYM     SMH    MOLCAS    ERIS     OPER   

              2       3        0.51       700     1000     2100   
                                         GEOM     BASIS     RHF  

 PROGRAMS   *        TOTAL       RHF       INT
 CPU TIMES  *         1.00      0.38      0.56
 REAL TIME  *         1.27 SEC
 DISK USED  *        77.35 MB      
 GA USED    *         0.00 MB       (max)       0.00 MB       (current)
 **********************************************************************************************************************************


1PROGRAM * CCSD (Closed-shell coupled cluster)     Authors: C. Hampel, H.-J. Werner, 1991, M. Deegan, P.J. Knowles, 1992


 Convergence thresholds:  THRVAR = 1.00D-08  THRDEN = 1.00D-12

 CCSD(T)     terms to be evaluated (factor= 1.000)


 Number of core orbitals:           2 (   2 )
 Number of closed-shell orbitals:   8 (   8 )
 Number of external orbitals:      58 (  58 )

 Molecular orbitals read from record     2100.2  Type=RHF/CANONICAL (state 1.1)

 Number of N-1 electron functions:               8
 Number of N-2 electron functions:              36
 Number of singly external CSFs:               464
 Number of doubly external CSFs:            107880
 Total number of CSFs:                      108345

 Length of J-op  integral file:               0.00 MB
 Length of K-op  integral file:               0.35 MB
 Length of 3-ext integral record:             0.00 MB

 Memory could be reduced to 2.66 Mwords without degradation in triples

 Integral transformation finished. Total CPU:   0.10 sec, npass=  1  Memory used:   1.86 MW

 Reference energy:                    -80.39666632

 MP2 singlet pair energy:              -0.23207903
 MP2 triplet pair energy:              -0.09155047
 MP2 correlation energy:               -0.32362951
 MP2 total energy:                    -80.72029583

 SCS-MP2 correlation energy:           -0.33545958   (PS=  1.200000  PT=  0.333333)
 SCS-MP2 total energy:                -80.73212590

 ITER.      SQ.NORM     CORR.ENERGY   TOTAL ENERGY   ENERGY CHANGE        DEN1      VAR(S)    VAR(P)  DIIS     TIME
   1      1.13421100    -0.36753087   -80.76419719    -0.04390136    -0.03297740  0.50D-03  0.24D-02  1  1     0.28
   2      1.14682075    -0.37032826   -80.76699459    -0.00279740    -0.01276618  0.15D-04  0.96D-04  2  2     0.48
   3      1.14861196    -0.37049931   -80.76716564    -0.00017105    -0.00095443  0.17D-05  0.56D-05  3  3     0.67
   4      1.14897960    -0.37051962   -80.76718594    -0.00002031    -0.00016573  0.25D-07  0.35D-06  4  4     0.86
   5      1.14902555    -0.37051714   -80.76718346     0.00000248    -0.00002393  0.18D-08  0.18D-07  5  5     1.06
   6      1.14902687    -0.37051708   -80.76718340     0.00000006    -0.00000012  0.19D-09  0.12D-08  6  6     1.25
   7      1.14902697    -0.37051734   -80.76718367    -0.00000026     0.00000013  0.13D-10  0.72D-10  6  1     1.44
   8      1.14902714    -0.37051734   -80.76718366     0.00000001    -0.00000013  0.15D-11  0.41D-11  6  2     1.63
   9      1.14902717    -0.37051732   -80.76718365     0.00000001    -0.00000003  0.15D-12  0.26D-12  6  3     1.82
  10      1.14902716    -0.37051732   -80.76718365     0.00000000     0.00000001  0.11D-13  0.23D-13  6  4     2.02
  11      1.14902715    -0.37051732   -80.76718365    -0.00000000     0.00000001  0.80D-15  0.19D-14  6  5     2.21
  12      1.14902715    -0.37051732   -80.76718365    -0.00000000     0.00000000  0.43D-16  0.23D-15  6  6     2.40
  13      1.14902715    -0.37051732   -80.76718365    -0.00000000     0.00000000  0.33D-17  0.28D-16  6  1     2.59
  14      1.14902715    -0.37051732   -80.76718365     0.00000000     0.00000000  0.58D-18  0.37D-17  6  2     2.79
  15      1.14902715    -0.37051732   -80.76718365     0.00000000     0.00000000  0.71D-19  0.37D-18  6  3     2.98
  16      1.14902715    -0.37051732   -80.76718365    -0.00000000     0.00000000  0.15D-20  0.20D-19  6  5     3.17
  17      1.14902715    -0.37051732   -80.76718365    -0.00000000     0.00000000  0.18D-21  0.56D-21  6  4     3.37
  18      1.14902715    -0.37051732   -80.76718365     0.00000000    -0.00000000  0.45D-22  0.51D-22  6  6     3.55

 Norm of t1 vector:      0.03062880      S-energy:     0.00000000      T1 diagnostic:  0.00541446
                                                                       D1 diagnostic:  0.00881255


 Total CPU time for triples:      1.33 sec


 RESULTS
 =======

  Reference energy                    -80.396666323579
  CCSD singlet pair energy             -0.281842569799
  CCSD triplet pair energy             -0.088674752422
  CCSD correlation energy              -0.370517322221

  Triples (T) contribution             -0.007535936646
  Total correlation energy             -0.378053258867

  CCSD total energy                   -80.767183645800
  CCSD[T] energy                      -80.774895791607
  CCSD-T energy                       -80.774625133462
 !CCSD(T) total energy                -80.774719582446

 Timing summary (sec):

 STEP                 CPU(USER)    SYS     CPU(TOT)    WALL
 Transformation          0.11      0.01      0.12      0.12
 CCSD iterations         3.45      0.14      3.59      3.62
 Triples                 1.33      0.01      1.34      1.35

 Program statistics:

 Available memory in ccsd:               999999644
 Min. memory needed in ccsd:                356281
 Max. memory used in ccsd:                  442401
 Max. memory used in cckext:                403930 (18 integral passes)



 **********************************************************************************************************************************
 DATASETS  * FILE   NREC   LENGTH (MB)   RECORD NAMES
              1      20       30.01       500      610      700      900      950      970     1000      129      960     1100   
                                          VAR    BASINP    GEOM    SYMINP    ZMAT    AOBASIS   BASIS     P2S    ABASIS      S 
                                         1400     1410     1200     1210     1080     1600     1650     1300     1700     1380   
                                           T        V       H0       H01     AOSYM     SMH    MOLCAS    ERIS     OPER     JKOP   

              2       3        0.51       700     1000     2100   
                                         GEOM     BASIS     RHF  

 PROGRAMS   *        TOTAL   CCSD(T)       RHF       INT
 CPU TIMES  *         5.90      4.90      0.38      0.56
 REAL TIME  *         6.38 SEC
 DISK USED  *        77.35 MB      
 GA USED    *         0.00 MB       (max)       0.00 MB       (current)
 **********************************************************************************************************************************

        CCSD(T)         RHF-SCF 
    -80.77471958    -80.39666632
 **********************************************************************************************************************************
 Variable memory released
