
 Primary working directories    : /tmp/985636.708.gen4.q
 Secondary working directories  : /tmp/985636.708.gen4.q
 Wavefunction directory         : /home/vulcan/jj04645/wfu/
 Main file repository           : /tmp/985636.708.gen4.q/

 ARCHNAME  : Linux/x86_64
 FC        : /opt/intel/compilers_and_libraries_2016.1.150/linux/bin/intel64/ifort
 FCVERSION : 16.0.1
 BLASLIB   : -mkl
 id        : ccgc

 Nodes     nprocs
 n021         1
 ga_uses_ma=false, calling ma_init with nominal heap.
 GA-space will be limited to   8.0 MW (determined by -G option)

 Using customized tuning parameters: mindgm=10; mindgv=16; mindgc=4; mindgr=1; noblas=0; mincuda=1000; minvec=7
 default implementation of scratch files=df  

 ***,Optimization of tetrahydrothiopyran
 memory,1000,m
 gthresh,energy=1.0d-12,orbital=1.0d-10,oneint=1.0d-16,twoint=1.0d-16,optgrad=1.0d-6,compress=1.0d-13
 geomtyp=xyz
 
 bohr
 geometry = {
  S    0.3494360161    2.6992322170   -0.0003792938
  C   -0.3258561619   -3.3666784266   -0.0005638155
  C   -0.6628270662    0.6672827579   -2.5818545715
  C   -0.6640583084    0.6672627937    2.5805971256
  C    0.4750250753   -1.9819858490   -2.4142701756
  C    0.4738736459   -1.9820045183    2.4135349988
  H   -2.7339492748    0.5664011749   -2.5861841727
  H   -2.7251942010    0.5668676913    2.5839219144
  H   -0.0758099315    1.6208204085   -4.3078943665
  H   -0.0750154070    1.6254216190    4.3153147845
  H    2.5369035011   -1.8343669243   -2.4806760712
  H    2.5357201614   -1.8343861094    2.4809255397
  H   -0.1231789261   -3.0756055804   -4.0660970757
  H   -0.1251181996   -3.0756370288    4.0650679090
  H    0.4515559508   -5.2808810534   -0.0003858053
  H   -2.3902418906   -3.5615645889   -0.0010569242
 }
 
 basis=VDZ
 {rhf;maxit,200}
 {ccsd(t);maxit,200}

 Variables initialized (661), CPU time= 0.00 sec
 Commands  initialized (458), CPU time= 0.01 sec, 486 directives.
 Default parameters read. Elapsed time= 0.08 sec

 Checking input...
 Passed
1


                                         ***  PROGRAM SYSTEM MOLPRO  ***
                         Copyright, University College Cardiff Consultants Limited, 2008

                                    Version 2010.1 linked May 16 2016 07:17:05


 **********************************************************************************************************************************
 LABEL *   Optimization of tetrahydrothiopyran                                           
 Linux-4.4.3/n021(x86_64) 64 bit mpp version                                             DATE: 26-Jan-24          TIME: 14:20:46  
 **********************************************************************************************************************************

 SHA1:             9e8077add272b0f3cad6f7df79ec5211205f459d
 **********************************************************************************************************************************

 THRESHOLDS:

 ZERO    =  1.00D-12  ONEINT  =  1.00D-16  TWOINT  =  1.00D-16  PREFAC  =  1.00D-14  LOCALI  =  1.00D-09  EORDER  =  1.00D-04
 ENERGY  =  1.00D-12  ETEST   =  0.00D+00  EDENS   =  0.00D+00  THRDEDEF=  1.00D-06  GRADIENT=  1.00D-02  STEP    =  1.00D-03
 ORBITAL =  1.00D-10  CIVEC   =  1.00D-05  COEFF   =  1.00D-04  PRINTCI =  5.00D-02  PUNCHCI =  9.90D+01  OPTGRAD =  1.00D-06
 OPTENERG=  1.00D-06  OPTSTEP =  3.00D-04  THRGRAD =  1.00D-10  COMPRESS=  1.00D-13  VARMIN  =  1.00D-07  VARMAX  =  1.00D-03
 THRDOUB =  0.00D+00  THRDIV  =  1.00D-05  THRRED  =  1.00D-07  THRPSP  =  1.00D+00  THRDC   =  1.00D-10  THRCS   =  1.00D-10
 THRNRM  =  1.00D-08  THREQ   =  0.00D+00  THRDE   =  1.00D+00  THRREF  =  1.00D-05  SPARFAC =  1.00D+00  THRDLP  =  1.00D-07
 THRDIA  =  1.00D-10  THRDLS  =  1.00D-07  THRGPS  =  0.00D+00  THRKEX  =  0.00D+00  THRDIS  =  2.00D-01  THRVAR  =  1.00D-10
 THRLOC  =  1.00D-06  THRGAP  =  1.00D-06  THRLOCT = -1.00D+00  THRGAPT = -1.00D+00  THRORB  =  1.00D-06  THRMLTP =  0.00D+00
 THRCPQCI=  1.00D-10  KEXTA   =  0.00D+00  THRCOARS=  0.00D+00  SYMTOL  =  1.00D-06  GRADTOL =  1.00D-06  THROVL  =  1.00D-08
 THRORTH =  1.00D-08  GRID    =  1.00D-06  GRIDMAX =  1.00D-03  DTMAX   =  0.00D+00

 SETTING GEOMTYP        =    XYZ
 ZUNIT=BOHR
 

 Variable memory set to 1000000000 words,  buffer space   230000 words

 SETTING BASIS          =    VDZ


 Recomputing integrals since basis changed


 Using spherical harmonics

 Library entry S      S cc-pVDZ              selected for orbital group  1
 Library entry S      P cc-pVDZ              selected for orbital group  1
 Library entry S      D cc-pVDZ              selected for orbital group  1
 Library entry C      S cc-pVDZ              selected for orbital group  2
 Library entry C      P cc-pVDZ              selected for orbital group  2
 Library entry C      D cc-pVDZ              selected for orbital group  2
 Library entry H      S cc-pVDZ              selected for orbital group  3
 Library entry H      P cc-pVDZ              selected for orbital group  3

1PROGRAM * SEWARD (Integral evaluation for generally contracted gaussian basis sets)     Author: Roland Lindh, 1990

 Geometry written to block  1 of record 700


 Point group  C1  



 ATOMIC COORDINATES

 NR  ATOM    CHARGE       X              Y              Z

   1  S      16.00    0.349436016    2.699232217   -0.000379294
   2  C       6.00   -0.325856162   -3.366678427   -0.000563816
   3  C       6.00   -0.662827066    0.667282758   -2.581854572
   4  C       6.00   -0.664058308    0.667262794    2.580597126
   5  C       6.00    0.475025075   -1.981985849   -2.414270176
   6  C       6.00    0.473873646   -1.982004518    2.413534999
   7  H       1.00   -2.733949275    0.566401175   -2.586184173
   8  H       1.00   -2.725194201    0.566867691    2.583921914
   9  H       1.00   -0.075809931    1.620820408   -4.307894367
  10  H       1.00   -0.075015407    1.625421619    4.315314784
  11  H       1.00    2.536903501   -1.834366924   -2.480676071
  12  H       1.00    2.535720161   -1.834386109    2.480925540
  13  H       1.00   -0.123178926   -3.075605580   -4.066097076
  14  H       1.00   -0.125118200   -3.075637029    4.065067909
  15  H       1.00    0.451555951   -5.280881053   -0.000385805
  16  H       1.00   -2.390241891   -3.561564589   -0.001056924

 Bond lengths in Bohr (Angstrom)

  1- 3  3.437660507   1- 4  3.437660507   2- 5  2.895645469   2- 6  2.895645469   2-15  2.066044850
       ( 1.819131593)       ( 1.819131593)       ( 1.532309588)       ( 1.532309588)       ( 1.093303847)

  2-16  2.073564394   3- 5  2.888150996   3- 7  2.073582176   3- 9  2.057434456   4- 6  2.888150996
       ( 1.097283019)       ( 1.528343683)       ( 1.097292429)       ( 1.088747423)       ( 1.528343683)

  4- 8  2.063582176   4-10  2.067434456   5-11  2.068222361   5-13  2.069392242   6-12  2.068222361
       ( 1.092000657)       ( 1.094039195)       ( 1.094456136)       ( 1.095075211)       ( 1.094456136)

  6-14  2.069392242
       ( 1.095075211)

 Bond angles

  1-3-5  112.49558652   1-3-7  108.93154194   1-3-9  105.78484479   1-4-6  112.49558629

  1- 4- 8  108.93154199   1- 4-10  105.78484485   2- 5- 3  112.21281657   2- 5-11  109.67156735

  2- 5-13  109.43267512   2- 6- 4  112.21281683   2- 6-12  109.67156730   2- 6-14  109.43267507

  3- 1- 4   97.33107658   3- 5-11  108.99161290   3- 5-13  108.93892948   4- 6-12  108.99161285

  4- 6-14  108.93892942   5- 2- 6  112.94731563   5- 2-15  109.81920002   5- 2-16  108.66913593

  5- 3- 7  110.42612580   5- 3- 9  111.18611335   6- 2-15  109.81920002   6- 2-16  108.66913593

  6- 4- 8  110.42612584   6- 4-10  111.18611340   7- 3- 9  107.80465583   8- 4-10  107.80465588

 11- 5-13  107.47420334  12- 6-14  107.47420328  15- 2-16  106.71050540

 NUCLEAR CHARGE:                   56
 NUMBER OF PRIMITIVE AOS:         247
 NUMBER OF SYMMETRY AOS:          241
 NUMBER OF CONTRACTIONS:          138   ( 138A   )
 NUMBER OF CORE ORBITALS:          10   (  10A   )
 NUMBER OF VALENCE ORBITALS:       34   (  34A   )


 NUCLEAR REPULSION ENERGY  312.13874169


 Eigenvalues of metric

         1 0.286E-02 0.305E-02 0.426E-02 0.634E-02 0.704E-02 0.151E-01 0.157E-01 0.196E-01


 Contracted 2-electron integrals neglected if value below      1.0D-16
 AO integral compression algorithm  1   Integral accuracy      1.0D-16

     373.817 MB (compressed) written to integral file ( 94.1%)

     Node minimum: 373.817 MB, node maximum: 373.817 MB


 NUMBER OF SORTED TWO-ELECTRON INTEGRALS:   45998436.     BUFFER LENGTH:  32768
 NUMBER OF SEGMENTS:   3  SEGMENT LENGTH:   15998004      RECORD LENGTH: 524288

 Memory used in sort:      16.56 MW

 SORT1 READ    49670056. AND WROTE    45791563. INTEGRALS IN    132 RECORDS. CPU TIME:     0.53 SEC, REAL TIME:     0.80 SEC
 SORT2 READ    45791563. AND WROTE    45998436. INTEGRALS IN   1426 RECORDS. CPU TIME:     0.40 SEC, REAL TIME:     0.58 SEC

 FILE SIZES:   FILE 1:   349.3 MBYTE,  FILE 4:   553.7 MBYTE,   TOTAL:    903.0 MBYTE

 OPERATOR DM      FOR CENTER  0  COORDINATES:    0.000000    0.000000    0.000000


 **********************************************************************************************************************************
 DATASETS  * FILE   NREC   LENGTH (MB)   RECORD NAMES
              1      19      349.53       500      610      700      900      950      970     1000      129      960     1100   
                                          VAR    BASINP    GEOM    SYMINP    ZMAT    AOBASIS   BASIS     P2S    ABASIS      S 
                                         1400     1410     1200     1210     1080     1600     1650     1300     1700   
                                           T        V       H0       H01     AOSYM     SMH    MOLCAS    ERIS     OPER   

 PROGRAMS   *        TOTAL       INT
 CPU TIMES  *         5.80      5.74
 REAL TIME  *         6.67 SEC
 DISK USED  *         1.28 GB      
 GA USED    *         0.01 MB       (max)       0.00 MB       (current)
 **********************************************************************************************************************************

1PROGRAM * RHF-SCF (CLOSED SHELL)       Authors: W. Meyer, H.-J. Werner


 NUMBER OF ELECTRONS:      28+   28-    SPACE SYMMETRY=1    SPIN SYMMETRY: Singlet 
 CONVERGENCE THRESHOLDS:    1.00E-10 (Density)    1.00E-13 (Energy)
 MAX. NUMBER OF ITERATIONS:      200
 INTERPOLATION TYPE:            DIIS
 INTERPOLATION STEPS:              2 (START)      1 (STEP)
 LEVEL SHIFTS:                  0.00 (CLOSED)  0.00 (OPEN) 



 Orbital guess generated from atomic densities. Full valence occupancy:   44

 Molecular orbital dump at record        2100.2

 ITERATION    DDIFF          GRAD             ENERGY        2-EL.EN.            DIPOLE MOMENTS         DIIS
    1      0.000D+00      0.000D+00      -592.64383012   1056.840549   -0.40982   -0.80320    0.00199    0
    2      0.000D+00      0.396D-02      -592.70486823   1054.258434   -0.20718   -0.73891   -0.00052    1
    3      0.778D-02      0.132D-02      -592.71080775   1055.692011   -0.28064   -0.67630   -0.00048    2
    4      0.269D-02      0.540D-03      -592.71181770   1055.074654   -0.25293   -0.70947   -0.00074    3
    5      0.931D-03      0.773D-04      -592.71184340   1055.137584   -0.24906   -0.70101   -0.00075    4
    6      0.180D-03      0.267D-04      -592.71184591   1055.106669   -0.25078   -0.70130   -0.00076    5
    7      0.503D-04      0.620D-05      -592.71184612   1055.109846   -0.25012   -0.70118   -0.00076    6
    8      0.164D-04      0.174D-05      -592.71184614   1055.108985   -0.25010   -0.70104   -0.00076    7
    9      0.538D-05      0.454D-06      -592.71184614   1055.108867   -0.25009   -0.70100   -0.00076    7
   10      0.127D-05      0.162D-06      -592.71184614   1055.108905   -0.25008   -0.70100   -0.00076    7
   11      0.482D-06      0.343D-07      -592.71184614   1055.108891   -0.25008   -0.70100   -0.00076    7
   12      0.114D-06      0.690D-08      -592.71184614   1055.108896   -0.25008   -0.70099   -0.00076    7
   13      0.183D-07      0.289D-08      -592.71184614   1055.108894   -0.25008   -0.70099   -0.00076    7
   14      0.634D-08      0.850D-09      -592.71184614   1055.108894   -0.25008   -0.70099   -0.00076    7
   15      0.227D-08      0.278D-09      -592.71184614   1055.108894   -0.25008   -0.70099   -0.00076    7
   16      0.669D-09      0.888D-10      -592.71184614   1055.108894   -0.25008   -0.70099   -0.00076    8
   17      0.216D-09      0.223D-10      -592.71184614   1055.108894   -0.25008   -0.70099   -0.00076    7
   18      0.606D-10      0.849D-11      -592.71184614   1055.108894   -0.25008   -0.70099   -0.00076    7
   19      0.278D-10      0.286D-11      -592.71184614   1055.108894   -0.25008   -0.70099   -0.00076    0

 Final occupancy:  28

 !RHF STATE 1.1 Energy               -592.711846143251
 Nuclear energy                       312.13874169
 One-electron energy                -1432.40503493
 Two-electron energy                  527.55444710
 Virial quotient                       -1.00019590
 !RHF STATE 1.1 Dipole moment          -0.25007875    -0.70099480    -0.00075911
 Dipole moment /Debye                  -0.63559514    -1.78163435    -0.00192934

 Orbital energies:

         1.1          2.1          3.1          4.1          5.1          6.1          7.1          8.1          9.1         10.1
    -91.929804   -11.255054   -11.255034   -11.231041   -11.230953   -11.229138    -8.933693    -6.615588    -6.614155    -6.611954

        11.1         12.1         13.1         14.1         15.1         16.1         17.1         18.1         19.1         20.1
     -1.119613    -1.019993    -1.006478    -0.842420    -0.835831    -0.755814    -0.646828    -0.614476    -0.609507    -0.578367

        21.1         22.1         23.1         24.1         25.1         26.1         27.1         28.1         29.1         30.1
     -0.547046    -0.523628    -0.497847    -0.496135    -0.472490    -0.434675    -0.411769    -0.328739     0.176993     0.190262


 **********************************************************************************************************************************
 DATASETS  * FILE   NREC   LENGTH (MB)   RECORD NAMES
              1      19      349.53       500      610      700      900      950      970     1000      129      960     1100   
                                          VAR    BASINP    GEOM    SYMINP    ZMAT    AOBASIS   BASIS     P2S    ABASIS      S 
                                         1400     1410     1200     1210     1080     1600     1650     1300     1700   
                                           T        V       H0       H01     AOSYM     SMH    MOLCAS    ERIS     OPER   

              2       3        0.92       700     1000     2100   
                                         GEOM     BASIS     RHF  

 PROGRAMS   *        TOTAL       RHF       INT
 CPU TIMES  *        12.89      7.09      5.74
 REAL TIME  *        14.57 SEC
 DISK USED  *         1.28 GB      
 GA USED    *         0.01 MB       (max)       0.00 MB       (current)
 **********************************************************************************************************************************


1PROGRAM * CCSD (Closed-shell coupled cluster)     Authors: C. Hampel, H.-J. Werner, 1991, M. Deegan, P.J. Knowles, 1992


 Convergence thresholds:  THRVAR = 1.00D-08  THRDEN = 1.00D-12

 CCSD(T)     terms to be evaluated (factor= 1.000)


 Number of core orbitals:          10 (  10 )
 Number of closed-shell orbitals:  18 (  18 )
 Number of external orbitals:     110 ( 110 )

 Molecular orbitals read from record     2100.2  Type=RHF/CANONICAL (state 1.1)

 Number of N-1 electron functions:              18
 Number of N-2 electron functions:             171
 Number of singly external CSFs:              1980
 Number of doubly external CSFs:           1961190
 Total number of CSFs:                     1963171

 Length of J-op  integral file:               0.00 MB
 Length of K-op  integral file:               1.35 MB
 Length of 3-ext integral record:             0.00 MB

 Memory could be reduced to 32.58 Mwords without degradation in triples

 Integral transformation finished. Total CPU:   3.20 sec, npass=  1  Memory used:  30.89 MW

 Reference energy:                   -592.71184614

 MP2 singlet pair energy:              -0.53946578
 MP2 triplet pair energy:              -0.30437481
 MP2 correlation energy:               -0.84384060
 MP2 total energy:                   -593.55568674

 SCS-MP2 correlation energy:           -0.83674771   (PS=  1.200000  PT=  0.333333)
 SCS-MP2 total energy:               -593.54859386

 ITER.      SQ.NORM     CORR.ENERGY   TOTAL ENERGY   ENERGY CHANGE        DEN1      VAR(S)    VAR(P)  DIIS     TIME
   1      1.33971266    -0.91081561  -593.62266175    -0.06697501    -0.04301589  0.26D-02  0.55D-02  1  1    14.24
   2      1.36670952    -0.91616311  -593.62800926    -0.00534751    -0.02577717  0.69D-04  0.46D-03  2  2    25.36
   3      1.37204374    -0.91629094  -593.62813708    -0.00012783    -0.00303804  0.16D-04  0.28D-04  3  3    36.49
   4      1.37353715    -0.91634899  -593.62819513    -0.00005805    -0.00059399  0.76D-06  0.20D-05  4  4    47.60
   5      1.37377792    -0.91635560  -593.62820174    -0.00000661    -0.00007087  0.17D-06  0.16D-06  5  5    58.71
   6      1.37382361    -0.91635115  -593.62819729     0.00000445    -0.00001394  0.30D-07  0.14D-07  6  6    69.86
   7      1.37383121    -0.91635103  -593.62819718     0.00000011     0.00000064  0.53D-08  0.23D-08  6  2    80.97
   8      1.37383730    -0.91635072  -593.62819686     0.00000031    -0.00000125  0.73D-09  0.27D-09  6  1    92.12
   9      1.37383813    -0.91635066  -593.62819680     0.00000006     0.00000050  0.66D-10  0.44D-10  6  4   103.25
  10      1.37383901    -0.91635062  -593.62819677     0.00000003    -0.00000011  0.48D-11  0.35D-11  6  3   114.42
  11      1.37383902    -0.91635063  -593.62819677    -0.00000000     0.00000004  0.12D-11  0.54D-12  6  5   125.57
  12      1.37383898    -0.91635063  -593.62819677    -0.00000000     0.00000002  0.17D-12  0.77D-13  6  6   136.71
  13      1.37383893    -0.91635063  -593.62819677    -0.00000000     0.00000002  0.24D-13  0.11D-13  6  1   147.99
  14      1.37383892    -0.91635063  -593.62819677    -0.00000000     0.00000000  0.31D-14  0.12D-14  6  2   159.13
  15      1.37383892    -0.91635063  -593.62819677     0.00000000    -0.00000000  0.67D-15  0.31D-15  6  4   170.24
  16      1.37383893    -0.91635063  -593.62819677     0.00000000    -0.00000000  0.32D-16  0.23D-16  6  5   181.38
  17      1.37383893    -0.91635063  -593.62819677     0.00000000    -0.00000000  0.58D-17  0.24D-17  6  3   192.52
  18      1.37383893    -0.91635063  -593.62819677     0.00000000    -0.00000000  0.14D-17  0.42D-18  6  5   203.64
  19      1.37383893    -0.91635063  -593.62819677     0.00000000    -0.00000000  0.18D-18  0.65D-19  6  6   214.78
  20      1.37383893    -0.91635063  -593.62819677     0.00000000     0.00000000  0.15D-19  0.67D-20  6  1   225.93
  21      1.37383893    -0.91635063  -593.62819677    -0.00000000     0.00000000  0.25D-20  0.10D-20  6  2   237.08

 Norm of t1 vector:      0.07015765      S-energy:    -0.00000000      T1 diagnostic:  0.00826816
                                                                       D1 diagnostic:  0.02108187


 Total CPU time for triples:    159.63 sec


 RESULTS
 =======

  Reference energy                   -592.711846143252
  CCSD singlet pair energy             -0.634220246659
  CCSD triplet pair energy             -0.282130382663
  CCSD correlation energy              -0.916350629322

  Triples (T) contribution             -0.029870269974
  Total correlation energy             -0.946220899296

  CCSD total energy                  -593.628196772574
  CCSD[T] energy                     -593.658686573985
  CCSD-T energy                      -593.657755743198
 !CCSD(T) total energy               -593.658067042548

 Timing summary (sec):

 STEP                 CPU(USER)    SYS     CPU(TOT)    WALL
 Transformation          3.39      0.22      3.61      3.61
 CCSD iterations       233.69      3.12    236.81    236.90
 Triples               159.63      2.19    161.82    161.83

 Program statistics:

 Available memory in ccsd:               999998604
 Min. memory needed in ccsd:               5123362
 Max. memory used in ccsd:                 6867976
 Max. memory used in cckext:               6836871 (21 integral passes)



 **********************************************************************************************************************************
 DATASETS  * FILE   NREC   LENGTH (MB)   RECORD NAMES
              1      20      485.90       500      610      700      900      950      970     1000      129      960     1100   
                                          VAR    BASINP    GEOM    SYMINP    ZMAT    AOBASIS   BASIS     P2S    ABASIS      S 
                                         1400     1410     1200     1210     1080     1600     1650     1300     1700     1380   
                                           T        V       H0       H01     AOSYM     SMH    MOLCAS    ERIS     OPER     JKOP   

              2       3        0.92       700     1000     2100   
                                         GEOM     BASIS     RHF  

 PROGRAMS   *        TOTAL   CCSD(T)       RHF       INT
 CPU TIMES  *       409.62    396.73      7.09      5.74
 REAL TIME  *       416.97 SEC
 DISK USED  *         1.28 GB      
 GA USED    *         0.01 MB       (max)       0.00 MB       (current)
 **********************************************************************************************************************************

        CCSD(T)         RHF-SCF 
   -593.65806704   -592.71184614
 **********************************************************************************************************************************
 Variable memory released
