
 Primary working directories    : /tmp/862144.119.gen4.q
 Secondary working directories  : /tmp/862144.119.gen4.q
 Wavefunction directory         : /home/vulcan/lo21740/wfu/
 Main file repository           : /tmp/862144.119.gen4.q/

 ARCHNAME  : Linux/x86_64
 FC        : /opt/intel/compilers_and_libraries_2016.1.150/linux/bin/intel64/ifort
 FCVERSION : 16.0.1
 BLASLIB   : -mkl
 id        : ccgc

 Nodes     nprocs
 n062         1
 ga_uses_ma=false, calling ma_init with nominal heap.
 GA-space will be limited to   8.0 MW (determined by -G option)

 Using customized tuning parameters: mindgm=10; mindgv=16; mindgc=4; mindgr=1; noblas=0; mincuda=1000; minvec=7
 default implementation of scratch files=df  

 ***,Optimization of formic acid
 memory,1000,m
 gthresh,energy=1.0d-12,orbital=1.0d-10,oneint=1.0d-16,twoint=1.0d-16,optgrad=1.0d-6,compress=1.0d-13
 geomtyp=xyz
 
 bohr
 geometry = {
  C   -3.5000574103   -0.8321458927   -0.0017009251
  O   -3.0969197704    1.6197518646    0.0006259040
  O   -1.8823599966   -2.4802873658    0.0008295355
  H   -5.5207698268   -1.2715973331    0.0004280986
  H   -1.2422608940    1.9556055168    0.0000812769
  C    3.5011604179    0.8294039065    0.0017033619
  O    3.0917598478   -1.6256000213   -0.0006314035
  O    1.8884267977    2.4821661065   -0.0008276646
  H    5.5189237859    1.2751596615   -0.0004223820
  H    1.2420970488   -1.9524564432   -0.0000858017
 }
 
 basis=VDZ
 {rhf;maxit,200}
 {ccsd(t);maxit,200}

 Variables initialized (661), CPU time= 0.00 sec
 Commands  initialized (458), CPU time= 0.00 sec, 486 directives.
 Default parameters read. Elapsed time= 0.05 sec

 Checking input...
 Passed
1


                                         ***  PROGRAM SYSTEM MOLPRO  ***
                         Copyright, University College Cardiff Consultants Limited, 2008

                                    Version 2010.1 linked May 16 2016 07:17:05


 **********************************************************************************************************************************
 LABEL *   Optimization of formic acid                                                   
 Linux-4.4.3/n062(x86_64) 64 bit mpp version                                             DATE: 26-Apr-23          TIME: 17:46:51  
 **********************************************************************************************************************************

 SHA1:             9e8077add272b0f3cad6f7df79ec5211205f459d
 **********************************************************************************************************************************

 THRESHOLDS:

 ZERO    =  1.00D-12  ONEINT  =  1.00D-16  TWOINT  =  1.00D-16  PREFAC  =  1.00D-14  LOCALI  =  1.00D-09  EORDER  =  1.00D-04
 ENERGY  =  1.00D-12  ETEST   =  0.00D+00  EDENS   =  0.00D+00  THRDEDEF=  1.00D-06  GRADIENT=  1.00D-02  STEP    =  1.00D-03
 ORBITAL =  1.00D-10  CIVEC   =  1.00D-05  COEFF   =  1.00D-04  PRINTCI =  5.00D-02  PUNCHCI =  9.90D+01  OPTGRAD =  1.00D-06
 OPTENERG=  1.00D-06  OPTSTEP =  3.00D-04  THRGRAD =  1.00D-10  COMPRESS=  1.00D-13  VARMIN  =  1.00D-07  VARMAX  =  1.00D-03
 THRDOUB =  0.00D+00  THRDIV  =  1.00D-05  THRRED  =  1.00D-07  THRPSP  =  1.00D+00  THRDC   =  1.00D-10  THRCS   =  1.00D-10
 THRNRM  =  1.00D-08  THREQ   =  0.00D+00  THRDE   =  1.00D+00  THRREF  =  1.00D-05  SPARFAC =  1.00D+00  THRDLP  =  1.00D-07
 THRDIA  =  1.00D-10  THRDLS  =  1.00D-07  THRGPS  =  0.00D+00  THRKEX  =  0.00D+00  THRDIS  =  2.00D-01  THRVAR  =  1.00D-10
 THRLOC  =  1.00D-06  THRGAP  =  1.00D-06  THRLOCT = -1.00D+00  THRGAPT = -1.00D+00  THRORB  =  1.00D-06  THRMLTP =  0.00D+00
 THRCPQCI=  1.00D-10  KEXTA   =  0.00D+00  THRCOARS=  0.00D+00  SYMTOL  =  1.00D-06  GRADTOL =  1.00D-06  THROVL  =  1.00D-08
 THRORTH =  1.00D-08  GRID    =  1.00D-06  GRIDMAX =  1.00D-03  DTMAX   =  0.00D+00

 SETTING GEOMTYP        =    XYZ
 ZUNIT=BOHR
 

 Variable memory set to 1000000000 words,  buffer space   230000 words

 SETTING BASIS          =    VDZ


 Recomputing integrals since basis changed


 Using spherical harmonics

 Library entry C      S cc-pVDZ              selected for orbital group  1
 Library entry C      P cc-pVDZ              selected for orbital group  1
 Library entry C      D cc-pVDZ              selected for orbital group  1
 Library entry O      S cc-pVDZ              selected for orbital group  2
 Library entry O      P cc-pVDZ              selected for orbital group  2
 Library entry O      D cc-pVDZ              selected for orbital group  2
 Library entry H      S cc-pVDZ              selected for orbital group  3
 Library entry H      P cc-pVDZ              selected for orbital group  3

1PROGRAM * SEWARD (Integral evaluation for generally contracted gaussian basis sets)     Author: Roland Lindh, 1990

 Geometry written to block  1 of record 700


 Point group  C1  



 ATOMIC COORDINATES

 NR  ATOM    CHARGE       X              Y              Z

   1  C       6.00   -3.500057410   -0.832145893   -0.001700925
   2  O       8.00   -3.096919770    1.619751865    0.000625904
   3  O       8.00   -1.882359997   -2.480287366    0.000829536
   4  H       1.00   -5.520769827   -1.271597333    0.000428099
   5  H       1.00   -1.242260894    1.955605517    0.000081277
   6  C       6.00    3.501160418    0.829403906    0.001703362
   7  O       8.00    3.091759848   -1.625600021   -0.000631403
   8  O       8.00    1.888426798    2.482166106   -0.000827665
   9  H       1.00    5.518923786    1.275159662   -0.000422382
  10  H       1.00    1.242097049   -1.952456443   -0.000085802

 Bond lengths in Bohr (Angstrom)

 1-2  2.484819507  1-3  2.309398545  1-4  2.067946027  2-5  1.884822941  6-7  2.488907102
     ( 1.314909852)     ( 1.222081077)     ( 1.094309907)     ( 0.997405344)     ( 1.317072914)

  6- 8  2.309229098   6- 9  2.066415186   7-10  1.878320497
       ( 1.221991409)       ( 1.093499821)       ( 0.993964398)

 Bond angles

  1-2-5  109.60118742   2-1-3  126.19702362   2-1-4  111.60614442   3-1-4  122.19651701

  6- 7-10  109.48894992   7- 6- 8  126.23456343   7- 6- 9  111.92499324   8- 6- 9  121.84012840

 NUCLEAR CHARGE:                   48
 NUMBER OF PRIMITIVE AOS:         190
 NUMBER OF SYMMETRY AOS:          184
 NUMBER OF CONTRACTIONS:          104   ( 104A   )
 NUMBER OF CORE ORBITALS:           6   (   6A   )
 NUMBER OF VALENCE ORBITALS:       28   (  28A   )


 NUCLEAR REPULSION ENERGY  235.53074778


 Eigenvalues of metric

         1 0.818E-02 0.871E-02 0.138E-01 0.140E-01 0.165E-01 0.167E-01 0.299E-01 0.307E-01


 Contracted 2-electron integrals neglected if value below      1.0D-16
 AO integral compression algorithm  1   Integral accuracy      1.0D-16

     99.877 MB (compressed) written to integral file ( 74.9%)

     Node minimum: 99.877 MB, node maximum: 99.877 MB


 NUMBER OF SORTED TWO-ELECTRON INTEGRALS:   14908530.     BUFFER LENGTH:  32768
 NUMBER OF SEGMENTS:   1  SEGMENT LENGTH:   14908530      RECORD LENGTH: 524288

 Memory used in sort:      15.47 MW

 SORT1 READ    16652828. AND WROTE    14472310. INTEGRALS IN     42 RECORDS. CPU TIME:     0.16 SEC, REAL TIME:     0.24 SEC
 SORT2 READ    14472310. AND WROTE    14908530. INTEGRALS IN    381 RECORDS. CPU TIME:     0.19 SEC, REAL TIME:     0.23 SEC

 FILE SIZES:   FILE 1:    91.9 MBYTE,  FILE 4:   176.2 MBYTE,   TOTAL:    268.0 MBYTE

 OPERATOR DM      FOR CENTER  0  COORDINATES:    0.000000    0.000000    0.000000


 **********************************************************************************************************************************
 DATASETS  * FILE   NREC   LENGTH (MB)   RECORD NAMES
              1      19       91.98       500      610      700      900      950      970     1000      129      960     1100   
                                          VAR    BASINP    GEOM    SYMINP    ZMAT    AOBASIS   BASIS     P2S    ABASIS      S 
                                         1400     1410     1200     1210     1080     1600     1650     1300     1700   
                                           T        V       H0       H01     AOSYM     SMH    MOLCAS    ERIS     OPER   

 PROGRAMS   *        TOTAL       INT
 CPU TIMES  *         1.75      1.71
 REAL TIME  *         2.13 SEC
 DISK USED  *       368.71 MB      
 GA USED    *         0.00 MB       (max)       0.00 MB       (current)
 **********************************************************************************************************************************

1PROGRAM * RHF-SCF (CLOSED SHELL)       Authors: W. Meyer, H.-J. Werner


 NUMBER OF ELECTRONS:      24+   24-    SPACE SYMMETRY=1    SPIN SYMMETRY: Singlet 
 CONVERGENCE THRESHOLDS:    1.00E-10 (Density)    1.00E-13 (Energy)
 MAX. NUMBER OF ITERATIONS:      200
 INTERPOLATION TYPE:            DIIS
 INTERPOLATION STEPS:              2 (START)      1 (STEP)
 LEVEL SHIFTS:                  0.00 (CLOSED)  0.00 (OPEN) 



 Orbital guess generated from atomic densities. Full valence occupancy:   34

 Molecular orbital dump at record        2100.2

 ITERATION    DDIFF          GRAD             ENERGY        2-EL.EN.            DIPOLE MOMENTS         DIIS
    1      0.000D+00      0.000D+00      -377.44986509    747.056138    0.00045    0.00854    0.00001    0
    2      0.000D+00      0.110D-01      -377.53761301    744.208093    0.00124    0.00577   -0.00000    1
    3      0.218D-01      0.684D-02      -377.58426136    746.457334    0.00041    0.00589    0.00000    2
    4      0.792D-02      0.967D-03      -377.58575185    746.177450    0.00051    0.00569    0.00000    3
    5      0.155D-02      0.402D-03      -377.58601253    746.203264    0.00032    0.00563    0.00000    4
    6      0.637D-03      0.115D-03      -377.58605873    746.247553    0.00028    0.00561    0.00000    5
    7      0.221D-03      0.526D-04      -377.58607008    746.232395    0.00023    0.00559    0.00000    6
    8      0.132D-03      0.156D-04      -377.58607108    746.237599    0.00022    0.00559    0.00000    7
    9      0.411D-04      0.529D-05      -377.58607118    746.236147    0.00022    0.00559    0.00000    8
   10      0.143D-04      0.145D-05      -377.58607119    746.236315    0.00022    0.00559    0.00000    7
   11      0.404D-05      0.355D-06      -377.58607119    746.236261    0.00022    0.00559    0.00000    8
   12      0.940D-06      0.103D-06      -377.58607119    746.236282    0.00022    0.00559    0.00000    7
   13      0.258D-06      0.408D-07      -377.58607119    746.236271    0.00022    0.00559    0.00000    8
   14      0.748D-07      0.119D-07      -377.58607119    746.236273    0.00022    0.00559    0.00000    7
   15      0.298D-07      0.383D-08      -377.58607119    746.236273    0.00022    0.00559    0.00000    8
   16      0.825D-08      0.115D-08      -377.58607119    746.236272    0.00022    0.00559    0.00000    8
   17      0.211D-08      0.288D-09      -377.58607119    746.236273    0.00022    0.00559    0.00000    8
   18      0.537D-09      0.834D-10      -377.58607119    746.236273    0.00022    0.00559    0.00000    8
   19      0.171D-09      0.292D-10      -377.58607119    746.236273    0.00022    0.00559    0.00000    8
   20      0.555D-10      0.113D-10      -377.58607119    746.236273    0.00022    0.00559    0.00000    8
   21      0.201D-10      0.382D-11      -377.58607119    746.236273    0.00022    0.00559    0.00000    8
   22      0.798D-11      0.156D-11      -377.58607119    746.236273    0.00022    0.00559    0.00000    8
   23      0.336D-11      0.774D-12      -377.58607119    746.236273    0.00022    0.00559    0.00000    8
   24      0.161D-11      0.340D-12      -377.58607119    746.236273    0.00022    0.00559    0.00000    8
   25      0.872D-12      0.900D-13      -377.58607119    746.236273    0.00022    0.00559    0.00000    9
   26      0.267D-12      0.294D-13      -377.58607119    746.236273    0.00022    0.00559    0.00000    9
   27      0.869D-13      0.172D-13      -377.58607119    746.236273    0.00022    0.00559    0.00000    9
   28      0.390D-13      0.144D-13      -377.58607119    746.236273    0.00022    0.00559    0.00000    9
   29      0.239D-13      0.150D-13      -377.58607119    746.236273    0.00022    0.00559    0.00000    9
   30      0.215D-13      0.146D-13      -377.58607119    746.236273    0.00022    0.00559    0.00000    9
   31      0.108D-13      0.134D-13      -377.58607119    746.236273    0.00022    0.00559    0.00000    9
   32      0.153D-13      0.123D-13      -377.58607119    746.236273    0.00022    0.00559    0.00000    0

 Final occupancy:  24

 !RHF STATE 1.1 Energy               -377.586071189971
 Nuclear energy                       235.53074778
 One-electron energy                 -986.23495526
 Two-electron energy                  373.11813629
 Virial quotient                       -1.00122981
 !RHF STATE 1.1 Dipole moment           0.00021731     0.00559337     0.00000158
 Dipole moment /Debye                   0.00055230     0.01421600     0.00000402

 Orbital energies:

         1.1          2.1          3.1          4.1          5.1          6.1          7.1          8.1          9.1         10.1
    -20.613968   -20.613684   -20.575750   -20.575277   -11.412174   -11.411962    -1.482091    -1.469363    -1.383627    -1.369627

        11.1         12.1         13.1         14.1         15.1         16.1         17.1         18.1         19.1         20.1
     -0.914404    -0.878491    -0.763267    -0.728058    -0.719301    -0.688810    -0.638425    -0.628845    -0.615099    -0.573624

        21.1         22.1         23.1         24.1         25.1         26.1
     -0.498415    -0.489558    -0.487742    -0.467781     0.160897     0.165980


 **********************************************************************************************************************************
 DATASETS  * FILE   NREC   LENGTH (MB)   RECORD NAMES
              1      19       91.98       500      610      700      900      950      970     1000      129      960     1100   
                                          VAR    BASINP    GEOM    SYMINP    ZMAT    AOBASIS   BASIS     P2S    ABASIS      S 
                                         1400     1410     1200     1210     1080     1600     1650     1300     1700   
                                           T        V       H0       H01     AOSYM     SMH    MOLCAS    ERIS     OPER   

              2       3        0.64       700     1000     2100   
                                         GEOM     BASIS     RHF  

 PROGRAMS   *        TOTAL       RHF       INT
 CPU TIMES  *         5.95      4.20      1.71
 REAL TIME  *         6.70 SEC
 DISK USED  *       368.71 MB      
 GA USED    *         0.00 MB       (max)       0.00 MB       (current)
 **********************************************************************************************************************************


1PROGRAM * CCSD (Closed-shell coupled cluster)     Authors: C. Hampel, H.-J. Werner, 1991, M. Deegan, P.J. Knowles, 1992


 Convergence thresholds:  THRVAR = 1.00D-08  THRDEN = 1.00D-12

 CCSD(T)     terms to be evaluated (factor= 1.000)


 Number of core orbitals:           6 (   6 )
 Number of closed-shell orbitals:  18 (  18 )
 Number of external orbitals:      80 (  80 )

 Molecular orbitals read from record     2100.2  Type=RHF/CANONICAL (state 1.1)

 Number of N-1 electron functions:              18
 Number of N-2 electron functions:             171
 Number of singly external CSFs:              1440
 Number of doubly external CSFs:           1037520
 Total number of CSFs:                     1038961

 Length of J-op  integral file:               0.00 MB
 Length of K-op  integral file:               0.78 MB
 Length of 3-ext integral record:             0.00 MB

 Memory could be reduced to 13.51 Mwords without degradation in triples

 Integral transformation finished. Total CPU:   0.93 sec, npass=  1  Memory used:  14.06 MW

 Reference energy:                   -377.58607119

 MP2 singlet pair energy:              -0.59906017
 MP2 triplet pair energy:              -0.40690363
 MP2 correlation energy:               -1.00596380
 MP2 total energy:                   -378.59203499

 SCS-MP2 correlation energy:           -0.97205668   (PS=  1.200000  PT=  0.333333)
 SCS-MP2 total energy:               -378.55812787

 ITER.      SQ.NORM     CORR.ENERGY   TOTAL ENERGY   ENERGY CHANGE        DEN1      VAR(S)    VAR(P)  DIIS     TIME
   1      1.28158309    -1.02620556  -378.61227675    -0.02024176     0.01051042  0.10D-01  0.55D-02  1  1     4.31
   2      1.30525137    -1.02808705  -378.61415824    -0.00188149    -0.02505139  0.25D-03  0.10D-02  2  2     7.73
   3      1.31827606    -1.02903624  -378.61510743    -0.00094919    -0.00595438  0.20D-03  0.42D-04  3  3    11.15
   4      1.32361822    -1.02880291  -378.61487410     0.00023333    -0.00175111  0.18D-04  0.71D-05  4  4    14.58
   5      1.32568268    -1.02871329  -378.61478448     0.00008962    -0.00045830  0.11D-05  0.68D-06  5  5    18.00
   6      1.32602626    -1.02869287  -378.61476406     0.00002042    -0.00001561  0.10D-06  0.60D-07  6  6    21.44
   7      1.32609501    -1.02868526  -378.61475645     0.00000762    -0.00000448  0.79D-08  0.88D-08  6  2    24.86
   8      1.32609825    -1.02868611  -378.61475730    -0.00000085     0.00000208  0.16D-08  0.89D-09  6  1    28.30
   9      1.32609903    -1.02868578  -378.61475697     0.00000032     0.00000091  0.33D-09  0.16D-09  6  4    31.73
  10      1.32610084    -1.02868563  -378.61475682     0.00000016    -0.00000062  0.93D-10  0.26D-10  6  3    35.16
  11      1.32610033    -1.02868575  -378.61475694    -0.00000012     0.00000025  0.21D-10  0.54D-11  6  5    38.59
  12      1.32609998    -1.02868577  -378.61475696    -0.00000002     0.00000005  0.27D-11  0.11D-11  6  6    42.02
  13      1.32609965    -1.02868581  -378.61475700    -0.00000004     0.00000013  0.30D-12  0.21D-12  6  1    45.44
  14      1.32609954    -1.02868581  -378.61475700    -0.00000000     0.00000002  0.29D-13  0.23D-13  6  2    48.87
  15      1.32609950    -1.02868581  -378.61475700    -0.00000000     0.00000001  0.62D-14  0.29D-14  6  4    52.30
  16      1.32609949    -1.02868582  -378.61475701    -0.00000000     0.00000000  0.96D-15  0.62D-15  6  5    55.73
  17      1.32609949    -1.02868582  -378.61475701    -0.00000000    -0.00000000  0.14D-15  0.60D-16  6  3    59.17
  18      1.32609949    -1.02868582  -378.61475701    -0.00000000     0.00000000  0.50D-16  0.17D-16  6  5    62.59
  19      1.32609949    -1.02868582  -378.61475701    -0.00000000     0.00000000  0.10D-16  0.23D-17  6  2    66.03
  20      1.32609949    -1.02868582  -378.61475701    -0.00000000     0.00000000  0.35D-17  0.66D-18  6  6    69.47
  21      1.32609949    -1.02868582  -378.61475701     0.00000000    -0.00000000  0.10D-17  0.25D-18  6  1    72.90
  22      1.32609949    -1.02868582  -378.61475701     0.00000000    -0.00000000  0.14D-18  0.48D-19  6  4    76.32
  23      1.32609949    -1.02868582  -378.61475701     0.00000000    -0.00000000  0.16D-19  0.64D-20  6  3    79.75
  24      1.32609949    -1.02868582  -378.61475701     0.00000000    -0.00000000  0.14D-20  0.12D-20  6  2    83.18
  25      1.32609949    -1.02868582  -378.61475701    -0.00000000     0.00000000  0.30D-21  0.17D-21  6  5    86.61

 Norm of t1 vector:      0.15246822      S-energy:     0.00000000      T1 diagnostic:  0.01796855
                                                                       D1 diagnostic:  0.06496279

 Singles amplitudes (print threshold =  0.500E-01):

         I         SYM. A    A   T(IA)

        11         1         1      0.05931614
        12         1         2     -0.06113958


 Total CPU time for triples:     38.50 sec


 RESULTS
 =======

  Reference energy                   -377.586071189971
  CCSD singlet pair energy             -0.670879834181
  CCSD triplet pair energy             -0.357805981329
  CCSD correlation energy              -1.028685815510

  Triples (T) contribution             -0.031909877064
  Total correlation energy             -1.060595692574

  CCSD total energy                  -378.614757005481
  CCSD[T] energy                     -378.649951083326
  CCSD-T energy                      -378.645587230718
 !CCSD(T) total energy               -378.646666882545

 Timing summary (sec):

 STEP                 CPU(USER)    SYS     CPU(TOT)    WALL
 Transformation          0.98      0.09      1.07      1.08
 CCSD iterations        85.64      1.51     87.15     87.27
 Triples                38.50      0.94     39.44     39.46

 Program statistics:

 Available memory in ccsd:               999998604
 Min. memory needed in ccsd:               2834340
 Max. memory used in ccsd:                 3747300
 Max. memory used in cckext:               3919086 (25 integral passes)



 **********************************************************************************************************************************
 DATASETS  * FILE   NREC   LENGTH (MB)   RECORD NAMES
              1      20      151.89       500      610      700      900      950      970     1000      129      960     1100   
                                          VAR    BASINP    GEOM    SYMINP    ZMAT    AOBASIS   BASIS     P2S    ABASIS      S 
                                         1400     1410     1200     1210     1080     1600     1650     1300     1700     1380   
                                           T        V       H0       H01     AOSYM     SMH    MOLCAS    ERIS     OPER     JKOP   

              2       3        0.64       700     1000     2100   
                                         GEOM     BASIS     RHF  

 PROGRAMS   *        TOTAL   CCSD(T)       RHF       INT
 CPU TIMES  *       131.08    125.13      4.20      1.71
 REAL TIME  *       134.55 SEC
 DISK USED  *       434.14 MB      
 GA USED    *         0.00 MB       (max)       0.00 MB       (current)
 **********************************************************************************************************************************

        CCSD(T)         RHF-SCF 
   -378.64666688   -377.58607119
 **********************************************************************************************************************************
 Variable memory released
