
 Primary working directories    : /tmp/1065196.1528.gen4.q
 Secondary working directories  : /tmp/1065196.1528.gen4.q
 Wavefunction directory         : /home/vulcan/jj04645/wfu/
 Main file repository           : /tmp/1065196.1528.gen4.q/

 ARCHNAME  : Linux/x86_64
 FC        : /opt/intel/compilers_and_libraries_2016.1.150/linux/bin/intel64/ifort
 FCVERSION : 16.0.1
 BLASLIB   : -mkl
 id        : ccgc

 Nodes     nprocs
 n036         1
 ga_uses_ma=false, calling ma_init with nominal heap.
 GA-space will be limited to   8.0 MW (determined by -G option)

 Using customized tuning parameters: mindgm=10; mindgv=16; mindgc=4; mindgr=1; noblas=0; mincuda=1000; minvec=7
 default implementation of scratch files=df  

 ***,Optimization of t-butanol
 memory,1000,m
 gthresh,energy=1.0d-12,orbital=1.0d-10,oneint=1.0d-16,twoint=1.0d-16,optgrad=1.0d-6,compress=1.0d-13
 geomtyp=xyz
 
 bohr
 geometry = {
  C    0.0066639991   -0.0572299647   -0.0001480797
  O   -0.0213080056    2.6555281511   -0.0010950113
  C   -2.7657989383   -0.8328703264    0.0006659773
  C    1.3380626343   -1.0171811198   -2.3774274950
  C    1.3389917142   -1.0155118317    2.3772842930
  H    1.7111472066    3.2104810218   -0.0016283697
  H   -2.9433662062   -2.8889890207    0.0014225381
  H   -3.7092368354   -0.0834688608   -1.6735296065
  H   -3.7085825834   -0.0822933611    1.6747035196
  H    1.3013114791   -3.0801297461   -2.4665744661
  H    3.3130220846   -0.4034995689   -2.3986240494
  H    0.4055106396   -0.2713018498   -4.0592517557
  H    1.3159042201   -3.0789246972    2.4600440457
  H    3.3097266978   -0.3886490054    2.4049572467
  H    0.3975644551   -0.2810786190    4.0592012128
 }
 
 basis=VDZ
 {rhf;maxit,200}
 {ccsd(t);maxit,200}

 Variables initialized (661), CPU time= 0.00 sec
 Commands  initialized (458), CPU time= 0.00 sec, 486 directives.
 Default parameters read. Elapsed time= 0.06 sec

 Checking input...
 Passed
1


                                         ***  PROGRAM SYSTEM MOLPRO  ***
                         Copyright, University College Cardiff Consultants Limited, 2008

                                    Version 2010.1 linked May 16 2016 07:17:05


 **********************************************************************************************************************************
 LABEL *   Optimization of t-butanol                                                     
 Linux-4.4.3/n036(x86_64) 64 bit mpp version                                             DATE: 20-May-24          TIME: 17:17:24  
 **********************************************************************************************************************************

 SHA1:             9e8077add272b0f3cad6f7df79ec5211205f459d
 **********************************************************************************************************************************

 THRESHOLDS:

 ZERO    =  1.00D-12  ONEINT  =  1.00D-16  TWOINT  =  1.00D-16  PREFAC  =  1.00D-14  LOCALI  =  1.00D-09  EORDER  =  1.00D-04
 ENERGY  =  1.00D-12  ETEST   =  0.00D+00  EDENS   =  0.00D+00  THRDEDEF=  1.00D-06  GRADIENT=  1.00D-02  STEP    =  1.00D-03
 ORBITAL =  1.00D-10  CIVEC   =  1.00D-05  COEFF   =  1.00D-04  PRINTCI =  5.00D-02  PUNCHCI =  9.90D+01  OPTGRAD =  1.00D-06
 OPTENERG=  1.00D-06  OPTSTEP =  3.00D-04  THRGRAD =  1.00D-10  COMPRESS=  1.00D-13  VARMIN  =  1.00D-07  VARMAX  =  1.00D-03
 THRDOUB =  0.00D+00  THRDIV  =  1.00D-05  THRRED  =  1.00D-07  THRPSP  =  1.00D+00  THRDC   =  1.00D-10  THRCS   =  1.00D-10
 THRNRM  =  1.00D-08  THREQ   =  0.00D+00  THRDE   =  1.00D+00  THRREF  =  1.00D-05  SPARFAC =  1.00D+00  THRDLP  =  1.00D-07
 THRDIA  =  1.00D-10  THRDLS  =  1.00D-07  THRGPS  =  0.00D+00  THRKEX  =  0.00D+00  THRDIS  =  2.00D-01  THRVAR  =  1.00D-10
 THRLOC  =  1.00D-06  THRGAP  =  1.00D-06  THRLOCT = -1.00D+00  THRGAPT = -1.00D+00  THRORB  =  1.00D-06  THRMLTP =  0.00D+00
 THRCPQCI=  1.00D-10  KEXTA   =  0.00D+00  THRCOARS=  0.00D+00  SYMTOL  =  1.00D-06  GRADTOL =  1.00D-06  THROVL  =  1.00D-08
 THRORTH =  1.00D-08  GRID    =  1.00D-06  GRIDMAX =  1.00D-03  DTMAX   =  0.00D+00

 SETTING GEOMTYP        =    XYZ
 ZUNIT=BOHR
 

 Variable memory set to 1000000000 words,  buffer space   230000 words

 SETTING BASIS          =    VDZ


 Recomputing integrals since basis changed


 Using spherical harmonics

 Library entry C      S cc-pVDZ              selected for orbital group  1
 Library entry C      P cc-pVDZ              selected for orbital group  1
 Library entry C      D cc-pVDZ              selected for orbital group  1
 Library entry O      S cc-pVDZ              selected for orbital group  2
 Library entry O      P cc-pVDZ              selected for orbital group  2
 Library entry O      D cc-pVDZ              selected for orbital group  2
 Library entry H      S cc-pVDZ              selected for orbital group  4
 Library entry H      P cc-pVDZ              selected for orbital group  4

1PROGRAM * SEWARD (Integral evaluation for generally contracted gaussian basis sets)     Author: Roland Lindh, 1990

 Geometry written to block  1 of record 700


 Point group  C1  



 ATOMIC COORDINATES

 NR  ATOM    CHARGE       X              Y              Z

   1  C       6.00    0.006663999   -0.057229965   -0.000148080
   2  O       8.00   -0.021308006    2.655528151   -0.001095011
   3  C       6.00   -2.765798938   -0.832870326    0.000665977
   4  C       6.00    1.338062634   -1.017181120   -2.377427495
   5  C       6.00    1.338991714   -1.015511832    2.377284293
   6  H       1.00    1.711147207    3.210481022   -0.001628370
   7  H       1.00   -2.943366206   -2.888989021    0.001422538
   8  H       1.00   -3.709236835   -0.083468861   -1.673529607
   9  H       1.00   -3.708582583   -0.082293361    1.674703520
  10  H       1.00    1.301311479   -3.080129746   -2.466574466
  11  H       1.00    3.313022085   -0.403499569   -2.398624049
  12  H       1.00    0.405510640   -0.271301850   -4.059251756
  13  H       1.00    1.315904220   -3.078924697    2.460044046
  14  H       1.00    3.309726698   -0.388649005    2.404957247
  15  H       1.00    0.397564455   -0.281078619    4.059201213

 Bond lengths in Bohr (Angstrom)

 1-2  2.712902491  1-3  2.878918091  1-4  2.888872784  1-5  2.888872784  2-6  1.819168501
     ( 1.435606168)     ( 1.523457840)     ( 1.528725637)     ( 1.528725637)     ( 0.962662510)

  3- 7  2.063771982   3- 8  2.062670229   3- 9  2.062670229   4-10  2.065200926   4-11  2.068216422
       ( 1.092101097)       ( 1.091518075)       ( 1.091518075)       ( 1.092857262)       ( 1.094452994)

  4-12  2.062649256   5-13  2.065200925   5-14  2.068216423   5-15  2.062649256
       ( 1.091506976)       ( 1.092857262)       ( 1.094452994)       ( 1.091506976)

 Bond angles

  1-2-6  107.17091859   1-3-7  110.56564859   1-3-8  110.02067680   1-3-9  110.02067678

  1- 4-10  111.05418762   1- 4-11  110.48280257   1- 4-12  110.02613546   1- 5-13  111.05418764

  1- 5-14  110.48280256   1- 5-15  110.02613545   2- 1- 3  105.03903602   2- 1- 4  109.67835923

  2-1-5  109.67835923   3-1-4  110.76498583   3-1-5  110.76498583   4-1-5  110.75948302

  7- 3- 8  108.83916950   7- 3- 9  108.83916948   8- 3- 9  108.51019466  10- 4-11  108.23693331

 10- 4-12  108.54055566  11- 4-12  108.42563212  13- 5-14  108.23693333  13- 5-15  108.54055569

 14- 5-15  108.42563208

 NUCLEAR CHARGE:                   42
 NUMBER OF PRIMITIVE AOS:         205
 NUMBER OF SYMMETRY AOS:          200
 NUMBER OF CONTRACTIONS:          120   ( 120A   )
 NUMBER OF CORE ORBITALS:           5   (   5A   )
 NUMBER OF VALENCE ORBITALS:       30   (  30A   )


 NUCLEAR REPULSION ENERGY  199.65082431


 Eigenvalues of metric

         1 0.260E-02 0.488E-02 0.491E-02 0.835E-02 0.169E-01 0.191E-01 0.192E-01 0.240E-01


 Contracted 2-electron integrals neglected if value below      1.0D-16
 AO integral compression algorithm  1   Integral accuracy      1.0D-16

     221.512 MB (compressed) written to integral file ( 96.9%)

     Node minimum: 221.512 MB, node maximum: 221.512 MB


 NUMBER OF SORTED TWO-ELECTRON INTEGRALS:   26357430.     BUFFER LENGTH:  32768
 NUMBER OF SEGMENTS:   2  SEGMENT LENGTH:   15997996      RECORD LENGTH: 524288

 Memory used in sort:      16.56 MW

 SORT1 READ    28587749. AND WROTE    26318576. INTEGRALS IN     76 RECORDS. CPU TIME:     0.31 SEC, REAL TIME:     1.39 SEC
 SORT2 READ    26318576. AND WROTE    26357430. INTEGRALS IN    845 RECORDS. CPU TIME:     0.24 SEC, REAL TIME:     0.36 SEC

 FILE SIZES:   FILE 1:   206.8 MBYTE,  FILE 4:   318.8 MBYTE,   TOTAL:    525.6 MBYTE

 OPERATOR DM      FOR CENTER  0  COORDINATES:    0.000000    0.000000    0.000000


 **********************************************************************************************************************************
 DATASETS  * FILE   NREC   LENGTH (MB)   RECORD NAMES
              1      19      206.93       500      610      700      900      950      970     1000      129      960     1100   
                                          VAR    BASINP    GEOM    SYMINP    ZMAT    AOBASIS   BASIS     P2S    ABASIS      S 
                                         1400     1410     1200     1210     1080     1600     1650     1300     1700   
                                           T        V       H0       H01     AOSYM     SMH    MOLCAS    ERIS     OPER   

 PROGRAMS   *        TOTAL       INT
 CPU TIMES  *         3.51      3.46
 REAL TIME  *         4.99 SEC
 DISK USED  *       748.03 MB      
 GA USED    *         0.01 MB       (max)       0.00 MB       (current)
 **********************************************************************************************************************************

1PROGRAM * RHF-SCF (CLOSED SHELL)       Authors: W. Meyer, H.-J. Werner


 NUMBER OF ELECTRONS:      21+   21-    SPACE SYMMETRY=1    SPIN SYMMETRY: Singlet 
 CONVERGENCE THRESHOLDS:    1.00E-10 (Density)    1.00E-13 (Energy)
 MAX. NUMBER OF ITERATIONS:      200
 INTERPOLATION TYPE:            DIIS
 INTERPOLATION STEPS:              2 (START)      1 (STEP)
 LEVEL SHIFTS:                  0.00 (CLOSED)  0.00 (OPEN) 



 Orbital guess generated from atomic densities. Full valence occupancy:   35

 Molecular orbital dump at record        2100.2

 ITERATION    DDIFF          GRAD             ENERGY        2-EL.EN.            DIPOLE MOMENTS         DIIS
    1      0.000D+00      0.000D+00      -232.08677115    561.120473    0.88638   -0.62485    0.00011    0
    2      0.000D+00      0.616D-02      -232.16305238    555.893587    0.40819   -0.32433    0.00012    1
    3      0.122D-01      0.265D-02      -232.17373933    557.893021    0.52899   -0.43036    0.00009    2
    4      0.389D-02      0.733D-03      -232.17503957    557.664986    0.50210   -0.39420    0.00009    3
    5      0.141D-02      0.192D-03      -232.17511669    557.601968    0.50146   -0.40641    0.00009    4
    6      0.307D-03      0.358D-04      -232.17511974    557.622075    0.50083   -0.40475    0.00009    5
    7      0.899D-04      0.659D-05      -232.17511988    557.616439    0.50077   -0.40491    0.00009    6
    8      0.185D-04      0.211D-05      -232.17511989    557.618020    0.50077   -0.40501    0.00009    7
    9      0.400D-05      0.682D-06      -232.17511989    557.617672    0.50074   -0.40502    0.00009    7
   10      0.155D-05      0.190D-06      -232.17511989    557.617726    0.50075   -0.40504    0.00009    7
   11      0.503D-06      0.389D-07      -232.17511989    557.617714    0.50075   -0.40504    0.00009    7
   12      0.123D-06      0.120D-07      -232.17511989    557.617723    0.50075   -0.40504    0.00009    7
   13      0.242D-07      0.518D-08      -232.17511989    557.617720    0.50075   -0.40504    0.00009    7
   14      0.101D-07      0.169D-08      -232.17511989    557.617720    0.50075   -0.40504    0.00009    8
   15      0.301D-08      0.442D-09      -232.17511989    557.617720    0.50075   -0.40504    0.00009    8
   16      0.106D-08      0.109D-09      -232.17511989    557.617720    0.50075   -0.40504    0.00009    7
   17      0.253D-09      0.301D-10      -232.17511989    557.617720    0.50075   -0.40504    0.00009    7
   18      0.789D-10      0.854D-11      -232.17511989    557.617720    0.50075   -0.40504    0.00009    8
   19      0.173D-10      0.230D-11      -232.17511989    557.617720    0.50075   -0.40504    0.00009    8
   20      0.637D-11      0.765D-12      -232.17511989    557.617720    0.50075   -0.40504    0.00009    7
   21      0.184D-11      0.265D-12      -232.17511989    557.617720    0.50075   -0.40504    0.00009    7
   22      0.669D-12      0.891D-13      -232.17511989    557.617720    0.50075   -0.40504    0.00009    7
   23      0.281D-12      0.536D-13      -232.17511989    557.617720    0.50075   -0.40504    0.00009    8
   24      0.231D-12      0.322D-13      -232.17511989    557.617720    0.50075   -0.40504    0.00009    8
   25      0.134D-12      0.240D-13      -232.17511989    557.617720    0.50075   -0.40504    0.00009    9
   26      0.901D-13      0.270D-13      -232.17511989    557.617720    0.50075   -0.40504    0.00009    0

 Final occupancy:  21

 !RHF STATE 1.1 Energy               -232.175119892539
 Nuclear energy                       199.65082431
 One-electron energy                 -710.63480430
 Two-electron energy                  278.80886009
 Virial quotient                       -1.00088993
 !RHF STATE 1.1 Dipole moment           0.50074687    -0.40504395     0.00009166
 Dipole moment /Debye                   1.27268824    -1.02945160     0.00023297

 Orbital energies:

         1.1          2.1          3.1          4.1          5.1          6.1          7.1          8.1          9.1         10.1
    -20.545136   -11.282094   -11.220461   -11.220431   -11.214421    -1.352184    -1.064274    -0.940000    -0.938085    -0.766713

        11.1         12.1         13.1         14.1         15.1         16.1         17.1         18.1         19.1         20.1
     -0.665562    -0.621035    -0.617969    -0.572974    -0.554395    -0.527842    -0.514398    -0.505488    -0.500114    -0.458080

        21.1         22.1         23.1
     -0.426885     0.166833     0.220060


 **********************************************************************************************************************************
 DATASETS  * FILE   NREC   LENGTH (MB)   RECORD NAMES
              1      19      206.93       500      610      700      900      950      970     1000      129      960     1100   
                                          VAR    BASINP    GEOM    SYMINP    ZMAT    AOBASIS   BASIS     P2S    ABASIS      S 
                                         1400     1410     1200     1210     1080     1600     1650     1300     1700   
                                           T        V       H0       H01     AOSYM     SMH    MOLCAS    ERIS     OPER   

              2       3        0.80       700     1000     2100   
                                         GEOM     BASIS     RHF  

 PROGRAMS   *        TOTAL       RHF       INT
 CPU TIMES  *         8.84      5.33      3.46
 REAL TIME  *        10.96 SEC
 DISK USED  *       748.03 MB      
 GA USED    *         0.01 MB       (max)       0.00 MB       (current)
 **********************************************************************************************************************************


1PROGRAM * CCSD (Closed-shell coupled cluster)     Authors: C. Hampel, H.-J. Werner, 1991, M. Deegan, P.J. Knowles, 1992


 Convergence thresholds:  THRVAR = 1.00D-08  THRDEN = 1.00D-12

 CCSD(T)     terms to be evaluated (factor= 1.000)


 Number of core orbitals:           5 (   5 )
 Number of closed-shell orbitals:  16 (  16 )
 Number of external orbitals:      99 (  99 )

 Molecular orbitals read from record     2100.2  Type=RHF/CANONICAL (state 1.1)

 Number of N-1 electron functions:              16
 Number of N-2 electron functions:             136
 Number of singly external CSFs:              1584
 Number of doubly external CSFs:           1255320
 Total number of CSFs:                     1256905

 Length of J-op  integral file:               0.00 MB
 Length of K-op  integral file:               1.03 MB
 Length of 3-ext integral record:             0.00 MB

 Memory could be reduced to 21.47 Mwords without degradation in triples

 Integral transformation finished. Total CPU:   1.70 sec, npass=  1  Memory used:  18.35 MW

 Reference energy:                   -232.17511989

 MP2 singlet pair energy:              -0.49759660
 MP2 triplet pair energy:              -0.27475144
 MP2 correlation energy:               -0.77234804
 MP2 total energy:                   -232.94746793

 SCS-MP2 correlation energy:           -0.76807237   (PS=  1.200000  PT=  0.333333)
 SCS-MP2 total energy:               -232.94319226

 ITER.      SQ.NORM     CORR.ENERGY   TOTAL ENERGY   ENERGY CHANGE        DEN1      VAR(S)    VAR(P)  DIIS     TIME
   1      1.27363243    -0.82954765  -233.00466754    -0.05719961    -0.03606033  0.25D-02  0.44D-02  1  1     7.09
   2      1.29481871    -0.83386857  -233.00898846    -0.00432092    -0.02220539  0.67D-04  0.42D-03  2  2    12.54
   3      1.29934509    -0.83407875  -233.00919864    -0.00021018    -0.00277716  0.25D-04  0.24D-04  3  3    17.99
   4      1.30061342    -0.83408463  -233.00920452    -0.00000587    -0.00060336  0.64D-06  0.21D-05  4  4    23.44
   5      1.30084507    -0.83409360  -233.00921349    -0.00000897    -0.00008111  0.19D-06  0.15D-06  5  5    28.89
   6      1.30088630    -0.83409033  -233.00921023     0.00000326    -0.00001321  0.26D-07  0.14D-07  6  6    34.35
   7      1.30089324    -0.83408911  -233.00920901     0.00000122    -0.00000072  0.38D-08  0.17D-08  6  1    39.82
   8      1.30089682    -0.83408913  -233.00920902    -0.00000001    -0.00000042  0.69D-09  0.22D-09  6  2    45.28
   9      1.30089740    -0.83408906  -233.00920895     0.00000006     0.00000057  0.64D-10  0.39D-10  6  4    50.73
  10      1.30089798    -0.83408905  -233.00920894     0.00000001    -0.00000001  0.51D-11  0.38D-11  6  3    56.19
  11      1.30089796    -0.83408905  -233.00920894    -0.00000000     0.00000005  0.79D-12  0.47D-12  6  5    61.63
  12      1.30089790    -0.83408905  -233.00920894    -0.00000000     0.00000003  0.14D-12  0.66D-13  6  6    67.10
  13      1.30089784    -0.83408906  -233.00920895    -0.00000000     0.00000003  0.11D-13  0.10D-13  6  2    72.55
  14      1.30089783    -0.83408906  -233.00920895    -0.00000000     0.00000001  0.17D-14  0.62D-15  6  1    78.01
  15      1.30089783    -0.83408906  -233.00920895    -0.00000000     0.00000000  0.22D-15  0.13D-15  6  4    83.48
  16      1.30089783    -0.83408906  -233.00920895     0.00000000    -0.00000000  0.35D-16  0.20D-16  6  3    88.93
  17      1.30089783    -0.83408906  -233.00920895     0.00000000    -0.00000000  0.33D-17  0.26D-17  6  5    94.41
  18      1.30089783    -0.83408906  -233.00920895    -0.00000000    -0.00000000  0.89D-18  0.35D-18  6  6    99.86
  19      1.30089783    -0.83408906  -233.00920895    -0.00000000    -0.00000000  0.22D-18  0.63D-19  6  2   105.32
  20      1.30089783    -0.83408906  -233.00920895    -0.00000000     0.00000000  0.33D-19  0.12D-19  6  1   110.77
  21      1.30089783    -0.83408906  -233.00920895    -0.00000000     0.00000000  0.40D-20  0.21D-20  6  4   116.23
  22      1.30089783    -0.83408906  -233.00920895     0.00000000    -0.00000000  0.69D-21  0.32D-21  6  3   121.68

 Norm of t1 vector:      0.06604165      S-energy:    -0.00000000      T1 diagnostic:  0.00825521
                                                                       D1 diagnostic:  0.02161498


 Total CPU time for triples:     78.27 sec


 RESULTS
 =======

  Reference energy                   -232.175119892539
  CCSD singlet pair energy             -0.581025595232
  CCSD triplet pair energy             -0.253063461405
  CCSD correlation energy              -0.834089056637

  Triples (T) contribution             -0.023260195849
  Total correlation energy             -0.857349252487

  CCSD total energy                  -233.009208949176
  CCSD[T] energy                     -233.033165896028
  CCSD-T energy                      -233.032133132173
 !CCSD(T) total energy               -233.032469145026

 Timing summary (sec):

 STEP                 CPU(USER)    SYS     CPU(TOT)    WALL
 Transformation          1.80      0.15      1.95      1.94
 CCSD iterations       119.89      1.96    121.85    121.99
 Triples                78.27      1.18     79.45     79.47

 Program statistics:

 Available memory in ccsd:               999998876
 Min. memory needed in ccsd:               3310297
 Max. memory used in ccsd:                 4412497
 Max. memory used in cckext:               4149679 (22 integral passes)



 **********************************************************************************************************************************
 DATASETS  * FILE   NREC   LENGTH (MB)   RECORD NAMES
              1      20      293.59       500      610      700      900      950      970     1000      129      960     1100   
                                          VAR    BASINP    GEOM    SYMINP    ZMAT    AOBASIS   BASIS     P2S    ABASIS      S 
                                         1400     1410     1200     1210     1080     1600     1650     1300     1700     1380   
                                           T        V       H0       H01     AOSYM     SMH    MOLCAS    ERIS     OPER     JKOP   

              2       3        0.80       700     1000     2100   
                                         GEOM     BASIS     RHF  

 PROGRAMS   *        TOTAL   CCSD(T)       RHF       INT
 CPU TIMES  *       208.82    199.97      5.33      3.46
 REAL TIME  *       214.41 SEC
 DISK USED  *       748.03 MB      
 GA USED    *         0.01 MB       (max)       0.00 MB       (current)
 **********************************************************************************************************************************

        CCSD(T)         RHF-SCF 
   -233.03246915   -232.17511989
 **********************************************************************************************************************************
 Variable memory released
