
 Primary working directories    : /tmp/1213109.1102.gen6.q
 Secondary working directories  : /tmp/1213109.1102.gen6.q
 Wavefunction directory         : /home/vulcan/jj04645/wfu/
 Main file repository           : /tmp/1213109.1102.gen6.q/

 ARCHNAME  : Linux/x86_64
 FC        : /opt/intel/compilers_and_libraries_2016.1.150/linux/bin/intel64/ifort
 FCVERSION : 16.0.1
 BLASLIB   : -mkl
 id        : ccgc

 Nodes     nprocs
 n076         1
 ga_uses_ma=false, calling ma_init with nominal heap.
 GA-space will be limited to   8.0 MW (determined by -G option)

 Using customized tuning parameters: mindgm=10; mindgv=16; mindgc=4; mindgr=1; noblas=0; mincuda=1000; minvec=7
 default implementation of scratch files=df  

 ***,Optimization of neopentane
 memory,1000,m
 gthresh,energy=1.0d-12,orbital=1.0d-10,oneint=1.0d-16,twoint=1.0d-16,optgrad=1.0d-6,compress=1.0d-13
 geomtyp=xyz
 
 
 
 bohr
 geometry = {
  C    0.0000000000    0.0000000000    0.0000000000
  C    2.3654418670    0.0000000000   -1.6726199847
  C    0.0000000000   -2.3654418670    1.6726199847
  C   -0.0000000000    2.3654418670    1.6726199847
  C   -2.3554418670   -0.0000000000   -1.6726199847
  H    2.4088542476    1.6828638369   -2.8862105364
  H   -1.6728638369   -2.4088542476    2.8862105364
  H    1.6728638369    2.4088542476    2.8862105364
  H   -2.4088542476   -1.6728638369   -2.8862105364
  H    4.0817180846    0.0000000000   -0.5204238103
  H    0.0000000000   -4.0817180846    0.5204238103
  H   -0.0000000000    4.0817180846    0.5204238103
  H   -4.0817180846   -0.0000000000   -0.5204238103
  H    2.4088542476   -1.6728638369   -2.8862105364
  H    1.6728638369   -2.4088542476    2.8862105364
  H   -1.6728638369    2.4088542476    2.8862105364
  H   -2.4088542476    1.6728638369   -2.8862105364
 }
 
 basis=VTZ
 {rhf;maxit,200}
 {mp2}

 Variables initialized (661), CPU time= 0.01 sec
 Commands  initialized (458), CPU time= 0.00 sec, 486 directives.
 Default parameters read. Elapsed time= 0.04 sec

 Checking input...
 Passed
1


                                         ***  PROGRAM SYSTEM MOLPRO  ***
                         Copyright, University College Cardiff Consultants Limited, 2008

                                    Version 2010.1 linked May 16 2016 07:17:05


 **********************************************************************************************************************************
 LABEL *   Optimization of neopentane                                                    
 Linux-4.4.3/n076(x86_64) 64 bit mpp version                                             DATE: 07-Dec-24          TIME: 07:36:28  
 **********************************************************************************************************************************

 SHA1:             9e8077add272b0f3cad6f7df79ec5211205f459d
 **********************************************************************************************************************************

 THRESHOLDS:

 ZERO    =  1.00D-12  ONEINT  =  1.00D-16  TWOINT  =  1.00D-16  PREFAC  =  1.00D-14  LOCALI  =  1.00D-09  EORDER  =  1.00D-04
 ENERGY  =  1.00D-12  ETEST   =  0.00D+00  EDENS   =  0.00D+00  THRDEDEF=  1.00D-06  GRADIENT=  1.00D-02  STEP    =  1.00D-03
 ORBITAL =  1.00D-10  CIVEC   =  1.00D-05  COEFF   =  1.00D-04  PRINTCI =  5.00D-02  PUNCHCI =  9.90D+01  OPTGRAD =  1.00D-06
 OPTENERG=  1.00D-06  OPTSTEP =  3.00D-04  THRGRAD =  1.00D-10  COMPRESS=  1.00D-13  VARMIN  =  1.00D-07  VARMAX  =  1.00D-03
 THRDOUB =  0.00D+00  THRDIV  =  1.00D-05  THRRED  =  1.00D-07  THRPSP  =  1.00D+00  THRDC   =  1.00D-10  THRCS   =  1.00D-10
 THRNRM  =  1.00D-08  THREQ   =  0.00D+00  THRDE   =  1.00D+00  THRREF  =  1.00D-05  SPARFAC =  1.00D+00  THRDLP  =  1.00D-07
 THRDIA  =  1.00D-10  THRDLS  =  1.00D-07  THRGPS  =  0.00D+00  THRKEX  =  0.00D+00  THRDIS  =  2.00D-01  THRVAR  =  1.00D-10
 THRLOC  =  1.00D-06  THRGAP  =  1.00D-06  THRLOCT = -1.00D+00  THRGAPT = -1.00D+00  THRORB  =  1.00D-06  THRMLTP =  0.00D+00
 THRCPQCI=  1.00D-10  KEXTA   =  0.00D+00  THRCOARS=  0.00D+00  SYMTOL  =  1.00D-06  GRADTOL =  1.00D-06  THROVL  =  1.00D-08
 THRORTH =  1.00D-08  GRID    =  1.00D-06  GRIDMAX =  1.00D-03  DTMAX   =  0.00D+00

 SETTING GEOMTYP        =    XYZ
 ZUNIT=BOHR
 

 Variable memory set to 1000000000 words,  buffer space   230000 words

 SETTING BASIS          =    VTZ


 Recomputing integrals since basis changed


 Using spherical harmonics

 Library entry C      S cc-pVTZ              selected for orbital group  1
 Library entry C      P cc-pVTZ              selected for orbital group  1
 Library entry C      D cc-pVTZ              selected for orbital group  1
 Library entry C      F cc-pVTZ              selected for orbital group  1
 Library entry H      S cc-pVTZ              selected for orbital group  2
 Library entry H      P cc-pVTZ              selected for orbital group  2
 Library entry H      D cc-pVTZ              selected for orbital group  2

1PROGRAM * SEWARD (Integral evaluation for generally contracted gaussian basis sets)     Author: Roland Lindh, 1990

 Geometry written to block  1 of record 700


 Point group  C1  



 ATOMIC COORDINATES

 NR  ATOM    CHARGE       X              Y              Z

   1  C       6.00    0.000000000    0.000000000    0.000000000
   2  C       6.00    2.365441867    0.000000000   -1.672619985
   3  C       6.00    0.000000000   -2.365441867    1.672619985
   4  C       6.00    0.000000000    2.365441867    1.672619985
   5  C       6.00   -2.355441867    0.000000000   -1.672619985
   6  H       1.00    2.408854248    1.682863837   -2.886210536
   7  H       1.00   -1.672863837   -2.408854248    2.886210536
   8  H       1.00    1.672863837    2.408854248    2.886210536
   9  H       1.00   -2.408854248   -1.672863837   -2.886210536
  10  H       1.00    4.081718085    0.000000000   -0.520423810
  11  H       1.00    0.000000000   -4.081718085    0.520423810
  12  H       1.00    0.000000000    4.081718085    0.520423810
  13  H       1.00   -4.081718085    0.000000000   -0.520423810
  14  H       1.00    2.408854248   -1.672863837   -2.886210536
  15  H       1.00    1.672863837   -2.408854248    2.886210536
  16  H       1.00   -1.672863837    2.408854248    2.886210536
  17  H       1.00   -2.408854248    1.672863837   -2.886210536

 Bond lengths in Bohr (Angstrom)

 1-2  2.897062795  1-3  2.897062795  1-4  2.897062795  1-5  2.888903599  2-6  2.075263202
     ( 1.533059604)     ( 1.533059604)     ( 1.533059604)     ( 1.528741943)     ( 1.098181989)

  2-10  2.067162325   2-14  2.067162325   3- 7  2.067162325   3-11  2.067162325   3-15  2.067162325
       ( 1.093895190)       ( 1.093895190)       ( 1.093895190)       ( 1.093895190)       ( 1.093895190)

  4- 8  2.067162325   4-12  2.067162325   4-16  2.067162325   5- 9  2.067396509   5-13  2.075472381
       ( 1.093895190)       ( 1.093895190)       ( 1.093895190)       ( 1.094019115)       ( 1.098292682)

  5-17  2.067396509
       ( 1.094019115)

 Bond angles

  1- 2- 6  110.77556221   1- 2-10  110.86076877   1- 2-14  110.86076877   1- 3- 7  110.86076877

  1- 3-11  110.86076877   1- 3-15  110.86076877   1- 4- 8  110.86076877   1- 4-12  110.86076877

  1- 4-16  110.86076877   1- 5- 9  111.15760763   1- 5-13  110.90013395   1- 5-17  111.15760763

  2-1-3  109.47122064   2-1-4  109.47122064   2-1-5  109.35671437   3-1-4  109.47122063

  3- 1- 5  109.52844339   4- 1- 5  109.52844339   6- 2-10  107.97378210   6- 2-14  108.20882922

  7- 3-11  108.04663875   7- 3-15  108.04663875   8- 4-12  108.04663875   8- 4-16  108.04663875

  9- 5-13  107.72155053   9- 5-17  108.02875947  10- 2-14  108.04663875  11- 3-15  108.04663875

 12- 4-16  108.04663875  13- 5-17  107.72155053

 NUCLEAR CHARGE:                   42
 NUMBER OF PRIMITIVE AOS:         439
 NUMBER OF SYMMETRY AOS:          402
 NUMBER OF CONTRACTIONS:          318   ( 318A   )
 NUMBER OF CORE ORBITALS:           5   (   5A   )
 NUMBER OF VALENCE ORBITALS:       32   (  32A   )


 NUCLEAR REPULSION ENERGY  198.64815414


 Eigenvalues of metric

         1 0.632E-03 0.636E-03 0.637E-03 0.822E-03 0.101E-02 0.101E-02 0.101E-02 0.125E-02


 Contracted 2-electron integrals neglected if value below      1.0D-16
 AO integral compression algorithm  1   Integral accuracy      1.0D-16

     8580.235 MB (compressed) written to integral file ( 78.9%)

     Node minimum: 8580.235 MB, node maximum: 8580.235 MB


 NUMBER OF SORTED TWO-ELECTRON INTEGRALS: 1286335281.     BUFFER LENGTH:  32768
 NUMBER OF SEGMENTS:  41  SEGMENT LENGTH:   31998710      RECORD LENGTH: 524288

 Memory used in sort:      32.56 MW

 SORT1 READ  1359133672. AND WROTE  1219988232. INTEGRALS IN   3511 RECORDS. CPU TIME:    13.28 SEC, REAL TIME:    31.69 SEC
 SORT2 READ  1219988232. AND WROTE  1286335281. INTEGRALS IN  32731 RECORDS. CPU TIME:     8.15 SEC, REAL TIME:    43.28 SEC

 FILE SIZES:   FILE 1:  8205.1 MBYTE,  FILE 4: 14726.2 MBYTE,   TOTAL:  22931.3 MBYTE

 OPERATOR DM      FOR CENTER  0  COORDINATES:    0.000000    0.000000    0.000000


 **********************************************************************************************************************************
 DATASETS  * FILE   NREC   LENGTH (MB)   RECORD NAMES
              1      19     8206.28       500      610      700      900      950      970     1000      129      960     1100   
                                          VAR    BASINP    GEOM    SYMINP    ZMAT    AOBASIS   BASIS     P2S    ABASIS      S 
                                         1400     1410     1200     1210     1080     1600     1650     1300     1700   
                                           T        V       H0       H01     AOSYM     SMH    MOLCAS    ERIS     OPER   

 PROGRAMS   *        TOTAL       INT
 CPU TIMES  *        64.30     64.26
 REAL TIME  *       123.33 SEC
 DISK USED  *        31.51 GB      
 GA USED    *         0.01 MB       (max)       0.00 MB       (current)
 **********************************************************************************************************************************

1PROGRAM * RHF-SCF (CLOSED SHELL)       Authors: W. Meyer, H.-J. Werner


 NUMBER OF ELECTRONS:      21+   21-    SPACE SYMMETRY=1    SPIN SYMMETRY: Singlet 
 CONVERGENCE THRESHOLDS:    1.00E-10 (Density)    1.00E-13 (Energy)
 MAX. NUMBER OF ITERATIONS:      200
 INTERPOLATION TYPE:            DIIS
 INTERPOLATION STEPS:              2 (START)      1 (STEP)
 LEVEL SHIFTS:                  0.00 (CLOSED)  0.00 (OPEN) 



 Orbital guess generated from atomic densities. Full valence occupancy:   37

 Molecular orbital dump at record        2100.2

 ITERATION    DDIFF          GRAD             ENERGY        2-EL.EN.            DIPOLE MOMENTS         DIIS
    1      0.000D+00      0.000D+00      -196.32335506    528.300048   -0.00501    0.00173   -0.00008    0
    2      0.000D+00      0.199D-02      -196.39265777    521.886055    0.00040   -0.00143    0.00019    1
    3      0.392D-02      0.804D-03      -196.40179650    524.806052   -0.00010   -0.00084    0.00086    2
    4      0.124D-02      0.257D-03      -196.40318051    524.094355    0.00019   -0.00114    0.00074    3
    5      0.438D-03      0.552D-04      -196.40322881    524.162284    0.00031   -0.00116    0.00084    4
    6      0.965D-04      0.130D-04      -196.40323186    524.154637    0.00031   -0.00116    0.00084    5
    7      0.343D-04      0.133D-05      -196.40323191    524.154964    0.00031   -0.00116    0.00085    6
    8      0.569D-05      0.280D-06      -196.40323192    524.154864    0.00031   -0.00116    0.00085    6
    9      0.982D-06      0.493D-07      -196.40323192    524.154875    0.00031   -0.00116    0.00085    6
   10      0.131D-06      0.976D-08      -196.40323192    524.154867    0.00031   -0.00116    0.00085    6
   11      0.331D-07      0.305D-08      -196.40323192    524.154871    0.00031   -0.00116    0.00085    6
   12      0.606D-08      0.394D-09      -196.40323192    524.154870    0.00031   -0.00116    0.00085    6
   13      0.126D-08      0.136D-09      -196.40323192    524.154870    0.00031   -0.00116    0.00085    6
   14      0.268D-09      0.443D-10      -196.40323192    524.154870    0.00031   -0.00116    0.00085    6
   15      0.870D-10      0.110D-10      -196.40323192    524.154870    0.00031   -0.00116    0.00085    7
   16      0.369D-10      0.306D-11      -196.40323192    524.154870    0.00031   -0.00116    0.00085    7
   17      0.805D-11      0.664D-12      -196.40323192    524.154870    0.00031   -0.00116    0.00085    7
   18      0.201D-11      0.176D-12      -196.40323192    524.154870    0.00031   -0.00116    0.00085    7
   19      0.132D-11      0.104D-12      -196.40323192    524.154870    0.00031   -0.00116    0.00085    8
   20      0.819D-12      0.848D-13      -196.40323192    524.154870    0.00031   -0.00116    0.00085    8
   21      0.565D-12      0.711D-13      -196.40323192    524.154870    0.00031   -0.00116    0.00085    9
   22      0.335D-12      0.704D-13      -196.40323192    524.154870    0.00031   -0.00116    0.00085    9
   23      0.234D-12      0.631D-13      -196.40323192    524.154870    0.00031   -0.00116    0.00085    9
   24      0.156D-12      0.605D-13      -196.40323192    524.154870    0.00031   -0.00116    0.00085    9
   25      0.103D-12      0.549D-13      -196.40323192    524.154870    0.00031   -0.00116    0.00085    9
   26      0.121D-12      0.563D-13      -196.40323192    524.154870    0.00031   -0.00116    0.00085    9
   27      0.974D-13      0.584D-13      -196.40323192    524.154870    0.00031   -0.00116    0.00085    9
   28      0.964D-13      0.567D-13      -196.40323192    524.154870    0.00031   -0.00116    0.00085    9
   29      0.135D-12      0.657D-13      -196.40323192    524.154870    0.00031   -0.00116    0.00085    9
   30      0.162D-12      0.609D-13      -196.40323192    524.154870    0.00031   -0.00116    0.00085    9
   31      0.159D-12      0.689D-13      -196.40323192    524.154870    0.00031   -0.00116    0.00085    9
   32      0.135D-12      0.610D-13      -196.40323192    524.154870    0.00031   -0.00116    0.00085    9
   33      0.954D-13      0.654D-13      -196.40323192    524.154870    0.00031   -0.00116    0.00085    9
   34      0.865D-13      0.636D-13      -196.40323192    524.154870    0.00031   -0.00116    0.00085    9
   35      0.156D-12      0.645D-13      -196.40323192    524.154870    0.00031   -0.00116    0.00085    9
   36      0.145D-12      0.566D-13      -196.40323192    524.154870    0.00031   -0.00116    0.00085    9
   37      0.164D-12      0.685D-13      -196.40323192    524.154870    0.00031   -0.00116    0.00085    9
   38      0.234D-12      0.881D-13      -196.40323192    524.154870    0.00031   -0.00116    0.00085    0

 Final occupancy:  21

 !RHF STATE 1.1 Energy               -196.403231915150
 Nuclear energy                       198.64815414
 One-electron energy                 -657.12882117
 Two-electron energy                  262.07743511
 Virial quotient                       -1.00126852
 !RHF STATE 1.1 Dipole moment           0.00031324    -0.00116343     0.00084953
 Dipole moment /Debye                   0.00079612    -0.00295695     0.00215916

 Orbital energies:

         1.1          2.1          3.1          4.1          5.1          6.1          7.1          8.1          9.1         10.1
    -11.229615   -11.207751   -11.207470   -11.207330   -11.207294    -1.103384    -0.927220    -0.927156    -0.926698    -0.729093

        11.1         12.1         13.1         14.1         15.1         16.1         17.1         18.1         19.1         20.1
     -0.610129    -0.609821    -0.609614    -0.551813    -0.551369    -0.508930    -0.508842    -0.507913    -0.452767    -0.451573

        21.1         22.1         23.1
     -0.451195     0.133202     0.185971


 **********************************************************************************************************************************
 DATASETS  * FILE   NREC   LENGTH (MB)   RECORD NAMES
              1      19     8206.28       500      610      700      900      950      970     1000      129      960     1100   
                                          VAR    BASINP    GEOM    SYMINP    ZMAT    AOBASIS   BASIS     P2S    ABASIS      S 
                                         1400     1410     1200     1210     1080     1600     1650     1300     1700   
                                           T        V       H0       H01     AOSYM     SMH    MOLCAS    ERIS     OPER   

              2       3        2.61       700     1000     2100   
                                         GEOM     BASIS     RHF  

 PROGRAMS   *        TOTAL       RHF       INT
 CPU TIMES  *       387.70    323.40     64.26
 REAL TIME  *       474.92 SEC
 DISK USED  *        31.51 GB      
 GA USED    *         0.01 MB       (max)       0.00 MB       (current)
 **********************************************************************************************************************************


1PROGRAM * MP2 (Closed-shell)     Authors: C. Hampel, H.-J. Werner, 1991, M. Deegan, P.J. Knowles, 1992


 Convergence thresholds:  THRVAR = 1.00D-08  THRDEN = 1.00D-12

 Number of core orbitals:           5 (   5 )
 Number of closed-shell orbitals:  16 (  16 )
 Number of external orbitals:     297 ( 297 )

 Molecular orbitals read from record     2100.2  Type=RHF/CANONICAL (state 1.1)

 Number of N-1 electron functions:              16
 Number of N-2 electron functions:             136
 Number of singly external CSFs:              4752
 Number of doubly external CSFs:          11293128
 Total number of CSFs:                    11297881

 Length of J-op  integral file:               0.00 MB
 Length of K-op  integral file:               7.00 MB

 Integral transformation finished. Total CPU:  19.61 sec, npass=  1  Memory used:  24.77 MW

 Memory needed for MP2:                      0.49 MW

 SCS-MP2 correlation energy:           -0.910354204056   (PS=  1.200000  PT=  0.333333)
 SCS-MP2 total energy:               -197.313586119206


  Reference energy                   -196.403231915150
  MP2 singlet pair energy              -0.606272355445
  MP2 triplet pair energy              -0.293829713874
  MP2 correlation energy               -0.900102069320

 !MP2 total energy                   -197.303333984469


 **********************************************************************************************************************************
 DATASETS  * FILE   NREC   LENGTH (MB)   RECORD NAMES
              1      20     8373.46       500      610      700      900      950      970     1000      129      960     1100   
                                          VAR    BASINP    GEOM    SYMINP    ZMAT    AOBASIS   BASIS     P2S    ABASIS      S 
                                         1400     1410     1200     1210     1080     1600     1650     1300     1700     1380   
                                           T        V       H0       H01     AOSYM     SMH    MOLCAS    ERIS     OPER     JKOP   

              2       3        2.61       700     1000     2100   
                                         GEOM     BASIS     RHF  

 PROGRAMS   *        TOTAL       MP2       RHF       INT
 CPU TIMES  *       408.23     20.53    323.40     64.26
 REAL TIME  *       496.69 SEC
 DISK USED  *        31.51 GB      
 GA USED    *         0.01 MB       (max)       0.00 MB       (current)
 **********************************************************************************************************************************

        MP2             RHF-SCF 
   -197.30333398   -196.40323192
 **********************************************************************************************************************************
 Variable memory released
