
 Primary working directories    : /tmp/917005.143.gen4.q
 Secondary working directories  : /tmp/917005.143.gen4.q
 Wavefunction directory         : /home/vulcan/lo21740/wfu/
 Main file repository           : /tmp/917005.143.gen4.q/

 ARCHNAME  : Linux/x86_64
 FC        : /opt/intel/compilers_and_libraries_2016.1.150/linux/bin/intel64/ifort
 FCVERSION : 16.0.1
 BLASLIB   : -mkl
 id        : ccgc

 Nodes     nprocs
 n029         1
 ga_uses_ma=false, calling ma_init with nominal heap.
 GA-space will be limited to   8.0 MW (determined by -G option)

 Using customized tuning parameters: mindgm=10; mindgv=16; mindgc=4; mindgr=1; noblas=0; mincuda=1000; minvec=7
 default implementation of scratch files=df  

 ***,Optimization of h2o_2
 memory,1000,m
 gthresh,energy=1.0d-12,orbital=1.0d-10,oneint=1.0d-16,twoint=1.0d-16,optgrad=1.0d-6,compress=1.0d-13
 geomtyp=xyz
 
 bohr
 geometry = {
  C   -0.0011534718   -3.4205233007    0.0000000000
  H   -0.9691041269   -2.7322369748   -1.6768468814
  H   -0.9691041269   -2.7322369764    1.6768468822
  H    1.9446998834   -2.7296319635    0.0000000004
  H   -0.0016822492   -5.4853350911   -0.0000000009
  C   -0.0007318098    3.4218541188   -0.0000000013
  H   -0.0013864556    5.4766658724   -0.0000000012
  H    0.9676142304    2.7341241572   -1.6768468799
  H    0.9676142267    2.7341241569    1.6768468792
  H   -1.9367661003    2.7331960011    0.0000000029
 }
 
 basis=VDZ
 {rhf;maxit,200}
 {ccsd(t);maxit,200}

 Variables initialized (661), CPU time= 0.01 sec
 Commands  initialized (458), CPU time= 0.00 sec, 486 directives.
 Default parameters read. Elapsed time= 0.05 sec

 Checking input...
 Passed
1


                                         ***  PROGRAM SYSTEM MOLPRO  ***
                         Copyright, University College Cardiff Consultants Limited, 2008

                                    Version 2010.1 linked May 16 2016 07:17:05


 **********************************************************************************************************************************
 LABEL *   Optimization of h2o_2                                                         
 Linux-4.4.3/n029(x86_64) 64 bit mpp version                                             DATE: 19-Jul-23          TIME: 16:10:57  
 **********************************************************************************************************************************

 SHA1:             9e8077add272b0f3cad6f7df79ec5211205f459d
 **********************************************************************************************************************************

 THRESHOLDS:

 ZERO    =  1.00D-12  ONEINT  =  1.00D-16  TWOINT  =  1.00D-16  PREFAC  =  1.00D-14  LOCALI  =  1.00D-09  EORDER  =  1.00D-04
 ENERGY  =  1.00D-12  ETEST   =  0.00D+00  EDENS   =  0.00D+00  THRDEDEF=  1.00D-06  GRADIENT=  1.00D-02  STEP    =  1.00D-03
 ORBITAL =  1.00D-10  CIVEC   =  1.00D-05  COEFF   =  1.00D-04  PRINTCI =  5.00D-02  PUNCHCI =  9.90D+01  OPTGRAD =  1.00D-06
 OPTENERG=  1.00D-06  OPTSTEP =  3.00D-04  THRGRAD =  1.00D-10  COMPRESS=  1.00D-13  VARMIN  =  1.00D-07  VARMAX  =  1.00D-03
 THRDOUB =  0.00D+00  THRDIV  =  1.00D-05  THRRED  =  1.00D-07  THRPSP  =  1.00D+00  THRDC   =  1.00D-10  THRCS   =  1.00D-10
 THRNRM  =  1.00D-08  THREQ   =  0.00D+00  THRDE   =  1.00D+00  THRREF  =  1.00D-05  SPARFAC =  1.00D+00  THRDLP  =  1.00D-07
 THRDIA  =  1.00D-10  THRDLS  =  1.00D-07  THRGPS  =  0.00D+00  THRKEX  =  0.00D+00  THRDIS  =  2.00D-01  THRVAR  =  1.00D-10
 THRLOC  =  1.00D-06  THRGAP  =  1.00D-06  THRLOCT = -1.00D+00  THRGAPT = -1.00D+00  THRORB  =  1.00D-06  THRMLTP =  0.00D+00
 THRCPQCI=  1.00D-10  KEXTA   =  0.00D+00  THRCOARS=  0.00D+00  SYMTOL  =  1.00D-06  GRADTOL =  1.00D-06  THROVL  =  1.00D-08
 THRORTH =  1.00D-08  GRID    =  1.00D-06  GRIDMAX =  1.00D-03  DTMAX   =  0.00D+00

 SETTING GEOMTYP        =    XYZ
 ZUNIT=BOHR
 

 Variable memory set to 1000000000 words,  buffer space   230000 words

 SETTING BASIS          =    VDZ


 Recomputing integrals since basis changed


 Using spherical harmonics

 Library entry C      S cc-pVDZ              selected for orbital group  1
 Library entry C      P cc-pVDZ              selected for orbital group  1
 Library entry C      D cc-pVDZ              selected for orbital group  1
 Library entry H      S cc-pVDZ              selected for orbital group  2
 Library entry H      P cc-pVDZ              selected for orbital group  2

1PROGRAM * SEWARD (Integral evaluation for generally contracted gaussian basis sets)     Author: Roland Lindh, 1990

 Geometry written to block  1 of record 700


 Point group  Cs  



 ATOMIC COORDINATES

 NR  ATOM    CHARGE       X              Y              Z

   1  C       6.00   -0.001153472   -3.420523301    0.000000000
   2  H       1.00   -0.969104127   -2.732236976   -1.676846882
   3  H       1.00   -0.969104127   -2.732236976    1.676846882
   4  H       1.00    1.944699883   -2.729631964    0.000000000
   5  H       1.00   -0.001682249   -5.485335091    0.000000000
   6  C       6.00   -0.000731810    3.421854119    0.000000000
   7  H       1.00   -0.001386456    5.476665872    0.000000000
   8  H       1.00    0.967614229    2.734124157   -1.676846882
   9  H       1.00    0.967614229    2.734124157    1.676846882
  10  H       1.00   -1.936766100    2.733196001    0.000000000

 Bond lengths in Bohr (Angstrom)

 1-2  2.054867879  1-3  2.054867879  1-4  2.064867095  1-5  2.064811858  6-7  2.054811858
     ( 1.087389249)     ( 1.087389249)     ( 1.092680606)     ( 1.092651376)     ( 1.087359604)

  6- 8  2.054867883   6- 9  2.054867883   6-10  2.054867095
       ( 1.087389251)       ( 1.087389251)       ( 1.087388834)

 Bond angles

  2-1-3  109.37992595   2-1-4  109.37980993   2-1-5  109.56240805   3-1-4  109.37980993

  3-1-5  109.56240805   4-1-5  109.56250040   7-6-8  109.56240841   7-6-9  109.56240841

  7- 6-10  109.56250040   8- 6- 9  109.37992568   8- 6-10  109.37980970   9- 6-10  109.37980970

 NUCLEAR CHARGE:                   20
 NUMBER OF PRIMITIVE AOS:         110
 NUMBER OF SYMMETRY AOS:          108
 NUMBER OF CONTRACTIONS:           68   (  46A'  +  22A"  )
 NUMBER OF CORE ORBITALS:           2   (   2A'  +   0A"  )
 NUMBER OF VALENCE ORBITALS:       16   (  12A'  +   4A"  )


 NUCLEAR REPULSION ENERGY   41.37682242


 Eigenvalues of metric

         1 0.113E-01 0.126E-01 0.347E-01 0.355E-01 0.374E-01 0.382E-01 0.414E-01 0.503E-01
         2 0.346E-01 0.380E-01 0.555E-01 0.577E-01 0.127E+00 0.144E+00 0.288E+00 0.291E+00


 Contracted 2-electron integrals neglected if value below      1.0D-16
 AO integral compression algorithm  1   Integral accuracy      1.0D-16

     11.796 MB (compressed) written to integral file ( 90.4%)

     Node minimum: 11.796 MB, node maximum: 11.796 MB


 NUMBER OF SORTED TWO-ELECTRON INTEGRALS:    1437431.     BUFFER LENGTH:  32768
 NUMBER OF SEGMENTS:   1  SEGMENT LENGTH:    1437431      RECORD LENGTH: 524288

 Memory used in sort:       1.99 MW

 SORT1 READ     1639638. AND WROTE     1407112. INTEGRALS IN      5 RECORDS. CPU TIME:     0.03 SEC, REAL TIME:     0.03 SEC
 SORT2 READ     1407112. AND WROTE     1437431. INTEGRALS IN     45 RECORDS. CPU TIME:     0.03 SEC, REAL TIME:     0.04 SEC

 FILE SIZES:   FILE 1:    13.0 MBYTE,  FILE 4:    21.0 MBYTE,   TOTAL:     34.0 MBYTE

 OPERATOR DM      FOR CENTER  0  COORDINATES:    0.000000    0.000000    0.000000


 **********************************************************************************************************************************
 DATASETS  * FILE   NREC   LENGTH (MB)   RECORD NAMES
              1      19       13.04       500      610      700      900      950      970     1000      129      960     1100   
                                          VAR    BASINP    GEOM    SYMINP    ZMAT    AOBASIS   BASIS     P2S    ABASIS      S 
                                         1400     1410     1200     1210     1080     1600     1650     1300     1700   
                                           T        V       H0       H01     AOSYM     SMH    MOLCAS    ERIS     OPER   

 PROGRAMS   *        TOTAL       INT
 CPU TIMES  *         0.57      0.50
 REAL TIME  *         0.76 SEC
 DISK USED  *        46.58 MB      
 GA USED    *         0.00 MB       (max)       0.00 MB       (current)
 **********************************************************************************************************************************

1PROGRAM * RHF-SCF (CLOSED SHELL)       Authors: W. Meyer, H.-J. Werner


 NUMBER OF ELECTRONS:      10+   10-
 CONVERGENCE THRESHOLDS:    1.00E-10 (Density)    1.00E-13 (Energy)
 MAX. NUMBER OF ITERATIONS:      200
 INTERPOLATION TYPE:            DIIS
 INTERPOLATION STEPS:              2 (START)      1 (STEP)
 LEVEL SHIFTS:                  0.00 (CLOSED)  0.00 (OPEN) 



 Orbital guess generated from atomic densities. Full valence occupancy:   14   4

 Molecular orbital dump at record        2100.2

 Initial alpha occupancy:   8   2
 Initial beta  occupancy:   8   2
 Wave function symmetry:    1

 ITERATION    DDIFF          GRAD             ENERGY        2-EL.EN.            DIPOLE MOMENTS         DIIS
    1      0.000D+00      0.000D+00       -80.35945557    134.898201    0.00252   -0.00184    0.00000    0
    2      0.000D+00      0.848D-02       -80.39224192    132.609555   -0.00103    0.00066    0.00000    1
    3      0.176D-01      0.311D-02       -80.39611524    133.412315   -0.00100    0.00077    0.00000    2
    4      0.612D-02      0.836D-03       -80.39664443    133.275866   -0.00139    0.00112    0.00000    3
    5      0.220D-02      0.880D-04       -80.39664895    133.281864   -0.00144    0.00117    0.00000    4
    6      0.310D-03      0.527D-05       -80.39664897    133.281725   -0.00145    0.00118    0.00000    5
    7      0.272D-04      0.622D-06       -80.39664897    133.281722   -0.00145    0.00118    0.00000    5
    8      0.158D-05      0.216D-06       -80.39664897    133.281722   -0.00145    0.00118    0.00000    5
    9      0.417D-06      0.258D-07       -80.39664897    133.281722   -0.00145    0.00118    0.00000    5
   10      0.762D-07      0.619D-08       -80.39664897    133.281723   -0.00145    0.00118    0.00000    5
   11      0.217D-07      0.973D-09       -80.39664897    133.281723   -0.00145    0.00118    0.00000    6
   12      0.294D-08      0.181D-09       -80.39664897    133.281723   -0.00145    0.00118    0.00000    6
   13      0.496D-09      0.576D-10       -80.39664897    133.281723   -0.00145    0.00118    0.00000    6
   14      0.125D-09      0.152D-10       -80.39664897    133.281723   -0.00145    0.00118    0.00000    6
   15      0.433D-10      0.226D-11       -80.39664897    133.281723   -0.00145    0.00118    0.00000    0

 Final occupancy:   8   2

 !RHF STATE 1.1 Energy                -80.396648973917
 Nuclear energy                        41.37682242
 One-electron energy                 -188.41433285
 Two-electron energy                   66.64086145
 Virial quotient                       -1.00211179
 !RHF STATE 1.1 Dipole moment          -0.00144808     0.00118172     0.00000000
 Dipole moment /Debye                  -0.00368042     0.00300343     0.00000000

 Orbital energies:

         1.1          2.1          3.1          4.1          5.1          6.1          7.1          8.1          9.1         10.1
    -11.215311   -11.214105    -0.944883    -0.938911    -0.549772    -0.545588    -0.538224    -0.534550     0.172575     0.229469

         1.2          2.2          3.2          4.2
     -0.546121    -0.538839     0.257425     0.297495


 **********************************************************************************************************************************
 DATASETS  * FILE   NREC   LENGTH (MB)   RECORD NAMES
              1      19       13.04       500      610      700      900      950      970     1000      129      960     1100   
                                          VAR    BASINP    GEOM    SYMINP    ZMAT    AOBASIS   BASIS     P2S    ABASIS      S 
                                         1400     1410     1200     1210     1080     1600     1650     1300     1700   
                                           T        V       H0       H01     AOSYM     SMH    MOLCAS    ERIS     OPER   

              2       3        0.47       700     1000     2100   
                                         GEOM     BASIS     RHF  

 PROGRAMS   *        TOTAL       RHF       INT
 CPU TIMES  *         0.72      0.16      0.50
 REAL TIME  *         0.95 SEC
 DISK USED  *        46.58 MB      
 GA USED    *         0.00 MB       (max)       0.00 MB       (current)
 **********************************************************************************************************************************


1PROGRAM * CCSD (Closed-shell coupled cluster)     Authors: C. Hampel, H.-J. Werner, 1991, M. Deegan, P.J. Knowles, 1992


 Convergence thresholds:  THRVAR = 1.00D-08  THRDEN = 1.00D-12

 CCSD(T)     terms to be evaluated (factor= 1.000)


 Number of core orbitals:           2 (   2   0 )
 Number of closed-shell orbitals:   8 (   6   2 )
 Number of external orbitals:      58 (  38  20 )

 Molecular orbitals read from record     2100.2  Type=RHF/CANONICAL (state 1.1)

 Number of N-1 electron functions:               8
 Number of N-2 electron functions:              36
 Number of singly external CSFs:               268
 Number of doubly external CSFs:             55352
 Total number of CSFs:                       55621

 Length of J-op  integral file:               0.00 MB
 Length of K-op  integral file:               0.21 MB
 Length of 3-ext integral record:             0.00 MB

 Memory could be reduced to 1.50 Mwords without degradation in triples

 Integral transformation finished. Total CPU:   0.04 sec, npass=  1  Memory used:   0.55 MW

 Reference energy:                    -80.39664897

 MP2 singlet pair energy:              -0.23195063
 MP2 triplet pair energy:              -0.09155134
 MP2 correlation energy:               -0.32350197
 MP2 total energy:                    -80.72015094

 SCS-MP2 correlation energy:           -0.33530603   (PS=  1.200000  PT=  0.333333)
 SCS-MP2 total energy:                -80.73195501

 ITER.      SQ.NORM     CORR.ENERGY   TOTAL ENERGY   ENERGY CHANGE        DEN1      VAR(S)    VAR(P)  DIIS     TIME
   1      1.13401233    -0.36737391   -80.76402288    -0.04387194    -0.03296900  0.50D-03  0.24D-02  1  1     0.10
   2      1.14657543    -0.37016118   -80.76681015    -0.00278727    -0.01274054  0.15D-04  0.96D-04  2  2     0.17
   3      1.14835329    -0.37033052   -80.76697950    -0.00016935    -0.00094817  0.17D-05  0.55D-05  3  3     0.24
   4      1.14871818    -0.37035075   -80.76699972    -0.00002022    -0.00016491  0.25D-07  0.35D-06  4  4     0.31
   5      1.14876367    -0.37034827   -80.76699724     0.00000248    -0.00002376  0.18D-08  0.18D-07  5  5     0.37
   6      1.14876494    -0.37034821   -80.76699718     0.00000006    -0.00000009  0.19D-09  0.11D-08  6  6     0.44
   7      1.14876503    -0.37034847   -80.76699744    -0.00000026     0.00000013  0.13D-10  0.70D-10  6  1     0.51
   8      1.14876521    -0.37034846   -80.76699744     0.00000001    -0.00000013  0.14D-11  0.41D-11  6  2     0.58
   9      1.14876523    -0.37034845   -80.76699742     0.00000001    -0.00000003  0.15D-12  0.25D-12  6  3     0.65
  10      1.14876522    -0.37034845   -80.76699742     0.00000000     0.00000001  0.11D-13  0.23D-13  6  4     0.72
  11      1.14876521    -0.37034845   -80.76699742    -0.00000000     0.00000001  0.78D-15  0.19D-14  6  5     0.78
  12      1.14876521    -0.37034845   -80.76699742    -0.00000000     0.00000000  0.41D-16  0.22D-15  6  6     0.85
  13      1.14876521    -0.37034845   -80.76699742    -0.00000000     0.00000000  0.32D-17  0.27D-16  6  1     0.92
  14      1.14876521    -0.37034845   -80.76699742     0.00000000     0.00000000  0.58D-18  0.36D-17  6  2     0.98
  15      1.14876521    -0.37034845   -80.76699742     0.00000000     0.00000000  0.70D-19  0.36D-18  6  3     1.05
  16      1.14876521    -0.37034845   -80.76699742    -0.00000000     0.00000000  0.15D-20  0.20D-19  6  5     1.12
  17      1.14876521    -0.37034845   -80.76699742    -0.00000000     0.00000000  0.18D-21  0.55D-21  6  4     1.18
  18      1.14876521    -0.37034845   -80.76699742     0.00000000    -0.00000000  0.43D-22  0.50D-22  6  6     1.25

 Norm of t1 vector:      0.03057479      S-energy:    -0.00000000      T1 diagnostic:  0.00540491
                                                                       D1 diagnostic:  0.00880791


 Total CPU time for triples:      0.51 sec


 RESULTS
 =======

  Reference energy                    -80.396648973917
  CCSD singlet pair energy             -0.281643423668
  CCSD triplet pair energy             -0.088705025809
  CCSD correlation energy              -0.370348449477

  Triples (T) contribution             -0.007521297676
  Total correlation energy             -0.377869747153

  CCSD total energy                   -80.766997423395
  CCSD[T] energy                      -80.774693822811
  CCSD-T energy                       -80.774424790407
 !CCSD(T) total energy                -80.774518721070

 Timing summary (sec):

 STEP                 CPU(USER)    SYS     CPU(TOT)    WALL
 Transformation          0.04      0.00      0.04      0.05
 CCSD iterations         1.21      0.09      1.30      1.79
 Triples                 0.51      0.00      0.51      0.52

 Program statistics:

 Available memory in ccsd:               999999644
 Min. memory needed in ccsd:                189847
 Max. memory used in ccsd:                  234507
 Max. memory used in cckext:                275248 (18 integral passes)



 **********************************************************************************************************************************
 DATASETS  * FILE   NREC   LENGTH (MB)   RECORD NAMES
              1      20       17.45       500      610      700      900      950      970     1000      129      960     1100   
                                          VAR    BASINP    GEOM    SYMINP    ZMAT    AOBASIS   BASIS     P2S    ABASIS      S 
                                         1400     1410     1200     1210     1080     1600     1650     1300     1700     1380   
                                           T        V       H0       H01     AOSYM     SMH    MOLCAS    ERIS     OPER     JKOP   

              2       3        0.47       700     1000     2100   
                                         GEOM     BASIS     RHF  

 PROGRAMS   *        TOTAL   CCSD(T)       RHF       INT
 CPU TIMES  *         2.49      1.77      0.16      0.50
 REAL TIME  *         3.97 SEC
 DISK USED  *        46.58 MB      
 GA USED    *         0.00 MB       (max)       0.00 MB       (current)
 **********************************************************************************************************************************

        CCSD(T)         RHF-SCF 
    -80.77451872    -80.39664897
 **********************************************************************************************************************************
 Variable memory released
