
 Primary working directories    : /tmp/1192576.128.gen6.q
 Secondary working directories  : /tmp/1192576.128.gen6.q
 Wavefunction directory         : /home/vulcan/mel64643/wfu/
 Main file repository           : /tmp/1192576.128.gen6.q/

 ARCHNAME  : Linux/x86_64
 FC        : /opt/intel/compilers_and_libraries_2016.1.150/linux/bin/intel64/ifort
 FCVERSION : 16.0.1
 BLASLIB   : -mkl
 id        : ccgc

 Nodes     nprocs
 n088         1
 ga_uses_ma=false, calling ma_init with nominal heap.
 GA-space will be limited to   8.0 MW (determined by -G option)

 Using customized tuning parameters: mindgm=10; mindgv=16; mindgc=4; mindgr=1; noblas=0; mincuda=1000; minvec=7
 default implementation of scratch files=df  

 ***,Optimization of h2o_2
 memory,1000,m
 gthresh,energy=1.0d-12,orbital=1.0d-10,oneint=1.0d-16,twoint=1.0d-16,optgrad=1.0d-6,compress=1.0d-13
 geomtyp=xyz
 
 
 
 bohr
 geometry = {
  O   -2.8116488844   -0.2070965800    0.0000000000
  H   -3.5514958369    1.4464438147    0.0000000000
  H   -1.0099316679    0.1061128021    0.0000000000
  O    2.6795153845    0.1976880537    0.0000000000
  H    3.3342733862   -0.7015980800   -1.4388270396
  H    3.3442733862   -0.7015980800    1.4388270396
 }
 
 basis=cc-pvtz
 {rhf;maxit,200}
 {ccsd(t);maxit,200}

 Variables initialized (661), CPU time= 0.00 sec
 Commands  initialized (458), CPU time= 0.00 sec, 486 directives.
 Default parameters read. Elapsed time= 0.03 sec

 Checking input...
 Passed
1


                                         ***  PROGRAM SYSTEM MOLPRO  ***
                         Copyright, University College Cardiff Consultants Limited, 2008

                                    Version 2010.1 linked May 16 2016 07:17:05


 **********************************************************************************************************************************
 LABEL *   Optimization of h2o_2                                                         
 Linux-4.4.3/n088(x86_64) 64 bit mpp version                                             DATE: 29-Aug-24          TIME: 11:12:15  
 **********************************************************************************************************************************

 SHA1:             9e8077add272b0f3cad6f7df79ec5211205f459d
 **********************************************************************************************************************************

 THRESHOLDS:

 ZERO    =  1.00D-12  ONEINT  =  1.00D-16  TWOINT  =  1.00D-16  PREFAC  =  1.00D-14  LOCALI  =  1.00D-09  EORDER  =  1.00D-04
 ENERGY  =  1.00D-12  ETEST   =  0.00D+00  EDENS   =  0.00D+00  THRDEDEF=  1.00D-06  GRADIENT=  1.00D-02  STEP    =  1.00D-03
 ORBITAL =  1.00D-10  CIVEC   =  1.00D-05  COEFF   =  1.00D-04  PRINTCI =  5.00D-02  PUNCHCI =  9.90D+01  OPTGRAD =  1.00D-06
 OPTENERG=  1.00D-06  OPTSTEP =  3.00D-04  THRGRAD =  1.00D-10  COMPRESS=  1.00D-13  VARMIN  =  1.00D-07  VARMAX  =  1.00D-03
 THRDOUB =  0.00D+00  THRDIV  =  1.00D-05  THRRED  =  1.00D-07  THRPSP  =  1.00D+00  THRDC   =  1.00D-10  THRCS   =  1.00D-10
 THRNRM  =  1.00D-08  THREQ   =  0.00D+00  THRDE   =  1.00D+00  THRREF  =  1.00D-05  SPARFAC =  1.00D+00  THRDLP  =  1.00D-07
 THRDIA  =  1.00D-10  THRDLS  =  1.00D-07  THRGPS  =  0.00D+00  THRKEX  =  0.00D+00  THRDIS  =  2.00D-01  THRVAR  =  1.00D-10
 THRLOC  =  1.00D-06  THRGAP  =  1.00D-06  THRLOCT = -1.00D+00  THRGAPT = -1.00D+00  THRORB  =  1.00D-06  THRMLTP =  0.00D+00
 THRCPQCI=  1.00D-10  KEXTA   =  0.00D+00  THRCOARS=  0.00D+00  SYMTOL  =  1.00D-06  GRADTOL =  1.00D-06  THROVL  =  1.00D-08
 THRORTH =  1.00D-08  GRID    =  1.00D-06  GRIDMAX =  1.00D-03  DTMAX   =  0.00D+00

 SETTING GEOMTYP        =    XYZ
 ZUNIT=BOHR
 

 Variable memory set to 1000000000 words,  buffer space   230000 words

 SETTING BASIS          =    CC-PVTZ


 Recomputing integrals since basis changed


 Using spherical harmonics

 Library entry O      S cc-pVTZ              selected for orbital group  1
 Library entry O      P cc-pVTZ              selected for orbital group  1
 Library entry O      D cc-pVTZ              selected for orbital group  1
 Library entry O      F cc-pVTZ              selected for orbital group  1
 Library entry H      S cc-pVTZ              selected for orbital group  2
 Library entry H      P cc-pVTZ              selected for orbital group  2
 Library entry H      D cc-pVTZ              selected for orbital group  2

1PROGRAM * SEWARD (Integral evaluation for generally contracted gaussian basis sets)     Author: Roland Lindh, 1990

 Geometry written to block  1 of record 700


 Point group  C1  



 ATOMIC COORDINATES

 NR  ATOM    CHARGE       X              Y              Z

   1  O       8.00   -2.811648884   -0.207096580    0.000000000
   2  H       1.00   -3.551495837    1.446443815    0.000000000
   3  H       1.00   -1.009931668    0.106112802    0.000000000
   4  O       8.00    2.679515385    0.197688054    0.000000000
   5  H       1.00    3.334273386   -0.701598080   -1.438827040
   6  H       1.00    3.344273386   -0.701598080    1.438827040

 Bond lengths in Bohr (Angstrom)

 1-2  1.811510240  1-3  1.828738649  4-5  1.818693718  4-6  1.822317755
     ( 0.958609933)     ( 0.967726814)     ( 0.962411266)     ( 0.964329024)

 Bond angles

  2-1-3  104.24356215   5-4-6  104.43631827

 NUCLEAR CHARGE:                   20
 NUMBER OF PRIMITIVE AOS:         162
 NUMBER OF SYMMETRY AOS:          148
 NUMBER OF CONTRACTIONS:          116   ( 116A   )
 NUMBER OF CORE ORBITALS:           2   (   2A   )
 NUMBER OF VALENCE ORBITALS:       12   (  12A   )


 NUCLEAR REPULSION ENERGY   36.55204325


 Eigenvalues of metric

         1 0.206E-02 0.252E-02 0.452E-02 0.459E-02 0.529E-02 0.579E-02 0.774E-02 0.779E-02


 Contracted 2-electron integrals neglected if value below      1.0D-16
 AO integral compression algorithm  1   Integral accuracy      1.0D-16

     136.315 MB (compressed) written to integral file ( 63.5%)

     Node minimum: 136.315 MB, node maximum: 136.315 MB


 NUMBER OF SORTED TWO-ELECTRON INTEGRALS:   23028291.     BUFFER LENGTH:  32768
 NUMBER OF SEGMENTS:   2  SEGMENT LENGTH:   15997996      RECORD LENGTH: 524288

 Memory used in sort:      16.56 MW

 SORT1 READ    26802200. AND WROTE    18209002. INTEGRALS IN     53 RECORDS. CPU TIME:     0.22 SEC, REAL TIME:     0.32 SEC
 SORT2 READ    18209002. AND WROTE    23028291. INTEGRALS IN    520 RECORDS. CPU TIME:     0.18 SEC, REAL TIME:     0.28 SEC

 FILE SIZES:   FILE 1:   121.1 MBYTE,  FILE 4:   222.3 MBYTE,   TOTAL:    343.5 MBYTE

 OPERATOR DM      FOR CENTER  0  COORDINATES:    0.000000    0.000000    0.000000


 **********************************************************************************************************************************
 DATASETS  * FILE   NREC   LENGTH (MB)   RECORD NAMES
              1      19      121.29       500      610      700      900      950      970     1000      129      960     1100   
                                          VAR    BASINP    GEOM    SYMINP    ZMAT    AOBASIS   BASIS     P2S    ABASIS      S 
                                         1400     1410     1200     1210     1080     1600     1650     1300     1700   
                                           T        V       H0       H01     AOSYM     SMH    MOLCAS    ERIS     OPER   

 PROGRAMS   *        TOTAL       INT
 CPU TIMES  *         1.29      1.25
 REAL TIME  *         1.85 SEC
 DISK USED  *       480.42 MB      
 GA USED    *         0.00 MB       (max)       0.00 MB       (current)
 **********************************************************************************************************************************

1PROGRAM * RHF-SCF (CLOSED SHELL)       Authors: W. Meyer, H.-J. Werner


 NUMBER OF ELECTRONS:      10+   10-    SPACE SYMMETRY=1    SPIN SYMMETRY: Singlet 
 CONVERGENCE THRESHOLDS:    1.00E-10 (Density)    1.00E-13 (Energy)
 MAX. NUMBER OF ITERATIONS:      200
 INTERPOLATION TYPE:            DIIS
 INTERPOLATION STEPS:              2 (START)      1 (STEP)
 LEVEL SHIFTS:                  0.00 (CLOSED)  0.00 (OPEN) 



 Orbital guess generated from atomic densities. Full valence occupancy:   14

 Molecular orbital dump at record        2100.2

 ITERATION    DDIFF          GRAD             ENERGY        2-EL.EN.            DIPOLE MOMENTS         DIIS
    1      0.000D+00      0.000D+00      -152.05133739    191.702641    1.38966    0.09333    0.00062    0
    2      0.000D+00      0.713D-02      -152.10307297    185.287609    1.04194    0.03236   -0.00007    1
    3      0.124D-01      0.411D-02      -152.11998602    187.992572    1.09653    0.05401   -0.00003    2
    4      0.400D-02      0.426D-03      -152.12037512    187.830494    1.08263    0.05317   -0.00014    3
    5      0.657D-03      0.112D-03      -152.12041217    187.849483    1.07728    0.05300   -0.00018    4
    6      0.204D-03      0.235D-04      -152.12041446    187.846374    1.07576    0.05313   -0.00019    5
    7      0.513D-04      0.484D-05      -152.12041453    187.846822    1.07549    0.05298   -0.00019    6
    8      0.106D-04      0.213D-05      -152.12041454    187.846684    1.07542    0.05305   -0.00019    7
    9      0.286D-05      0.351D-06      -152.12041454    187.846638    1.07540    0.05305   -0.00019    6
   10      0.679D-06      0.684D-07      -152.12041454    187.846664    1.07539    0.05305   -0.00019    7
   11      0.133D-06      0.185D-07      -152.12041454    187.846657    1.07539    0.05305   -0.00019    6
   12      0.350D-07      0.564D-08      -152.12041454    187.846659    1.07539    0.05305   -0.00019    6
   13      0.109D-07      0.107D-08      -152.12041454    187.846659    1.07539    0.05305   -0.00019    7
   14      0.204D-08      0.237D-09      -152.12041454    187.846659    1.07539    0.05305   -0.00019    6
   15      0.505D-09      0.679D-10      -152.12041454    187.846659    1.07539    0.05305   -0.00019    6
   16      0.149D-09      0.250D-10      -152.12041454    187.846659    1.07539    0.05305   -0.00019    7
   17      0.352D-10      0.882D-11      -152.12041454    187.846659    1.07539    0.05305   -0.00019    7
   18      0.171D-10      0.219D-11      -152.12041454    187.846659    1.07539    0.05305   -0.00019    7
   19      0.535D-11      0.620D-12      -152.12041454    187.846659    1.07539    0.05305   -0.00019    7
   20      0.129D-11      0.290D-12      -152.12041454    187.846659    1.07539    0.05305   -0.00019    0

 Final occupancy:  10

 !RHF STATE 1.1 Energy               -152.120414540169
 Nuclear energy                        36.55204325
 One-electron energy                 -282.59578708
 Two-electron energy                   93.92332929
 Virial quotient                       -1.00095395
 !RHF STATE 1.1 Dipole moment           1.07539221     0.05305020    -0.00019413
 Dipole moment /Debye                   2.73319532     0.13483132    -0.00049340

 Orbital energies:

         1.1          2.1          3.1          4.1          5.1          6.1          7.1          8.1          9.1         10.1
    -20.585296   -20.522609    -1.373064    -1.312820    -0.734702    -0.684454    -0.608654    -0.552740    -0.525557    -0.474668

        11.1         12.1
      0.124070     0.183570


 **********************************************************************************************************************************
 DATASETS  * FILE   NREC   LENGTH (MB)   RECORD NAMES
              1      19      121.29       500      610      700      900      950      970     1000      129      960     1100   
                                          VAR    BASINP    GEOM    SYMINP    ZMAT    AOBASIS   BASIS     P2S    ABASIS      S 
                                         1400     1410     1200     1210     1080     1600     1650     1300     1700   
                                           T        V       H0       H01     AOSYM     SMH    MOLCAS    ERIS     OPER   

              2       3        0.63       700     1000     2100   
                                         GEOM     BASIS     RHF  

 PROGRAMS   *        TOTAL       RHF       INT
 CPU TIMES  *         4.28      2.99      1.25
 REAL TIME  *         5.31 SEC
 DISK USED  *       480.42 MB      
 GA USED    *         0.00 MB       (max)       0.00 MB       (current)
 **********************************************************************************************************************************


1PROGRAM * CCSD (Closed-shell coupled cluster)     Authors: C. Hampel, H.-J. Werner, 1991, M. Deegan, P.J. Knowles, 1992


 Convergence thresholds:  THRVAR = 1.00D-08  THRDEN = 1.00D-12

 CCSD(T)     terms to be evaluated (factor= 1.000)


 Number of core orbitals:           2 (   2 )
 Number of closed-shell orbitals:   8 (   8 )
 Number of external orbitals:     106 ( 106 )

 Molecular orbitals read from record     2100.2  Type=RHF/CANONICAL (state 1.1)

 Number of N-1 electron functions:               8
 Number of N-2 electron functions:              36
 Number of singly external CSFs:               848
 Number of doubly external CSFs:            359976
 Total number of CSFs:                      360825

 Length of J-op  integral file:               0.00 MB
 Length of K-op  integral file:               0.96 MB
 Length of 3-ext integral record:             0.00 MB

 Memory could be reduced to 13.86 Mwords without degradation in triples

 Integral transformation finished. Total CPU:   0.55 sec, npass=  1  Memory used:   8.20 MW

 Reference energy:                   -152.12041454

 MP2 singlet pair energy:              -0.33345141
 MP2 triplet pair energy:              -0.19306846
 MP2 correlation energy:               -0.52651987
 MP2 total energy:                   -152.64693442

 SCS-MP2 correlation energy:           -0.52027318   (PS=  1.200000  PT=  0.333333)
 SCS-MP2 total energy:               -152.64068772

 ITER.      SQ.NORM     CORR.ENERGY   TOTAL ENERGY   ENERGY CHANGE        DEN1      VAR(S)    VAR(P)  DIIS     TIME
   1      1.12179884    -0.53660873  -152.65702327    -0.01008885     0.00003101  0.10D-02  0.17D-02  1  1     1.23
   2      1.12818502    -0.53739728  -152.65781182    -0.00078855    -0.00903170  0.16D-04  0.18D-03  2  2     1.97
   3      1.13028984    -0.53751172  -152.65792626    -0.00011444    -0.00162027  0.54D-05  0.81D-05  3  3     2.71
   4      1.13086131    -0.53752707  -152.65794161    -0.00001535    -0.00033635  0.22D-06  0.52D-06  4  4     3.45
   5      1.13094116    -0.53752298  -152.65793752     0.00000409    -0.00003761  0.88D-07  0.35D-07  5  5     4.19
   6      1.13096090    -0.53752145  -152.65793599     0.00000153    -0.00000691  0.13D-07  0.29D-08  6  6     4.93
   7      1.13096409    -0.53752177  -152.65793631    -0.00000032    -0.00000028  0.20D-08  0.58D-09  6  1     5.67
   8      1.13096561    -0.53752175  -152.65793629     0.00000002     0.00000008  0.30D-09  0.82D-10  6  2     6.41
   9      1.13096622    -0.53752173  -152.65793627     0.00000002     0.00000010  0.28D-10  0.10D-10  6  3     7.15
  10      1.13096638    -0.53752172  -152.65793626     0.00000001     0.00000001  0.40D-11  0.14D-11  6  4     7.89
  11      1.13096636    -0.53752172  -152.65793626    -0.00000000     0.00000004  0.74D-12  0.20D-12  6  5     8.63
  12      1.13096633    -0.53752173  -152.65793627    -0.00000000     0.00000002  0.14D-12  0.29D-13  6  6     9.37
  13      1.13096631    -0.53752173  -152.65793627    -0.00000000     0.00000001  0.21D-13  0.61D-14  6  1    10.11
  14      1.13096631    -0.53752173  -152.65793627    -0.00000000     0.00000000  0.38D-14  0.12D-14  6  2    10.86
  15      1.13096631    -0.53752173  -152.65793627     0.00000000     0.00000000  0.65D-15  0.14D-15  6  3    11.60
  16      1.13096631    -0.53752173  -152.65793627     0.00000000    -0.00000000  0.11D-15  0.29D-16  6  4    12.34
  17      1.13096631    -0.53752173  -152.65793627     0.00000000    -0.00000000  0.14D-16  0.53D-17  6  5    13.07
  18      1.13096631    -0.53752173  -152.65793627    -0.00000000    -0.00000000  0.19D-17  0.89D-18  6  1    13.81
  19      1.13096631    -0.53752173  -152.65793627    -0.00000000     0.00000000  0.30D-18  0.93D-19  6  6    14.55
  20      1.13096631    -0.53752173  -152.65793627    -0.00000000    -0.00000000  0.88D-19  0.18D-19  6  2    15.29
  21      1.13096631    -0.53752173  -152.65793627    -0.00000000     0.00000000  0.20D-19  0.47D-20  6  3    16.02

 Norm of t1 vector:      0.04062687      S-energy:     0.00000000      T1 diagnostic:  0.00718188
                                                                       D1 diagnostic:  0.01511412


 Total CPU time for triples:      8.38 sec


 RESULTS
 =======

  Reference energy                   -152.120414540170
  CCSD singlet pair energy             -0.365325330161
  CCSD triplet pair energy             -0.172196398602
  CCSD correlation energy              -0.537521728763

  Triples (T) contribution             -0.015839110643
  Total correlation energy             -0.553360839406

  CCSD total energy                  -152.657936268932
  CCSD[T] energy                     -152.674190818135
  CCSD-T energy                      -152.673493563126
 !CCSD(T) total energy               -152.673775379576

 Timing summary (sec):

 STEP                 CPU(USER)    SYS     CPU(TOT)    WALL
 Transformation          0.56      0.05      0.61      0.62
 CCSD iterations        15.46      0.56     16.02     16.28
 Triples                 8.38      0.17      8.55      8.56

 Program statistics:

 Available memory in ccsd:               999999644
 Min. memory needed in ccsd:               1115449
 Max. memory used in ccsd:                 1416033
 Max. memory used in cckext:               1097476 (21 integral passes)



 **********************************************************************************************************************************
 DATASETS  * FILE   NREC   LENGTH (MB)   RECORD NAMES
              1      20      165.84       500      610      700      900      950      970     1000      129      960     1100   
                                          VAR    BASINP    GEOM    SYMINP    ZMAT    AOBASIS   BASIS     P2S    ABASIS      S 
                                         1400     1410     1200     1210     1080     1600     1650     1300     1700     1380   
                                           T        V       H0       H01     AOSYM     SMH    MOLCAS    ERIS     OPER     JKOP   

              2       3        0.63       700     1000     2100   
                                         GEOM     BASIS     RHF  

 PROGRAMS   *        TOTAL   CCSD(T)       RHF       INT
 CPU TIMES  *        28.69     24.41      2.99      1.25
 REAL TIME  *        30.83 SEC
 DISK USED  *       480.42 MB      
 GA USED    *         0.00 MB       (max)       0.00 MB       (current)
 **********************************************************************************************************************************

        CCSD(T)         RHF-SCF 
   -152.67377538   -152.12041454
 **********************************************************************************************************************************
 Variable memory released
