
 Primary working directories    : /tmp/1049102.1219.gen6.q
 Secondary working directories  : /tmp/1049102.1219.gen6.q
 Wavefunction directory         : /home/vulcan/mel64643/wfu/
 Main file repository           : /tmp/1049102.1219.gen6.q/

 ARCHNAME  : Linux/x86_64
 FC        : /opt/intel/compilers_and_libraries_2016.1.150/linux/bin/intel64/ifort
 FCVERSION : 16.0.1
 BLASLIB   : -mkl
 id        : ccgc

 Nodes     nprocs
 n088         1
 ga_uses_ma=false, calling ma_init with nominal heap.
 GA-space will be limited to   8.0 MW (determined by -G option)

 Using customized tuning parameters: mindgm=10; mindgv=16; mindgc=4; mindgr=1; noblas=0; mincuda=1000; minvec=7
 default implementation of scratch files=df  

 ***,Optimization of h2o_3
 memory,1000,m
 gthresh,energy=1.0d-12,orbital=1.0d-10,oneint=1.0d-16,twoint=1.0d-16,optgrad=1.0d-6,compress=1.0d-13
 geomtyp=xyz
 
 
 
 bohr
 geometry = {
  C    0.9155107312    1.4076348857   -2.2718458068
  C    0.7386392951    2.7150041504    0.0175224054
  C    0.9981282714    1.4039363504    2.2970419634
  C    1.4311345668   -1.2032719282    2.2938430338
  C    1.6087344588   -2.5101485875    0.0045160488
  C    1.3493008082   -1.1988581575   -2.2747984744
  H    0.7055384659    2.4212027339   -4.0391075598
  H    0.3875644699    4.7325309929    0.0209823702
  H    0.8559447244    2.4159166614    4.0721806174
  H    1.6293753133   -2.2179043544    4.0622643670
  H    1.9423033267   -4.5311228773    0.0010608867
  H    1.4843926681   -2.2114542800   -4.0504261314
  N   -5.4427647822   -0.3574287014   -0.0707175481
  H   -5.5913094498   -1.5702746929   -1.5499852889
  H   -6.0694585912   -1.3140489390    1.4698255755
  H   -3.5621024095   -0.0735028545    0.1977212182
 }
 
 basis=aug-cc-pvdz, H=cc-pvdz
 {rhf;maxit,200}
 {ccsd(t)}

 Variables initialized (661), CPU time= 0.00 sec
 Commands  initialized (458), CPU time= 0.00 sec, 486 directives.
 Default parameters read. Elapsed time= 0.04 sec

 Checking input...
 Passed
1


                                         ***  PROGRAM SYSTEM MOLPRO  ***
                         Copyright, University College Cardiff Consultants Limited, 2008

                                    Version 2010.1 linked May 16 2016 07:17:05


 **********************************************************************************************************************************
 LABEL *   Optimization of h2o_3                                                         
 Linux-4.4.3/n088(x86_64) 64 bit mpp version                                             DATE: 20-Mar-24          TIME: 17:27:21  
 **********************************************************************************************************************************

 SHA1:             9e8077add272b0f3cad6f7df79ec5211205f459d
 **********************************************************************************************************************************

 THRESHOLDS:

 ZERO    =  1.00D-12  ONEINT  =  1.00D-16  TWOINT  =  1.00D-16  PREFAC  =  1.00D-14  LOCALI  =  1.00D-09  EORDER  =  1.00D-04
 ENERGY  =  1.00D-12  ETEST   =  0.00D+00  EDENS   =  0.00D+00  THRDEDEF=  1.00D-06  GRADIENT=  1.00D-02  STEP    =  1.00D-03
 ORBITAL =  1.00D-10  CIVEC   =  1.00D-05  COEFF   =  1.00D-04  PRINTCI =  5.00D-02  PUNCHCI =  9.90D+01  OPTGRAD =  1.00D-06
 OPTENERG=  1.00D-06  OPTSTEP =  3.00D-04  THRGRAD =  1.00D-10  COMPRESS=  1.00D-13  VARMIN  =  1.00D-07  VARMAX  =  1.00D-03
 THRDOUB =  0.00D+00  THRDIV  =  1.00D-05  THRRED  =  1.00D-07  THRPSP  =  1.00D+00  THRDC   =  1.00D-10  THRCS   =  1.00D-10
 THRNRM  =  1.00D-08  THREQ   =  0.00D+00  THRDE   =  1.00D+00  THRREF  =  1.00D-05  SPARFAC =  1.00D+00  THRDLP  =  1.00D-07
 THRDIA  =  1.00D-10  THRDLS  =  1.00D-07  THRGPS  =  0.00D+00  THRKEX  =  0.00D+00  THRDIS  =  2.00D-01  THRVAR  =  1.00D-10
 THRLOC  =  1.00D-06  THRGAP  =  1.00D-06  THRLOCT = -1.00D+00  THRGAPT = -1.00D+00  THRORB  =  1.00D-06  THRMLTP =  0.00D+00
 THRCPQCI=  1.00D-10  KEXTA   =  0.00D+00  THRCOARS=  0.00D+00  SYMTOL  =  1.00D-06  GRADTOL =  1.00D-06  THROVL  =  1.00D-08
 THRORTH =  1.00D-08  GRID    =  1.00D-06  GRIDMAX =  1.00D-03  DTMAX   =  0.00D+00

 SETTING GEOMTYP        =    XYZ
 ZUNIT=BOHR
 

 Variable memory set to 1000000000 words,  buffer space   230000 words

 SETTING BASIS          =    AUG-CC-PVDZ,H=CC-PVDZ


 Recomputing integrals since basis changed


 Using spherical harmonics

 Library entry C      S aug-cc-pVDZ          selected for orbital group  1
 Library entry C      P aug-cc-pVDZ          selected for orbital group  1
 Library entry C      D aug-cc-pVDZ          selected for orbital group  1
 Library entry H      S cc-pVDZ              selected for orbital group  2
 Library entry H      P cc-pVDZ              selected for orbital group  2
 Library entry N      S aug-cc-pVDZ          selected for orbital group  3
 Library entry N      P aug-cc-pVDZ          selected for orbital group  3
 Library entry N      D aug-cc-pVDZ          selected for orbital group  3

1PROGRAM * SEWARD (Integral evaluation for generally contracted gaussian basis sets)     Author: Roland Lindh, 1990

 Geometry written to block  1 of record 700


 Point group  C1  



 ATOMIC COORDINATES

 NR  ATOM    CHARGE       X              Y              Z

   1  C       6.00    0.915510731    1.407634886   -2.271845807
   2  C       6.00    0.738639295    2.715004150    0.017522405
   3  C       6.00    0.998128271    1.403936350    2.297041963
   4  C       6.00    1.431134567   -1.203271928    2.293843034
   5  C       6.00    1.608734459   -2.510148587    0.004516049
   6  C       6.00    1.349300808   -1.198858157   -2.274798474
   7  H       1.00    0.705538466    2.421202734   -4.039107560
   8  H       1.00    0.387564470    4.732530993    0.020982370
   9  H       1.00    0.855944724    2.415916661    4.072180617
  10  H       1.00    1.629375313   -2.217904354    4.062264367
  11  H       1.00    1.942303327   -4.531122877    0.001060887
  12  H       1.00    1.484392668   -2.211454280   -4.050426131
  13  N       7.00   -5.442764782   -0.357428701   -0.070717548
  14  H       1.00   -5.591309450   -1.570274693   -1.549985289
  15  H       1.00   -6.069458591   -1.314048939    1.469825576
  16  H       1.00   -3.562102410   -0.073502855    0.197721218

 Bond lengths in Bohr (Angstrom)

 1-2  2.642291564  1-6  2.642345271  1-7  2.048077694  2-3  2.642431214  2-8  2.047847666
     ( 1.398240475)     ( 1.398268896)     ( 1.083796038)     ( 1.398314375)     ( 1.083674313)

  3- 4  2.642922567   3- 9  2.048276727   4- 5  2.642061008   4-10  2.048436566   5- 6  2.642359383
       ( 1.398574387)       ( 1.083901362)       ( 1.398118470)       ( 1.083985945)       ( 1.398276363)

  5-11  2.048320582   6-12  2.048524907  13-14  1.918669843  13-15  1.918629856  13-16  1.920823838
       ( 1.083924569)       ( 1.084032693)       ( 1.015316352)       ( 1.015295192)       ( 1.016456198)

 Bond angles

  1- 2- 3  119.69418770   1- 2- 8  120.02645650   1- 6- 5  120.31001994   1- 6-12  119.95984543

  2-1-6  120.00199376   2-1-7  119.72967281   2-3-4  120.29814580   2-3-9  119.71411199

  3- 2- 8  120.27766909   3- 4- 5  120.00136041   3- 4-10  120.22769405   4- 3- 9  119.98741241

  4- 5- 6  119.69426447   4- 5-11  120.02961290   5- 4-10  119.77094082   5- 6-12  119.73012018

  6- 1- 7  120.26759351   6- 5-11  120.27600797  14-13-15  106.17607583  14-13-16  106.08043224

 15-13-16  106.33745550

 NUCLEAR CHARGE:                   52
 NUMBER OF PRIMITIVE AOS:         322
 NUMBER OF SYMMETRY AOS:          308
 NUMBER OF CONTRACTIONS:          206   ( 206A   )
 NUMBER OF CORE ORBITALS:           7   (   7A   )
 NUMBER OF VALENCE ORBITALS:       37   (  37A   )


 NUCLEAR REPULSION ENERGY  273.71075035


 Eigenvalues of metric

         1 0.861E-05 0.184E-04 0.228E-04 0.532E-04 0.642E-04 0.644E-04 0.107E-03 0.107E-03


 Contracted 2-electron integrals neglected if value below      1.0D-16
 AO integral compression algorithm  1   Integral accuracy      1.0D-16

     1892.942 MB (compressed) written to integral file ( 94.6%)

     Node minimum: 1892.942 MB, node maximum: 1892.942 MB


 NUMBER OF SORTED TWO-ELECTRON INTEGRALS:  227303181.     BUFFER LENGTH:  32768
 NUMBER OF SEGMENTS:  15  SEGMENT LENGTH:   15999503      RECORD LENGTH: 524288

 Memory used in sort:      16.56 MW

 SORT1 READ   250230535. AND WROTE   226407999. INTEGRALS IN    654 RECORDS. CPU TIME:     2.19 SEC, REAL TIME:     3.71 SEC
 SORT2 READ   226407999. AND WROTE   227303181. INTEGRALS IN   7221 RECORDS. CPU TIME:     1.54 SEC, REAL TIME:     2.35 SEC

 FILE SIZES:   FILE 1:  1743.6 MBYTE,  FILE 4:  2743.1 MBYTE,   TOTAL:   4486.7 MBYTE

 OPERATOR DM      FOR CENTER  0  COORDINATES:    0.000000    0.000000    0.000000


 **********************************************************************************************************************************
 DATASETS  * FILE   NREC   LENGTH (MB)   RECORD NAMES
              1      19     1744.07       500      610      700      900      950      970     1000      129      960     1100   
                                          VAR    BASINP    GEOM    SYMINP    ZMAT    AOBASIS   BASIS     P2S    ABASIS      S 
                                         1400     1410     1200     1210     1080     1600     1650     1300     1700   
                                           T        V       H0       H01     AOSYM     SMH    MOLCAS    ERIS     OPER   

 PROGRAMS   *        TOTAL       INT
 CPU TIMES  *        12.64     12.61
 REAL TIME  *        16.03 SEC
 DISK USED  *         6.38 GB      
 GA USED    *         0.01 MB       (max)       0.00 MB       (current)
 **********************************************************************************************************************************

1PROGRAM * RHF-SCF (CLOSED SHELL)       Authors: W. Meyer, H.-J. Werner


 NUMBER OF ELECTRONS:      26+   26-    SPACE SYMMETRY=1    SPIN SYMMETRY: Singlet 
 CONVERGENCE THRESHOLDS:    1.00E-10 (Density)    1.00E-13 (Energy)
 MAX. NUMBER OF ITERATIONS:      200
 INTERPOLATION TYPE:            DIIS
 INTERPOLATION STEPS:              2 (START)      1 (STEP)
 LEVEL SHIFTS:                  0.00 (CLOSED)  0.00 (OPEN) 



 Orbital guess generated from atomic densities. Full valence occupancy:   44

 Molecular orbital dump at record        2100.2

 ITERATION    DDIFF          GRAD             ENERGY        2-EL.EN.            DIPOLE MOMENTS         DIIS
    1      0.000D+00      0.000D+00      -286.85322290    740.883816    0.51947   -0.76777    0.13704    0
    2      0.000D+00      0.322D-02      -286.92077898    735.093504    0.43508   -0.38415    0.06270    1
    3      0.826D-02      0.133D-02      -286.93010663    737.725290    0.45164   -0.52271    0.09293    2
    4      0.218D-02      0.381D-03      -286.93132461    737.205519    0.45022   -0.49589    0.08509    3
    5      0.783D-03      0.526D-04      -286.93134843    737.194282    0.45605   -0.50605    0.08909    4
    6      0.135D-03      0.177D-04      -286.93135086    737.209167    0.45490   -0.50051    0.08699    5
    7      0.511D-04      0.555D-05      -286.93135114    737.206104    0.45556   -0.50273    0.08775    6
    8      0.150D-04      0.129D-05      -286.93135116    737.205094    0.45571   -0.50238    0.08761    7
    9      0.417D-05      0.542D-06      -286.93135116    737.205552    0.45574   -0.50247    0.08764    7
   10      0.149D-05      0.143D-06      -286.93135116    737.205501    0.45575   -0.50247    0.08764    7
   11      0.517D-06      0.411D-07      -286.93135116    737.205486    0.45576   -0.50247    0.08763    7
   12      0.142D-06      0.175D-07      -286.93135116    737.205500    0.45575   -0.50247    0.08764    8
   13      0.618D-07      0.769D-08      -286.93135116    737.205495    0.45575   -0.50247    0.08763    8
   14      0.343D-07      0.366D-08      -286.93135116    737.205497    0.45576   -0.50247    0.08764    8
   15      0.204D-07      0.139D-08      -286.93135116    737.205496    0.45575   -0.50247    0.08763    8
   16      0.719D-08      0.462D-09      -286.93135116    737.205496    0.45575   -0.50247    0.08764    9
   17      0.213D-08      0.129D-09      -286.93135116    737.205496    0.45575   -0.50247    0.08764    9
   18      0.415D-09      0.421D-10      -286.93135116    737.205496    0.45575   -0.50247    0.08764    9
   19      0.202D-09      0.227D-10      -286.93135116    737.205496    0.45575   -0.50247    0.08764    9
   20      0.124D-09      0.922D-11      -286.93135116    737.205496    0.45575   -0.50247    0.08764    9
   21      0.327D-09      0.432D-11      -286.93135116    737.205496    0.45575   -0.50247    0.08764    9
   22      0.429D-09      0.160D-11      -286.93135116    737.205496    0.45575   -0.50247    0.08764    9
   23      0.124D-09      0.757D-12      -286.93135116    737.205496    0.45575   -0.50247    0.08764    9
   24      0.104D-09      0.593D-12      -286.93135116    737.205496    0.45575   -0.50247    0.08764    9
   25      0.801D-10      0.534D-12      -286.93135116    737.205496    0.45575   -0.50247    0.08764    9
   26      0.420D-10      0.508D-12      -286.93135116    737.205496    0.45575   -0.50247    0.08764    0

 Final occupancy:  26

 !RHF STATE 1.1 Energy               -286.931351162988
 Nuclear energy                       273.71075035
 One-electron energy                 -929.24484972
 Two-electron energy                  368.60274821
 Virial quotient                       -1.00146518
 !RHF STATE 1.1 Dipole moment           0.45575495    -0.50247344     0.08763501
 Dipole moment /Debye                   1.15833767    -1.27707645     0.22273140

 Orbital energies:

         1.1          2.1          3.1          4.1          5.1          6.1          7.1          8.1          9.1         10.1
    -15.535006   -11.250641   -11.249986   -11.249688   -11.248821   -11.248631   -11.247853    -1.157505    -1.125560    -1.022391

        11.1         12.1         13.1         14.1         15.1         16.1         17.1         18.1         19.1         20.1
     -1.021614    -0.830708    -0.830465    -0.714501    -0.650454    -0.623945    -0.611680    -0.609818    -0.594145    -0.592849

        21.1         22.1         23.1         24.1         25.1         26.1         27.1         28.1
     -0.504903    -0.501096    -0.499022    -0.413438    -0.342769    -0.342191     0.063863     0.066487


 **********************************************************************************************************************************
 DATASETS  * FILE   NREC   LENGTH (MB)   RECORD NAMES
              1      19     1744.07       500      610      700      900      950      970     1000      129      960     1100   
                                          VAR    BASINP    GEOM    SYMINP    ZMAT    AOBASIS   BASIS     P2S    ABASIS      S 
                                         1400     1410     1200     1210     1080     1600     1650     1300     1700   
                                           T        V       H0       H01     AOSYM     SMH    MOLCAS    ERIS     OPER   

              2       3        1.40       700     1000     2100   
                                         GEOM     BASIS     RHF  

 PROGRAMS   *        TOTAL       RHF       INT
 CPU TIMES  *        51.80     39.16     12.61
 REAL TIME  *        59.33 SEC
 DISK USED  *         6.38 GB      
 GA USED    *         0.01 MB       (max)       0.00 MB       (current)
 **********************************************************************************************************************************


1PROGRAM * CCSD (Closed-shell coupled cluster)     Authors: C. Hampel, H.-J. Werner, 1991, M. Deegan, P.J. Knowles, 1992


 Convergence thresholds:  THRVAR = 1.00D-08  THRDEN = 1.00D-12

 CCSD(T)     terms to be evaluated (factor= 1.000)


 Number of core orbitals:           7 (   7 )
 Number of closed-shell orbitals:  19 (  19 )
 Number of external orbitals:     180 ( 180 )

 Molecular orbitals read from record     2100.2  Type=RHF/CANONICAL (state 1.1)

 Number of N-1 electron functions:              19
 Number of N-2 electron functions:             190
 Number of singly external CSFs:              3420
 Number of doubly external CSFs:           5849910
 Total number of CSFs:                     5853331

 Length of J-op  integral file:               0.00 MB
 Length of K-op  integral file:               2.96 MB
 Length of 3-ext integral record:             0.00 MB

 Memory could be reduced to 140.12 Mwords without degradation in triples

 Integral transformation finished. Total CPU:  10.45 sec, npass=  1  Memory used: 101.90 MW

 Reference energy:                   -286.93135116

 MP2 singlet pair energy:              -0.62063318
 MP2 triplet pair energy:              -0.38983535
 MP2 correlation energy:               -1.01046853
 MP2 total energy:                   -287.94181970

 SCS-MP2 correlation energy:           -0.98732404   (PS=  1.200000  PT=  0.333333)
 SCS-MP2 total energy:               -287.91867520

 ITER.      SQ.NORM     CORR.ENERGY   TOTAL ENERGY   ENERGY CHANGE        DEN1      VAR(S)    VAR(P)  DIIS     TIME
   1      1.38488320    -1.05476022  -287.98611138    -0.04429168    -0.01721292  0.36D-02  0.80D-02  1  1    43.50
   2      1.41439600    -1.06062282  -287.99197398    -0.00586260    -0.02705292  0.63D-04  0.10D-02  2  2    76.88
   3      1.42352721    -1.06071855  -287.99206972    -0.00009573    -0.00464357  0.27D-04  0.84D-04  3  3   110.29
   4      1.42746450    -1.06088729  -287.99223845    -0.00016874    -0.00121415  0.22D-05  0.11D-04  4  4   143.73
   5      1.42867809    -1.06091824  -287.99226940    -0.00003095    -0.00027320  0.27D-06  0.13D-05  5  5   177.18
   6      1.42898068    -1.06090801  -287.99225917     0.00001024    -0.00004349  0.23D-07  0.79D-07  6  6   210.64
   7      1.42902142    -1.06090964  -287.99226080    -0.00000163    -0.00000103  0.35D-08  0.82D-08  6  2   244.11
   8      1.42903061    -1.06090949  -287.99226066     0.00000014    -0.00000117  0.75D-09  0.76D-09  6  1   277.60
   9      1.42903044    -1.06090963  -287.99226079    -0.00000014     0.00000123  0.21D-09  0.92D-10  6  4   311.07
  10      1.42903164    -1.06090964  -287.99226080    -0.00000001    -0.00000018  0.57D-10  0.15D-10  6  3   344.54
  11      1.42903159    -1.06090966  -287.99226082    -0.00000002     0.00000013  0.14D-10  0.37D-11  6  5   378.00
  12      1.42903154    -1.06090966  -287.99226082    -0.00000000     0.00000003  0.15D-11  0.10D-11  6  6   411.45
  13      1.42903137    -1.06090966  -287.99226083    -0.00000000     0.00000006  0.69D-13  0.20D-12  6  2   444.91
  14      1.42903127    -1.06090966  -287.99226083    -0.00000000     0.00000002  0.81D-14  0.40D-13  6  1   478.39
  15      1.42903121    -1.06090966  -287.99226083    -0.00000000     0.00000001  0.89D-15  0.54D-14  6  3   511.87
  16      1.42903119    -1.06090966  -287.99226083    -0.00000000     0.00000000  0.12D-15  0.37D-15  6  4   545.32
  17      1.42903118    -1.06090966  -287.99226083    -0.00000000     0.00000000  0.30D-16  0.44D-16  6  5   578.81
  18      1.42903118    -1.06090966  -287.99226083    -0.00000000     0.00000000  0.79D-17  0.70D-17  6  6   612.27
  19      1.42903118    -1.06090966  -287.99226083    -0.00000000     0.00000000  0.22D-17  0.74D-18  6  2   645.69
  20      1.42903118    -1.06090966  -287.99226083    -0.00000000     0.00000000  0.71D-18  0.17D-18  6  1   679.14
  21      1.42903118    -1.06090966  -287.99226083    -0.00000000     0.00000000  0.27D-18  0.70D-19  6  3   712.62
  22      1.42903118    -1.06090966  -287.99226083    -0.00000000     0.00000000  0.11D-18  0.36D-19  6  4   746.08
  23      1.42903118    -1.06090966  -287.99226083    -0.00000000     0.00000000  0.48D-19  0.19D-19  6  5   779.53

 Norm of t1 vector:      0.08385783      S-energy:    -0.00000000      T1 diagnostic:  0.00961915
                                                                       D1 diagnostic:  0.02619932

 Doubles amplitudes (print threshold =  0.500E-01):

         I         J         SYM. A    SYM. B    A         B      T(IJ, AB)

        19        19         1         1         7         7     -0.05073374


 Total CPU time for triples:    679.52 sec


 RESULTS
 =======

  Reference energy                   -286.931351162986
  CCSD singlet pair energy             -0.711157353266
  CCSD triplet pair energy             -0.349752310979
  CCSD correlation energy              -1.060909664245

  Triples (T) contribution             -0.045602994700
  Total correlation energy             -1.106512658945

  CCSD total energy                  -287.992260827231
  CCSD[T] energy                     -288.038734055928
  CCSD-T energy                      -288.037475270348
 !CCSD(T) total energy               -288.037863821931

 Timing summary (sec):

 STEP                 CPU(USER)    SYS     CPU(TOT)    WALL
 Transformation         10.79      0.77     11.56     11.56
 CCSD iterations       768.76     11.35    780.11    781.27
 Triples               679.52     10.44    689.96    690.05

 Program statistics:

 Available memory in ccsd:               999998456
 Min. memory needed in ccsd:              14392275
 Max. memory used in ccsd:                19775697
 Max. memory used in cckext:              16737545 (23 integral passes)



 **********************************************************************************************************************************
 DATASETS  * FILE   NREC   LENGTH (MB)   RECORD NAMES
              1      20     2287.67       500      610      700      900      950      970     1000      129      960     1100   
                                          VAR    BASINP    GEOM    SYMINP    ZMAT    AOBASIS   BASIS     P2S    ABASIS      S 
                                         1400     1410     1200     1210     1080     1600     1650     1300     1700     1380   
                                           T        V       H0       H01     AOSYM     SMH    MOLCAS    ERIS     OPER     JKOP   

              2       3        1.40       700     1000     2100   
                                         GEOM     BASIS     RHF  

 PROGRAMS   *        TOTAL   CCSD(T)       RHF       INT
 CPU TIMES  *      1510.89   1459.09     39.16     12.61
 REAL TIME  *      1542.32 SEC
 DISK USED  *         6.38 GB      
 GA USED    *         0.01 MB       (max)       0.00 MB       (current)
 **********************************************************************************************************************************

        CCSD(T)         RHF-SCF 
   -288.03786382   -286.93135116
 **********************************************************************************************************************************
 Variable memory released
