
 Primary working directories    : /tmp/1049502.995.gen4.q
 Secondary working directories  : /tmp/1049502.995.gen4.q
 Wavefunction directory         : /home/vulcan/jj04645/wfu/
 Main file repository           : /tmp/1049502.995.gen4.q/

 ARCHNAME  : Linux/x86_64
 FC        : /opt/intel/compilers_and_libraries_2016.1.150/linux/bin/intel64/ifort
 FCVERSION : 16.0.1
 BLASLIB   : -mkl
 id        : ccgc

 Nodes     nprocs
 n066         1
 ga_uses_ma=false, calling ma_init with nominal heap.
 GA-space will be limited to   8.0 MW (determined by -G option)

 Using customized tuning parameters: mindgm=10; mindgv=16; mindgc=4; mindgr=1; noblas=0; mincuda=1000; minvec=7
 default implementation of scratch files=df  

 ***,Optimization of neopentane
 memory,1000,m
 gthresh,energy=1.0d-12,orbital=1.0d-10,oneint=1.0d-16,twoint=1.0d-16,optgrad=1.0d-6,compress=1.0d-13
 geomtyp=xyz
 
 bohr
 geometry = {
  C   -0.0011664940    0.0011664940   -0.0000000000
  C    2.3642751861    0.0011663071   -1.6726202490
  C   -0.0011663071   -2.3642751861    1.6726202490
  C   -0.0011663071    2.3666085479    1.6726197204
  C   -2.3666085479    0.0011663071   -1.6726197204
  H    2.4076859577    1.6740305327   -2.8862103225
  H   -1.6740305327   -2.4076859577    2.8862103225
  H    1.6716981777    2.4100196274    2.8862094255
  H   -2.4100196274   -1.6716981777   -2.8862094255
  H    4.0776115403   -0.0037806647   -0.5223987053
  H    0.0037806647   -4.0776115403    0.5223987053
  H    0.0037847055    4.0799446203    0.5223977741
  H   -4.0799446203   -0.0037847055   -0.5223977741
  H    2.4102441004   -1.6770358433   -2.8847728903
  H    1.6770358433   -2.4102441004    2.8847728903
  H   -1.6744021086    2.4076116306    2.8917958044
  H   -2.4076116306    1.6744021086   -2.8917958044
 }
 
 basis=VDZ
 {rhf;maxit,200}
 {ccsd(t);maxit,200}

 Variables initialized (661), CPU time= 0.00 sec
 Commands  initialized (458), CPU time= 0.00 sec, 486 directives.
 Default parameters read. Elapsed time= 0.04 sec

 Checking input...
 Passed
1


                                         ***  PROGRAM SYSTEM MOLPRO  ***
                         Copyright, University College Cardiff Consultants Limited, 2008

                                    Version 2010.1 linked May 16 2016 07:17:05


 **********************************************************************************************************************************
 LABEL *   Optimization of neopentane                                                    
 Linux-4.4.3/n066(x86_64) 64 bit mpp version                                             DATE: 30-Mar-24          TIME: 23:05:37  
 **********************************************************************************************************************************

 SHA1:             9e8077add272b0f3cad6f7df79ec5211205f459d
 **********************************************************************************************************************************

 THRESHOLDS:

 ZERO    =  1.00D-12  ONEINT  =  1.00D-16  TWOINT  =  1.00D-16  PREFAC  =  1.00D-14  LOCALI  =  1.00D-09  EORDER  =  1.00D-04
 ENERGY  =  1.00D-12  ETEST   =  0.00D+00  EDENS   =  0.00D+00  THRDEDEF=  1.00D-06  GRADIENT=  1.00D-02  STEP    =  1.00D-03
 ORBITAL =  1.00D-10  CIVEC   =  1.00D-05  COEFF   =  1.00D-04  PRINTCI =  5.00D-02  PUNCHCI =  9.90D+01  OPTGRAD =  1.00D-06
 OPTENERG=  1.00D-06  OPTSTEP =  3.00D-04  THRGRAD =  1.00D-10  COMPRESS=  1.00D-13  VARMIN  =  1.00D-07  VARMAX  =  1.00D-03
 THRDOUB =  0.00D+00  THRDIV  =  1.00D-05  THRRED  =  1.00D-07  THRPSP  =  1.00D+00  THRDC   =  1.00D-10  THRCS   =  1.00D-10
 THRNRM  =  1.00D-08  THREQ   =  0.00D+00  THRDE   =  1.00D+00  THRREF  =  1.00D-05  SPARFAC =  1.00D+00  THRDLP  =  1.00D-07
 THRDIA  =  1.00D-10  THRDLS  =  1.00D-07  THRGPS  =  0.00D+00  THRKEX  =  0.00D+00  THRDIS  =  2.00D-01  THRVAR  =  1.00D-10
 THRLOC  =  1.00D-06  THRGAP  =  1.00D-06  THRLOCT = -1.00D+00  THRGAPT = -1.00D+00  THRORB  =  1.00D-06  THRMLTP =  0.00D+00
 THRCPQCI=  1.00D-10  KEXTA   =  0.00D+00  THRCOARS=  0.00D+00  SYMTOL  =  1.00D-06  GRADTOL =  1.00D-06  THROVL  =  1.00D-08
 THRORTH =  1.00D-08  GRID    =  1.00D-06  GRIDMAX =  1.00D-03  DTMAX   =  0.00D+00

 SETTING GEOMTYP        =    XYZ
 ZUNIT=BOHR
 

 Variable memory set to 1000000000 words,  buffer space   230000 words

 SETTING BASIS          =    VDZ


 Recomputing integrals since basis changed


 Using spherical harmonics

 Library entry C      S cc-pVDZ              selected for orbital group  1
 Library entry C      P cc-pVDZ              selected for orbital group  1
 Library entry C      D cc-pVDZ              selected for orbital group  1
 Library entry H      S cc-pVDZ              selected for orbital group  2
 Library entry H      P cc-pVDZ              selected for orbital group  2

1PROGRAM * SEWARD (Integral evaluation for generally contracted gaussian basis sets)     Author: Roland Lindh, 1990

 Geometry written to block  1 of record 700


 Point group  C1  



 ATOMIC COORDINATES

 NR  ATOM    CHARGE       X              Y              Z

   1  C       6.00   -0.001166494    0.001166494    0.000000000
   2  C       6.00    2.364275186    0.001166307   -1.672620249
   3  C       6.00   -0.001166307   -2.364275186    1.672620249
   4  C       6.00   -0.001166307    2.366608548    1.672619720
   5  C       6.00   -2.366608548    0.001166307   -1.672619720
   6  H       1.00    2.407685958    1.674030533   -2.886210323
   7  H       1.00   -1.674030533   -2.407685958    2.886210323
   8  H       1.00    1.671698178    2.410019627    2.886209426
   9  H       1.00   -2.410019627   -1.671698178   -2.886209426
  10  H       1.00    4.077611540   -0.003780665   -0.522398705
  11  H       1.00    0.003780665   -4.077611540    0.522398705
  12  H       1.00    0.003784705    4.079944620    0.522397774
  13  H       1.00   -4.079944620   -0.003784705   -0.522397774
  14  H       1.00    2.410244100   -1.677035843   -2.884772890
  15  H       1.00    1.677035843   -2.410244100    2.884772890
  16  H       1.00   -1.674402109    2.407611631    2.891795804
  17  H       1.00   -2.407611631    1.674402109   -2.891795804

 Bond lengths in Bohr (Angstrom)

 1-2  2.897062795  1-3  2.897062795  1-4  2.897062795  1-5  2.897062795  2-6  2.067162325
     ( 1.533059604)     ( 1.533059604)     ( 1.533059604)     ( 1.533059604)     ( 1.093895190)

  2-10  2.063626792   2-14  2.070697859   3- 7  2.067162325   3-11  2.063626792   3-15  2.070697859
       ( 1.092024266)       ( 1.095766114)       ( 1.093895190)       ( 1.092024266)       ( 1.095766114)

  4- 8  2.067162325   4-12  2.063626792   4-16  2.070697859   5- 9  2.067162325   5-13  2.063626792
       ( 1.093895190)       ( 1.092024266)       ( 1.095766114)       ( 1.093895190)       ( 1.092024266)

  5-17  2.070697859
       ( 1.095766114)

 Bond angles

  1- 2- 6  110.86072161   1- 2-10  110.86072264   1- 2-14  110.86072262   1- 3- 7  110.86072161

  1- 3-11  110.86072264   1- 3-15  110.86072262   1- 4- 8  110.86072276   1- 4-12  110.86072170

  1- 4-16  110.86072172   1- 5- 9  110.86072276   1- 5-13  110.86072170   1- 5-17  110.86072172

  2-1-3  109.47122063   2-1-4  109.47122064   2-1-5  109.47122063   3-1-4  109.47122063

  3- 1- 5  109.47122064   4- 1- 5  109.47122064   6- 2-10  108.16354616   6- 2-14  108.16354612

  7- 3-11  108.16354616   7- 3-15  108.16354612   8- 4-12  107.92963816   8- 4-16  107.92963821

  9- 5-13  107.92963816   9- 5-17  107.92963821  10- 2-14  107.81268452  11- 3-15  107.81268452

 12- 4-16  108.28049974  13- 5-17  108.28049974

 NUCLEAR CHARGE:                   42
 NUMBER OF PRIMITIVE AOS:         219
 NUMBER OF SYMMETRY AOS:          214
 NUMBER OF CONTRACTIONS:          130   ( 130A   )
 NUMBER OF CORE ORBITALS:           5   (   5A   )
 NUMBER OF VALENCE ORBITALS:       32   (  32A   )


 NUCLEAR REPULSION ENERGY  198.59914860


 Eigenvalues of metric

         1 0.280E-02 0.503E-02 0.504E-02 0.504E-02 0.171E-01 0.188E-01 0.189E-01 0.190E-01


 Contracted 2-electron integrals neglected if value below      1.0D-16
 AO integral compression algorithm  1   Integral accuracy      1.0D-16

     300.679 MB (compressed) written to integral file ( 96.5%)

     Node minimum: 300.679 MB, node maximum: 300.679 MB


 NUMBER OF SORTED TWO-ELECTRON INTEGRALS:   36256870.     BUFFER LENGTH:  32768
 NUMBER OF SEGMENTS:   3  SEGMENT LENGTH:   15998004      RECORD LENGTH: 524288

 Memory used in sort:      16.56 MW

 SORT1 READ    38982564. AND WROTE    36125302. INTEGRALS IN    105 RECORDS. CPU TIME:     0.39 SEC, REAL TIME:     0.60 SEC
 SORT2 READ    36125302. AND WROTE    36256870. INTEGRALS IN   1147 RECORDS. CPU TIME:     0.28 SEC, REAL TIME:     0.44 SEC

 FILE SIZES:   FILE 1:   281.8 MBYTE,  FILE 4:   440.4 MBYTE,   TOTAL:    722.2 MBYTE

 OPERATOR DM      FOR CENTER  0  COORDINATES:    0.000000    0.000000    0.000000


 **********************************************************************************************************************************
 DATASETS  * FILE   NREC   LENGTH (MB)   RECORD NAMES
              1      19      281.97       500      610      700      900      950      970     1000      129      960     1100   
                                          VAR    BASINP    GEOM    SYMINP    ZMAT    AOBASIS   BASIS     P2S    ABASIS      S 
                                         1400     1410     1200     1210     1080     1600     1650     1300     1700   
                                           T        V       H0       H01     AOSYM     SMH    MOLCAS    ERIS     OPER   

 PROGRAMS   *        TOTAL       INT
 CPU TIMES  *         4.17      4.13
 REAL TIME  *         4.88 SEC
 DISK USED  *         1.02 GB      
 GA USED    *         0.01 MB       (max)       0.00 MB       (current)
 **********************************************************************************************************************************

1PROGRAM * RHF-SCF (CLOSED SHELL)       Authors: W. Meyer, H.-J. Werner


 NUMBER OF ELECTRONS:      21+   21-    SPACE SYMMETRY=1    SPIN SYMMETRY: Singlet 
 CONVERGENCE THRESHOLDS:    1.00E-10 (Density)    1.00E-13 (Energy)
 MAX. NUMBER OF ITERATIONS:      200
 INTERPOLATION TYPE:            DIIS
 INTERPOLATION STEPS:              2 (START)      1 (STEP)
 LEVEL SHIFTS:                  0.00 (CLOSED)  0.00 (OPEN) 



 Orbital guess generated from atomic densities. Full valence occupancy:   37

 Molecular orbital dump at record        2100.2

 ITERATION    DDIFF          GRAD             ENERGY        2-EL.EN.            DIPOLE MOMENTS         DIIS
    1      0.000D+00      0.000D+00      -196.27088023    527.677243    0.00309   -0.00309    0.00000    0
    2      0.000D+00      0.467D-02      -196.33873957    521.943717    0.00073   -0.00073    0.00000    1
    3      0.930D-02      0.177D-02      -196.34653012    524.513825    0.00143   -0.00143   -0.00000    2
    4      0.346D-02      0.571D-03      -196.34767689    523.812493    0.00115   -0.00115   -0.00000    3
    5      0.114D-02      0.118D-03      -196.34771148    523.879006    0.00117   -0.00117   -0.00000    4
    6      0.198D-03      0.238D-04      -196.34771315    523.875247    0.00117   -0.00117   -0.00000    5
    7      0.659D-04      0.226D-05      -196.34771317    523.875013    0.00117   -0.00117    0.00000    6
    8      0.685D-05      0.488D-06      -196.34771318    523.874971    0.00117   -0.00117    0.00000    6
    9      0.138D-05      0.703D-07      -196.34771318    523.874963    0.00117   -0.00117    0.00000    5
   10      0.244D-06      0.958D-08      -196.34771318    523.874972    0.00117   -0.00117    0.00000    5
   11      0.317D-07      0.310D-08      -196.34771318    523.874968    0.00117   -0.00117    0.00000    5
   12      0.620D-08      0.104D-08      -196.34771318    523.874969    0.00117   -0.00117    0.00000    6
   13      0.220D-08      0.865D-10      -196.34771318    523.874969    0.00117   -0.00117   -0.00000    6
   14      0.183D-09      0.208D-10      -196.34771318    523.874969    0.00117   -0.00117    0.00000    6
   15      0.538D-10      0.640D-11      -196.34771318    523.874969    0.00117   -0.00117   -0.00000    6
   16      0.194D-10      0.215D-11      -196.34771318    523.874969    0.00117   -0.00117    0.00000    0

 Final occupancy:  21

 !RHF STATE 1.1 Energy               -196.347713175240
 Nuclear energy                       198.59914860
 One-electron energy                 -656.88434629
 Two-electron energy                  261.93748451
 Virial quotient                       -1.00118110
 !RHF STATE 1.1 Dipole moment           0.00116740    -0.00116740     0.00000000
 Dipole moment /Debye                   0.00296705    -0.00296705     0.00000000

 Orbital energies:

         1.1          2.1          3.1          4.1          5.1          6.1          7.1          8.1          9.1         10.1
    -11.230715   -11.214120   -11.214109   -11.214087   -11.214051    -1.103748    -0.927666    -0.927563    -0.927459    -0.728614

        11.1         12.1         13.1         14.1         15.1         16.1         17.1         18.1         19.1         20.1
     -0.609690    -0.609076    -0.608459    -0.550841    -0.550136    -0.508354    -0.507783    -0.507224    -0.450429    -0.450330

        21.1         22.1         23.1
     -0.450235     0.170675     0.231097


 **********************************************************************************************************************************
 DATASETS  * FILE   NREC   LENGTH (MB)   RECORD NAMES
              1      19      281.97       500      610      700      900      950      970     1000      129      960     1100   
                                          VAR    BASINP    GEOM    SYMINP    ZMAT    AOBASIS   BASIS     P2S    ABASIS      S 
                                         1400     1410     1200     1210     1080     1600     1650     1300     1700   
                                           T        V       H0       H01     AOSYM     SMH    MOLCAS    ERIS     OPER   

              2       3        0.89       700     1000     2100   
                                         GEOM     BASIS     RHF  

 PROGRAMS   *        TOTAL       RHF       INT
 CPU TIMES  *         8.57      4.40      4.13
 REAL TIME  *         9.85 SEC
 DISK USED  *         1.02 GB      
 GA USED    *         0.01 MB       (max)       0.00 MB       (current)
 **********************************************************************************************************************************


1PROGRAM * CCSD (Closed-shell coupled cluster)     Authors: C. Hampel, H.-J. Werner, 1991, M. Deegan, P.J. Knowles, 1992


 Convergence thresholds:  THRVAR = 1.00D-08  THRDEN = 1.00D-12

 CCSD(T)     terms to be evaluated (factor= 1.000)


 Number of core orbitals:           5 (   5 )
 Number of closed-shell orbitals:  16 (  16 )
 Number of external orbitals:     109 ( 109 )

 Molecular orbitals read from record     2100.2  Type=RHF/CANONICAL (state 1.1)

 Number of N-1 electron functions:              16
 Number of N-2 electron functions:             136
 Number of singly external CSFs:              1744
 Number of doubly external CSFs:           1521640
 Total number of CSFs:                     1523385

 Length of J-op  integral file:               0.00 MB
 Length of K-op  integral file:               1.20 MB
 Length of 3-ext integral record:             0.00 MB

 Memory could be reduced to 28.13 Mwords without degradation in triples

 Integral transformation finished. Total CPU:   1.88 sec, npass=  1  Memory used:  22.98 MW

 Reference energy:                   -196.34771318

 MP2 singlet pair energy:              -0.48845272
 MP2 triplet pair energy:              -0.25007748
 MP2 correlation energy:               -0.73853020
 MP2 total energy:                   -197.08624338

 SCS-MP2 correlation energy:           -0.74174703   (PS=  1.200000  PT=  0.333333)
 SCS-MP2 total energy:               -197.08946021

 ITER.      SQ.NORM     CORR.ENERGY   TOTAL ENERGY   ENERGY CHANGE        DEN1      VAR(S)    VAR(P)  DIIS     TIME
   1      1.28821648    -0.80655555  -197.15426873    -0.06802535    -0.04667773  0.17D-02  0.47D-02  1  1     6.92
   2      1.31151846    -0.81148928  -197.15920246    -0.00493373    -0.02352747  0.47D-04  0.32D-03  2  2    12.03
   3      1.31554462    -0.81163859  -197.15935176    -0.00014931    -0.00245001  0.53D-05  0.22D-04  3  3    17.14
   4      1.31658481    -0.81170106  -197.15941423    -0.00006247    -0.00046060  0.25D-06  0.12D-05  4  4    22.27
   5      1.31670975    -0.81170561  -197.15941879    -0.00000456    -0.00005019  0.15D-07  0.93D-07  5  5    27.41
   6      1.31672256    -0.81170315  -197.15941633     0.00000246    -0.00000875  0.68D-09  0.61D-08  6  6    32.53
   7      1.31672110    -0.81170344  -197.15941661    -0.00000028     0.00000066  0.16D-09  0.52D-09  6  1    37.66
   8      1.31672083    -0.81170358  -197.15941676    -0.00000015     0.00000025  0.78D-11  0.30D-10  6  2    42.79
   9      1.31672054    -0.81170363  -197.15941680    -0.00000005     0.00000025  0.11D-11  0.25D-11  6  3    47.91
  10      1.31672043    -0.81170364  -197.15941681    -0.00000001     0.00000009  0.89D-13  0.22D-12  6  4    53.03
  11      1.31672037    -0.81170364  -197.15941682    -0.00000000     0.00000004  0.94D-14  0.24D-13  6  5    58.16
  12      1.31672034    -0.81170364  -197.15941682    -0.00000000     0.00000002  0.89D-15  0.12D-14  6  1    63.29
  13      1.31672033    -0.81170364  -197.15941682    -0.00000000     0.00000000  0.78D-16  0.70D-16  6  6    68.42
  14      1.31672033    -0.81170364  -197.15941682    -0.00000000     0.00000000  0.15D-16  0.96D-17  6  2    73.55
  15      1.31672033    -0.81170364  -197.15941682    -0.00000000     0.00000000  0.13D-17  0.11D-17  6  3    78.68
  16      1.31672033    -0.81170364  -197.15941682     0.00000000    -0.00000000  0.70D-19  0.92D-19  6  4    83.82
  17      1.31672033    -0.81170364  -197.15941682     0.00000000    -0.00000000  0.34D-20  0.85D-20  6  5    88.97
  18      1.31672033    -0.81170364  -197.15941682     0.00000000    -0.00000000  0.38D-21  0.12D-20  6  1    94.09
  19      1.31672033    -0.81170364  -197.15941682     0.00000000    -0.00000000  0.30D-22  0.16D-21  6  6    99.19

 Norm of t1 vector:      0.05469810      S-energy:     0.00000000      T1 diagnostic:  0.00683726
                                                                       D1 diagnostic:  0.01261598


 Total CPU time for triples:     80.73 sec


 RESULTS
 =======

  Reference energy                   -196.347713175242
  CCSD singlet pair energy             -0.577587635492
  CCSD triplet pair energy             -0.234116006747
  CCSD correlation energy              -0.811703642238

  Triples (T) contribution             -0.023942388656
  Total correlation energy             -0.835646030894

  CCSD total energy                  -197.159416817480
  CCSD[T] energy                     -197.183818549412
  CCSD-T energy                      -197.183110544285
 !CCSD(T) total energy               -197.183359206136

 Timing summary (sec):

 STEP                 CPU(USER)    SYS     CPU(TOT)    WALL
 Transformation          1.96      0.19      2.15      2.16
 CCSD iterations        97.24      2.16     99.40     99.55
 Triples                80.73      1.60     82.33     82.35

 Program statistics:

 Available memory in ccsd:               999998876
 Min. memory needed in ccsd:               3966807
 Max. memory used in ccsd:                 5311887
 Max. memory used in cckext:               4858018 (19 integral passes)



 **********************************************************************************************************************************
 DATASETS  * FILE   NREC   LENGTH (MB)   RECORD NAMES
              1      20      393.68       500      610      700      900      950      970     1000      129      960     1100   
                                          VAR    BASINP    GEOM    SYMINP    ZMAT    AOBASIS   BASIS     P2S    ABASIS      S 
                                         1400     1410     1200     1210     1080     1600     1650     1300     1700     1380   
                                           T        V       H0       H01     AOSYM     SMH    MOLCAS    ERIS     OPER     JKOP   

              2       3        0.89       700     1000     2100   
                                         GEOM     BASIS     RHF  

 PROGRAMS   *        TOTAL   CCSD(T)       RHF       INT
 CPU TIMES  *       188.52    179.95      4.40      4.13
 REAL TIME  *       193.96 SEC
 DISK USED  *         1.02 GB      
 GA USED    *         0.01 MB       (max)       0.00 MB       (current)
 **********************************************************************************************************************************

        CCSD(T)         RHF-SCF 
   -197.18335921   -196.34771318
 **********************************************************************************************************************************
 Variable memory released
