
 Primary working directories    : /tmp/985636.1430.gen6.q
 Secondary working directories  : /tmp/985636.1430.gen6.q
 Wavefunction directory         : /home/vulcan/jj04645/wfu/
 Main file repository           : /tmp/985636.1430.gen6.q/

 ARCHNAME  : Linux/x86_64
 FC        : /opt/intel/compilers_and_libraries_2016.1.150/linux/bin/intel64/ifort
 FCVERSION : 16.0.1
 BLASLIB   : -mkl
 id        : ccgc

 Nodes     nprocs
 n076         1
 ga_uses_ma=false, calling ma_init with nominal heap.
 GA-space will be limited to   8.0 MW (determined by -G option)

 Using customized tuning parameters: mindgm=10; mindgv=16; mindgc=4; mindgr=1; noblas=0; mincuda=1000; minvec=7
 default implementation of scratch files=df  

 ***,Optimization of tetrahydrothiopyran
 memory,1000,m
 gthresh,energy=1.0d-12,orbital=1.0d-10,oneint=1.0d-16,twoint=1.0d-16,optgrad=1.0d-6,compress=1.0d-13
 geomtyp=xyz
 
 bohr
 geometry = {
  S    0.3513290916    2.6998910346   -0.0013581575
  C   -0.3305068024   -3.3652874445   -0.0008164320
  C   -0.6641479218    0.6688406925   -2.5822786781
  C   -0.6633344675    0.6692104079    2.5801731393
  C    0.4709117397   -1.9816413435   -2.4149445251
  C    0.4716724603   -1.9812955848    2.4128607667
  H   -2.7300981825    0.5648881544   -2.5735832494
  H   -2.7295703205    0.5708014348    2.5843317883
  H   -0.0629428856    1.6231040470   -4.3090009607
  H   -0.0739998878    1.6245476169    4.3103903095
  H    2.5329217578   -1.8362519918   -2.4821781067
  H    2.5337035606   -1.8358966318    2.4794236585
  H   -0.1291259947   -3.0747393111   -4.0664516558
  H   -0.1278446951   -3.0741570290    4.0647134527
  H    0.4652335386   -5.2719438446   -0.0008052659
  H   -2.3929360074   -3.5798916239   -0.0004760839
 }
 
 basis=VDZ
 {rhf;maxit,200}
 {ccsd(t);maxit,200}

 Variables initialized (661), CPU time= 0.01 sec
 Commands  initialized (458), CPU time= 0.00 sec, 486 directives.
 Default parameters read. Elapsed time= 0.04 sec

 Checking input...
 Passed
1


                                         ***  PROGRAM SYSTEM MOLPRO  ***
                         Copyright, University College Cardiff Consultants Limited, 2008

                                    Version 2010.1 linked May 16 2016 07:17:05


 **********************************************************************************************************************************
 LABEL *   Optimization of tetrahydrothiopyran                                           
 Linux-4.4.3/n076(x86_64) 64 bit mpp version                                             DATE: 26-Jan-24          TIME: 17:55:30  
 **********************************************************************************************************************************

 SHA1:             9e8077add272b0f3cad6f7df79ec5211205f459d
 **********************************************************************************************************************************

 THRESHOLDS:

 ZERO    =  1.00D-12  ONEINT  =  1.00D-16  TWOINT  =  1.00D-16  PREFAC  =  1.00D-14  LOCALI  =  1.00D-09  EORDER  =  1.00D-04
 ENERGY  =  1.00D-12  ETEST   =  0.00D+00  EDENS   =  0.00D+00  THRDEDEF=  1.00D-06  GRADIENT=  1.00D-02  STEP    =  1.00D-03
 ORBITAL =  1.00D-10  CIVEC   =  1.00D-05  COEFF   =  1.00D-04  PRINTCI =  5.00D-02  PUNCHCI =  9.90D+01  OPTGRAD =  1.00D-06
 OPTENERG=  1.00D-06  OPTSTEP =  3.00D-04  THRGRAD =  1.00D-10  COMPRESS=  1.00D-13  VARMIN  =  1.00D-07  VARMAX  =  1.00D-03
 THRDOUB =  0.00D+00  THRDIV  =  1.00D-05  THRRED  =  1.00D-07  THRPSP  =  1.00D+00  THRDC   =  1.00D-10  THRCS   =  1.00D-10
 THRNRM  =  1.00D-08  THREQ   =  0.00D+00  THRDE   =  1.00D+00  THRREF  =  1.00D-05  SPARFAC =  1.00D+00  THRDLP  =  1.00D-07
 THRDIA  =  1.00D-10  THRDLS  =  1.00D-07  THRGPS  =  0.00D+00  THRKEX  =  0.00D+00  THRDIS  =  2.00D-01  THRVAR  =  1.00D-10
 THRLOC  =  1.00D-06  THRGAP  =  1.00D-06  THRLOCT = -1.00D+00  THRGAPT = -1.00D+00  THRORB  =  1.00D-06  THRMLTP =  0.00D+00
 THRCPQCI=  1.00D-10  KEXTA   =  0.00D+00  THRCOARS=  0.00D+00  SYMTOL  =  1.00D-06  GRADTOL =  1.00D-06  THROVL  =  1.00D-08
 THRORTH =  1.00D-08  GRID    =  1.00D-06  GRIDMAX =  1.00D-03  DTMAX   =  0.00D+00

 SETTING GEOMTYP        =    XYZ
 ZUNIT=BOHR
 

 Variable memory set to 1000000000 words,  buffer space   230000 words

 SETTING BASIS          =    VDZ


 Recomputing integrals since basis changed


 Using spherical harmonics

 Library entry S      S cc-pVDZ              selected for orbital group  1
 Library entry S      P cc-pVDZ              selected for orbital group  1
 Library entry S      D cc-pVDZ              selected for orbital group  1
 Library entry C      S cc-pVDZ              selected for orbital group  2
 Library entry C      P cc-pVDZ              selected for orbital group  2
 Library entry C      D cc-pVDZ              selected for orbital group  2
 Library entry H      S cc-pVDZ              selected for orbital group  3
 Library entry H      P cc-pVDZ              selected for orbital group  3

1PROGRAM * SEWARD (Integral evaluation for generally contracted gaussian basis sets)     Author: Roland Lindh, 1990

 Geometry written to block  1 of record 700


 Point group  C1  



 ATOMIC COORDINATES

 NR  ATOM    CHARGE       X              Y              Z

   1  S      16.00    0.351329092    2.699891035   -0.001358157
   2  C       6.00   -0.330506802   -3.365287444   -0.000816432
   3  C       6.00   -0.664147922    0.668840693   -2.582278678
   4  C       6.00   -0.663334468    0.669210408    2.580173139
   5  C       6.00    0.470911740   -1.981641343   -2.414944525
   6  C       6.00    0.471672460   -1.981295585    2.412860767
   7  H       1.00   -2.730098182    0.564888154   -2.573583249
   8  H       1.00   -2.729570321    0.570801435    2.584331788
   9  H       1.00   -0.062942886    1.623104047   -4.309000961
  10  H       1.00   -0.073999888    1.624547617    4.310390309
  11  H       1.00    2.532921758   -1.836251992   -2.482178107
  12  H       1.00    2.533703561   -1.835896632    2.479423659
  13  H       1.00   -0.129125995   -3.074739311   -4.066451656
  14  H       1.00   -0.127844695   -3.074157029    4.064713453
  15  H       1.00    0.465233539   -5.271943845   -0.000805266
  16  H       1.00   -2.392936007   -3.579891624   -0.000476084

 Bond lengths in Bohr (Angstrom)

  1- 3  3.437660511   1- 4  3.437660510   2- 5  2.895645466   2- 6  2.895645465   2-15  2.066044849
       ( 1.819131595)       ( 1.819131594)       ( 1.532309586)       ( 1.532309585)       ( 1.093303847)

  2-16  2.073564394   3- 5  2.888150996   3- 7  2.068582176   3- 9  2.062434456   4- 6  2.888150996
       ( 1.097283019)       ( 1.528343683)       ( 1.094646543)       ( 1.091393309)       ( 1.528343683)

  4- 8  2.068582176   4-10  2.062434456   5-11  2.068222361   5-13  2.069392242   6-12  2.068222361
       ( 1.094646543)       ( 1.091393309)       ( 1.094456136)       ( 1.095075211)       ( 1.094456136)

  6-14  2.069392242
       ( 1.095075211)

 Bond angles

  1-3-5  112.49558698   1-3-7  108.75708652   1-3-9  105.61038937   1-4-6  112.49558433

  1- 4- 8  108.93154241   1- 4-10  105.78484527   2- 5- 3  112.21281429   2- 5-11  109.67156782

  2- 5-13  109.43267559   2- 6- 4  112.21281727   2- 6-12  109.67156720   2- 6-14  109.43267498

  3- 1- 4   97.33107772   3- 5-11  108.99161337   3- 5-13  108.93892996   4- 6-12  108.99161276

  4- 6-14  108.93892933   5- 2- 6  112.94731775   5- 2-15  109.53488183   5- 2-16  108.95777547

  5- 3- 7  110.25167038   5- 3- 9  111.01165793   6- 2-15  109.53488183   6- 2-16  108.95777547

  6- 4- 8  110.42612622   6- 4-10  111.18611380   7- 3- 9  108.53612622   8- 4-10  107.80465631

 11- 5-13  107.47420385  12- 6-14  107.47420318  15- 2-16  106.71266601

 NUCLEAR CHARGE:                   56
 NUMBER OF PRIMITIVE AOS:         247
 NUMBER OF SYMMETRY AOS:          241
 NUMBER OF CONTRACTIONS:          138   ( 138A   )
 NUMBER OF CORE ORBITALS:          10   (  10A   )
 NUMBER OF VALENCE ORBITALS:       34   (  34A   )


 NUCLEAR REPULSION ENERGY  312.14522821


 Eigenvalues of metric

         1 0.285E-02 0.305E-02 0.426E-02 0.634E-02 0.704E-02 0.151E-01 0.157E-01 0.196E-01


 Contracted 2-electron integrals neglected if value below      1.0D-16
 AO integral compression algorithm  1   Integral accuracy      1.0D-16

     373.817 MB (compressed) written to integral file ( 94.1%)

     Node minimum: 373.817 MB, node maximum: 373.817 MB


 NUMBER OF SORTED TWO-ELECTRON INTEGRALS:   45998436.     BUFFER LENGTH:  32768
 NUMBER OF SEGMENTS:   3  SEGMENT LENGTH:   15998004      RECORD LENGTH: 524288

 Memory used in sort:      16.56 MW

 SORT1 READ    49670295. AND WROTE    45795504. INTEGRALS IN    132 RECORDS. CPU TIME:     0.43 SEC, REAL TIME:     0.70 SEC
 SORT2 READ    45795504. AND WROTE    45998436. INTEGRALS IN   1426 RECORDS. CPU TIME:     0.36 SEC, REAL TIME:     0.52 SEC

 FILE SIZES:   FILE 1:   349.4 MBYTE,  FILE 4:   553.7 MBYTE,   TOTAL:    903.0 MBYTE

 OPERATOR DM      FOR CENTER  0  COORDINATES:    0.000000    0.000000    0.000000


 **********************************************************************************************************************************
 DATASETS  * FILE   NREC   LENGTH (MB)   RECORD NAMES
              1      19      349.60       500      610      700      900      950      970     1000      129      960     1100   
                                          VAR    BASINP    GEOM    SYMINP    ZMAT    AOBASIS   BASIS     P2S    ABASIS      S 
                                         1400     1410     1200     1210     1080     1600     1650     1300     1700   
                                           T        V       H0       H01     AOSYM     SMH    MOLCAS    ERIS     OPER   

 PROGRAMS   *        TOTAL       INT
 CPU TIMES  *         4.28      4.24
 REAL TIME  *         5.09 SEC
 DISK USED  *         1.28 GB      
 GA USED    *         0.01 MB       (max)       0.00 MB       (current)
 **********************************************************************************************************************************

1PROGRAM * RHF-SCF (CLOSED SHELL)       Authors: W. Meyer, H.-J. Werner


 NUMBER OF ELECTRONS:      28+   28-    SPACE SYMMETRY=1    SPIN SYMMETRY: Singlet 
 CONVERGENCE THRESHOLDS:    1.00E-10 (Density)    1.00E-13 (Energy)
 MAX. NUMBER OF ITERATIONS:      200
 INTERPOLATION TYPE:            DIIS
 INTERPOLATION STEPS:              2 (START)      1 (STEP)
 LEVEL SHIFTS:                  0.00 (CLOSED)  0.00 (OPEN) 



 Orbital guess generated from atomic densities. Full valence occupancy:   44

 Molecular orbital dump at record        2100.2

 ITERATION    DDIFF          GRAD             ENERGY        2-EL.EN.            DIPOLE MOMENTS         DIIS
    1      0.000D+00      0.000D+00      -592.64384513   1056.859885   -0.40648   -0.80603    0.00136    0
    2      0.000D+00      0.396D-02      -592.70488631   1054.274162   -0.20665   -0.74002    0.00060    1
    3      0.778D-02      0.132D-02      -592.71082426   1055.708513   -0.27921   -0.67750    0.00046    2
    4      0.269D-02      0.540D-03      -592.71183368   1055.090888   -0.25202   -0.71052    0.00041    3
    5      0.931D-03      0.773D-04      -592.71185941   1055.153718   -0.24811   -0.70202    0.00038    4
    6      0.181D-03      0.267D-04      -592.71186193   1055.122861   -0.24984   -0.70231    0.00038    5
    7      0.503D-04      0.620D-05      -592.71186214   1055.126028   -0.24917   -0.70219    0.00038    6
    8      0.164D-04      0.174D-05      -592.71186216   1055.125164   -0.24916   -0.70206    0.00038    7
    9      0.539D-05      0.453D-06      -592.71186216   1055.125047   -0.24914   -0.70201    0.00038    7
   10      0.127D-05      0.162D-06      -592.71186216   1055.125085   -0.24913   -0.70201    0.00038    7
   11      0.480D-06      0.344D-07      -592.71186216   1055.125070   -0.24913   -0.70201    0.00038    7
   12      0.114D-06      0.688D-08      -592.71186216   1055.125076   -0.24913   -0.70201    0.00038    7
   13      0.182D-07      0.287D-08      -592.71186216   1055.125073   -0.24913   -0.70201    0.00038    7
   14      0.632D-08      0.844D-09      -592.71186216   1055.125074   -0.24913   -0.70201    0.00038    7
   15      0.226D-08      0.274D-09      -592.71186216   1055.125074   -0.24913   -0.70201    0.00038    7
   16      0.657D-09      0.846D-10      -592.71186216   1055.125074   -0.24913   -0.70201    0.00038    8
   17      0.203D-09      0.183D-10      -592.71186216   1055.125074   -0.24913   -0.70201    0.00038    7
   18      0.485D-10      0.553D-11      -592.71186216   1055.125074   -0.24913   -0.70201    0.00038    7
   19      0.171D-10      0.189D-11      -592.71186216   1055.125074   -0.24913   -0.70201    0.00038    8
   20      0.531D-11      0.615D-12      -592.71186216   1055.125074   -0.24913   -0.70201    0.00038    7
   21      0.185D-11      0.237D-12      -592.71186216   1055.125074   -0.24913   -0.70201    0.00038    8
   22      0.851D-12      0.105D-12      -592.71186216   1055.125074   -0.24913   -0.70201    0.00038    8
   23      0.486D-12      0.511D-13      -592.71186216   1055.125074   -0.24913   -0.70201    0.00038    8
   24      0.208D-12      0.469D-13      -592.71186216   1055.125074   -0.24913   -0.70201    0.00038    9
   25      0.137D-12      0.351D-13      -592.71186216   1055.125074   -0.24913   -0.70201    0.00038    9
   26      0.949D-13      0.328D-13      -592.71186216   1055.125074   -0.24913   -0.70201    0.00038    9
   27      0.696D-13      0.233D-13      -592.71186216   1055.125074   -0.24913   -0.70201    0.00038    0

 Final occupancy:  28

 !RHF STATE 1.1 Energy               -592.711862160684
 Nuclear energy                       312.14522821
 One-electron energy                -1432.41962723
 Two-electron energy                  527.56253686
 Virial quotient                       -1.00019424
 !RHF STATE 1.1 Dipole moment          -0.24913431    -0.70200895     0.00037825
 Dipole moment /Debye                  -0.63319479    -1.78421192     0.00096134

 Orbital energies:

         1.1          2.1          3.1          4.1          5.1          6.1          7.1          8.1          9.1         10.1
    -91.929675   -11.255057   -11.254966   -11.231023   -11.230919   -11.229120    -8.933578    -6.615473    -6.614038    -6.611838

        11.1         12.1         13.1         14.1         15.1         16.1         17.1         18.1         19.1         20.1
     -1.119616    -1.020003    -1.006510    -0.842312    -0.835806    -0.755529    -0.646749    -0.614763    -0.609735    -0.578837

        21.1         22.1         23.1         24.1         25.1         26.1         27.1         28.1         29.1         30.1
     -0.546949    -0.523664    -0.497837    -0.495382    -0.473025    -0.434519    -0.411720    -0.328634     0.176926     0.190309


 **********************************************************************************************************************************
 DATASETS  * FILE   NREC   LENGTH (MB)   RECORD NAMES
              1      19      349.60       500      610      700      900      950      970     1000      129      960     1100   
                                          VAR    BASINP    GEOM    SYMINP    ZMAT    AOBASIS   BASIS     P2S    ABASIS      S 
                                         1400     1410     1200     1210     1080     1600     1650     1300     1700   
                                           T        V       H0       H01     AOSYM     SMH    MOLCAS    ERIS     OPER   

              2       3        0.92       700     1000     2100   
                                         GEOM     BASIS     RHF  

 PROGRAMS   *        TOTAL       RHF       INT
 CPU TIMES  *        11.77      7.49      4.24
 REAL TIME  *        13.44 SEC
 DISK USED  *         1.28 GB      
 GA USED    *         0.01 MB       (max)       0.00 MB       (current)
 **********************************************************************************************************************************


1PROGRAM * CCSD (Closed-shell coupled cluster)     Authors: C. Hampel, H.-J. Werner, 1991, M. Deegan, P.J. Knowles, 1992


 Convergence thresholds:  THRVAR = 1.00D-08  THRDEN = 1.00D-12

 CCSD(T)     terms to be evaluated (factor= 1.000)


 Number of core orbitals:          10 (  10 )
 Number of closed-shell orbitals:  18 (  18 )
 Number of external orbitals:     110 ( 110 )

 Molecular orbitals read from record     2100.2  Type=RHF/CANONICAL (state 1.1)

 Number of N-1 electron functions:              18
 Number of N-2 electron functions:             171
 Number of singly external CSFs:              1980
 Number of doubly external CSFs:           1961190
 Total number of CSFs:                     1963171

 Length of J-op  integral file:               0.00 MB
 Length of K-op  integral file:               1.35 MB
 Length of 3-ext integral record:             0.00 MB

 Memory could be reduced to 32.58 Mwords without degradation in triples

 Integral transformation finished. Total CPU:   2.01 sec, npass=  1  Memory used:  30.89 MW

 Reference energy:                   -592.71186216

 MP2 singlet pair energy:              -0.53946310
 MP2 triplet pair energy:              -0.30437168
 MP2 correlation energy:               -0.84383478
 MP2 total energy:                   -593.55569694

 SCS-MP2 correlation energy:           -0.83674254   (PS=  1.200000  PT=  0.333333)
 SCS-MP2 total energy:               -593.54860470

 ITER.      SQ.NORM     CORR.ENERGY   TOTAL ENERGY   ENERGY CHANGE        DEN1      VAR(S)    VAR(P)  DIIS     TIME
   1      1.33970595    -0.91080847  -593.62267064    -0.06697370    -0.04301523  0.26D-02  0.55D-02  1  1     8.98
   2      1.36670154    -0.91615648  -593.62801865    -0.00534801    -0.02577672  0.69D-04  0.46D-03  2  2    16.00
   3      1.37203563    -0.91628415  -593.62814631    -0.00012766    -0.00303815  0.16D-04  0.28D-04  3  3    23.01
   4      1.37352915    -0.91634220  -593.62820436    -0.00005805    -0.00059405  0.76D-06  0.20D-05  4  4    30.05
   5      1.37376996    -0.91634882  -593.62821098    -0.00000662    -0.00007086  0.17D-06  0.16D-06  5  5    37.08
   6      1.37381568    -0.91634437  -593.62820653     0.00000445    -0.00001393  0.30D-07  0.14D-07  6  6    44.12
   7      1.37382328    -0.91634426  -593.62820642     0.00000011     0.00000064  0.53D-08  0.23D-08  6  2    51.16
   8      1.37382938    -0.91634394  -593.62820610     0.00000031    -0.00000125  0.73D-09  0.27D-09  6  1    58.19
   9      1.37383021    -0.91634388  -593.62820604     0.00000006     0.00000051  0.66D-10  0.44D-10  6  4    65.22
  10      1.37383110    -0.91634384  -593.62820600     0.00000003    -0.00000011  0.48D-11  0.35D-11  6  3    72.26
  11      1.37383111    -0.91634385  -593.62820601    -0.00000000     0.00000004  0.12D-11  0.54D-12  6  5    79.28
  12      1.37383107    -0.91634385  -593.62820601    -0.00000000     0.00000002  0.17D-12  0.77D-13  6  6    86.33
  13      1.37383102    -0.91634385  -593.62820601    -0.00000000     0.00000002  0.24D-13  0.11D-13  6  1    93.38
  14      1.37383101    -0.91634385  -593.62820601    -0.00000000     0.00000000  0.31D-14  0.12D-14  6  2   100.41
  15      1.37383101    -0.91634385  -593.62820601     0.00000000    -0.00000000  0.67D-15  0.31D-15  6  4   107.43
  16      1.37383101    -0.91634385  -593.62820601     0.00000000    -0.00000000  0.32D-16  0.23D-16  6  5   114.47
  17      1.37383102    -0.91634385  -593.62820601     0.00000000    -0.00000000  0.57D-17  0.24D-17  6  3   121.51
  18      1.37383102    -0.91634385  -593.62820601     0.00000000    -0.00000000  0.18D-17  0.49D-18  6  6   128.57
  19      1.37383102    -0.91634385  -593.62820601     0.00000000    -0.00000000  0.37D-18  0.11D-18  6  1   135.60
  20      1.37383102    -0.91634385  -593.62820601     0.00000000     0.00000000  0.46D-19  0.17D-19  6  2   142.64
  21      1.37383102    -0.91634385  -593.62820601    -0.00000000     0.00000000  0.83D-20  0.35D-20  6  4   149.67

 Norm of t1 vector:      0.07016326      S-energy:    -0.00000000      T1 diagnostic:  0.00826882
                                                                       D1 diagnostic:  0.02109197


 Total CPU time for triples:    100.48 sec


 RESULTS
 =======

  Reference energy                   -592.711862160685
  CCSD singlet pair energy             -0.634216283162
  CCSD triplet pair energy             -0.282127567669
  CCSD correlation energy              -0.916343850832

  Triples (T) contribution             -0.029869543928
  Total correlation energy             -0.946213394759

  CCSD total energy                  -593.628206011516
  CCSD[T] energy                     -593.658695026311
  CCSD-T energy                      -593.657764310337
 !CCSD(T) total energy               -593.658075555444

 Timing summary (sec):

 STEP                 CPU(USER)    SYS     CPU(TOT)    WALL
 Transformation          2.11      0.20      2.31      2.33
 CCSD iterations       147.56      2.81    150.37    150.42
 Triples               100.48      2.04    102.52    102.54

 Program statistics:

 Available memory in ccsd:               999998604
 Min. memory needed in ccsd:               5123362
 Max. memory used in ccsd:                 6867976
 Max. memory used in cckext:               6836871 (21 integral passes)



 **********************************************************************************************************************************
 DATASETS  * FILE   NREC   LENGTH (MB)   RECORD NAMES
              1      20      485.97       500      610      700      900      950      970     1000      129      960     1100   
                                          VAR    BASINP    GEOM    SYMINP    ZMAT    AOBASIS   BASIS     P2S    ABASIS      S 
                                         1400     1410     1200     1210     1080     1600     1650     1300     1700     1380   
                                           T        V       H0       H01     AOSYM     SMH    MOLCAS    ERIS     OPER     JKOP   

              2       3        0.92       700     1000     2100   
                                         GEOM     BASIS     RHF  

 PROGRAMS   *        TOTAL   CCSD(T)       RHF       INT
 CPU TIMES  *       261.93    250.16      7.49      4.24
 REAL TIME  *       268.78 SEC
 DISK USED  *         1.28 GB      
 GA USED    *         0.01 MB       (max)       0.00 MB       (current)
 **********************************************************************************************************************************

        CCSD(T)         RHF-SCF 
   -593.65807556   -592.71186216
 **********************************************************************************************************************************
 Variable memory released
