
 Primary working directories    : /tmp/1047041.149.gen4.q
 Secondary working directories  : /tmp/1047041.149.gen4.q
 Wavefunction directory         : /home/vulcan/mel64643/wfu/
 Main file repository           : /tmp/1047041.149.gen4.q/

 ARCHNAME  : Linux/x86_64
 FC        : /opt/intel/compilers_and_libraries_2016.1.150/linux/bin/intel64/ifort
 FCVERSION : 16.0.1
 BLASLIB   : -mkl
 id        : ccgc

 Nodes     nprocs
 n026         1
 ga_uses_ma=false, calling ma_init with nominal heap.
 GA-space will be limited to   8.0 MW (determined by -G option)

 Using customized tuning parameters: mindgm=10; mindgv=16; mindgc=4; mindgr=1; noblas=0; mincuda=1000; minvec=7
 default implementation of scratch files=df  

 ***,Optimization of ben_hcn
 memory,1000,m
 gthresh,energy=1.0d-12,orbital=1.0d-10,oneint=1.0d-16,twoint=1.0d-16,optgrad=1.0d-6,compress=1.0d-13
 geomtyp=xyz
 
 
 
 bohr
 geometry = {
  C   -1.8845299902    1.3715124354    2.2849184172
  C   -1.8574799512    2.6901919368   -0.0014129369
  C   -1.8749243921    1.3655665938   -2.2938182275
  C   -1.9193278370   -1.2734431984   -2.2927392707
  C   -1.9464476929   -2.5960190443    0.0005341306
  C   -1.9290499582   -1.2756806328    2.2857780114
  H   -1.8533921980    2.3957198047    4.0581103189
  H   -1.8232787777    4.7378901989   -0.0021856349
  H   -1.8538595069    2.3886576480   -4.0677971042
  H   -1.9145549844   -2.2982480037   -4.0658216586
  H   -1.9801624618   -4.6436754080    0.0013041563
  H   -1.9495470054   -2.2988142526    4.0597183177
  N    6.6241458331   -0.1990581847    0.0073734767
  C    4.4344423934   -0.0759549203    0.0101970782
  H    2.4147677764    0.0378785753    0.0129414398
 }
 
 basis=aug-cc-pvdz, H=cc-pvdz
 {rhf;maxit,200}
 {ccsd(t)}

 Variables initialized (661), CPU time= 0.00 sec
 Commands  initialized (458), CPU time= 0.01 sec, 486 directives.
 Default parameters read. Elapsed time= 0.05 sec

 Checking input...
 Passed
1


                                         ***  PROGRAM SYSTEM MOLPRO  ***
                         Copyright, University College Cardiff Consultants Limited, 2008

                                    Version 2010.1 linked May 16 2016 07:17:05


 **********************************************************************************************************************************
 LABEL *   Optimization of ben_hcn                                                       
 Linux-4.4.3/n026(x86_64) 64 bit mpp version                                             DATE: 06-Mar-24          TIME: 16:10:37  
 **********************************************************************************************************************************

 SHA1:             9e8077add272b0f3cad6f7df79ec5211205f459d
 **********************************************************************************************************************************

 THRESHOLDS:

 ZERO    =  1.00D-12  ONEINT  =  1.00D-16  TWOINT  =  1.00D-16  PREFAC  =  1.00D-14  LOCALI  =  1.00D-09  EORDER  =  1.00D-04
 ENERGY  =  1.00D-12  ETEST   =  0.00D+00  EDENS   =  0.00D+00  THRDEDEF=  1.00D-06  GRADIENT=  1.00D-02  STEP    =  1.00D-03
 ORBITAL =  1.00D-10  CIVEC   =  1.00D-05  COEFF   =  1.00D-04  PRINTCI =  5.00D-02  PUNCHCI =  9.90D+01  OPTGRAD =  1.00D-06
 OPTENERG=  1.00D-06  OPTSTEP =  3.00D-04  THRGRAD =  1.00D-10  COMPRESS=  1.00D-13  VARMIN  =  1.00D-07  VARMAX  =  1.00D-03
 THRDOUB =  0.00D+00  THRDIV  =  1.00D-05  THRRED  =  1.00D-07  THRPSP  =  1.00D+00  THRDC   =  1.00D-10  THRCS   =  1.00D-10
 THRNRM  =  1.00D-08  THREQ   =  0.00D+00  THRDE   =  1.00D+00  THRREF  =  1.00D-05  SPARFAC =  1.00D+00  THRDLP  =  1.00D-07
 THRDIA  =  1.00D-10  THRDLS  =  1.00D-07  THRGPS  =  0.00D+00  THRKEX  =  0.00D+00  THRDIS  =  2.00D-01  THRVAR  =  1.00D-10
 THRLOC  =  1.00D-06  THRGAP  =  1.00D-06  THRLOCT = -1.00D+00  THRGAPT = -1.00D+00  THRORB  =  1.00D-06  THRMLTP =  0.00D+00
 THRCPQCI=  1.00D-10  KEXTA   =  0.00D+00  THRCOARS=  0.00D+00  SYMTOL  =  1.00D-06  GRADTOL =  1.00D-06  THROVL  =  1.00D-08
 THRORTH =  1.00D-08  GRID    =  1.00D-06  GRIDMAX =  1.00D-03  DTMAX   =  0.00D+00

 SETTING GEOMTYP        =    XYZ
 ZUNIT=BOHR
 

 Variable memory set to 1000000000 words,  buffer space   230000 words

 SETTING BASIS          =    AUG-CC-PVDZ,H=CC-PVDZ


 Recomputing integrals since basis changed


 Using spherical harmonics

 Library entry C      S aug-cc-pVDZ          selected for orbital group  1
 Library entry C      P aug-cc-pVDZ          selected for orbital group  1
 Library entry C      D aug-cc-pVDZ          selected for orbital group  1
 Library entry H      S cc-pVDZ              selected for orbital group  2
 Library entry H      P cc-pVDZ              selected for orbital group  2
 Library entry N      S aug-cc-pVDZ          selected for orbital group  3
 Library entry N      P aug-cc-pVDZ          selected for orbital group  3
 Library entry N      D aug-cc-pVDZ          selected for orbital group  3

1PROGRAM * SEWARD (Integral evaluation for generally contracted gaussian basis sets)     Author: Roland Lindh, 1990

 Geometry written to block  1 of record 700


 Point group  C1  



 ATOMIC COORDINATES

 NR  ATOM    CHARGE       X              Y              Z

   1  C       6.00   -1.884529990    1.371512435    2.284918417
   2  C       6.00   -1.857479951    2.690191937   -0.001412937
   3  C       6.00   -1.874924392    1.365566594   -2.293818228
   4  C       6.00   -1.919327837   -1.273443198   -2.292739271
   5  C       6.00   -1.946447693   -2.596019044    0.000534131
   6  C       6.00   -1.929049958   -1.275680633    2.285778011
   7  H       1.00   -1.853392198    2.395719805    4.058110319
   8  H       1.00   -1.823278778    4.737890199   -0.002185635
   9  H       1.00   -1.853859507    2.388657648   -4.067797104
  10  H       1.00   -1.914554984   -2.298248004   -4.065821659
  11  H       1.00   -1.980162462   -4.643675408    0.001304156
  12  H       1.00   -1.949547005   -2.298814253    4.059718318
  13  N       7.00    6.624145833   -0.199058185    0.007373477
  14  C       6.00    4.434442393   -0.075954920    0.010197078
  15  H       1.00    2.414767776    0.037878575    0.012941440

 Bond lengths in Bohr (Angstrom)

 1-2  2.639499648  1-6  2.647567545  1-7  2.047969682  2-3  2.647651530  2-8  2.047984006
     ( 1.396763057)     ( 1.401032404)     ( 1.083738880)     ( 1.401076847)     ( 1.083746461)

  3- 4  2.639383548   3- 9  2.047964865   4- 5  2.647460150   4-10  2.047942583   5- 6  2.639305931
       ( 1.396701619)       ( 1.083736332)       ( 1.400975573)       ( 1.083724540)       ( 1.396660546)

  5-11  2.047934047   6-12  2.047946958  13-14  2.193162908  14-15  2.022881893
       ( 1.083720023)       ( 1.083726855)       ( 1.160571826)       ( 1.070462995)

 Bond angles

  1- 2- 3  119.99746565   1- 2- 8  120.00150513   1- 6- 5  120.00123550   1- 6-12  119.99793391

  2-1-6  119.99850435   2-1-7  119.99820177   2-3-4  119.99920942   2-3-9  119.99939120

  3- 2- 8  120.00102860   3- 4- 5  120.00130455   3- 4-10  119.99622932   4- 3- 9  120.00139929

  4- 5- 6  120.00228050   4- 5-11  119.99937982   5- 4-10  119.99983949   5- 6-12  120.00082906

  6- 1- 7  120.00082539   6- 5-11  119.99833506  13-14-15  179.99091354

 NUCLEAR CHARGE:                   56
 NUMBER OF PRIMITIVE AOS:         345
 NUMBER OF SYMMETRY AOS:          329
 NUMBER OF CONTRACTIONS:          219   ( 219A   )
 NUMBER OF CORE ORBITALS:           8   (   8A   )
 NUMBER OF VALENCE ORBITALS:       39   (  39A   )


 NUCLEAR REPULSION ENERGY  303.39359385


 Eigenvalues of metric

         1 0.864E-05 0.186E-04 0.229E-04 0.534E-04 0.630E-04 0.631E-04 0.926E-04 0.932E-04


 Contracted 2-electron integrals neglected if value below      1.0D-16
 AO integral compression algorithm  1   Integral accuracy      1.0D-16

     2339.635 MB (compressed) written to integral file ( 91.2%)

     Node minimum: 2339.635 MB, node maximum: 2339.635 MB


 NUMBER OF SORTED TWO-ELECTRON INTEGRALS:  290176095.     BUFFER LENGTH:  32768
 NUMBER OF SEGMENTS:  19  SEGMENT LENGTH:   15999762      RECORD LENGTH: 524288

 Memory used in sort:      16.56 MW

 SORT1 READ   320642736. AND WROTE   287602745. INTEGRALS IN    832 RECORDS. CPU TIME:     3.52 SEC, REAL TIME:     7.74 SEC
 SORT2 READ   287602745. AND WROTE   290176095. INTEGRALS IN   8925 RECORDS. CPU TIME:     2.05 SEC, REAL TIME:     3.18 SEC

 FILE SIZES:   FILE 1:  2150.7 MBYTE,  FILE 4:  3489.7 MBYTE,   TOTAL:   5640.4 MBYTE

 OPERATOR DM      FOR CENTER  0  COORDINATES:    0.000000    0.000000    0.000000


 **********************************************************************************************************************************
 DATASETS  * FILE   NREC   LENGTH (MB)   RECORD NAMES
              1      19     2151.27       500      610      700      900      950      970     1000      129      960     1100   
                                          VAR    BASINP    GEOM    SYMINP    ZMAT    AOBASIS   BASIS     P2S    ABASIS      S 
                                         1400     1410     1200     1210     1080     1600     1650     1300     1700   
                                           T        V       H0       H01     AOSYM     SMH    MOLCAS    ERIS     OPER   

 PROGRAMS   *        TOTAL       INT
 CPU TIMES  *        19.48     19.42
 REAL TIME  *        26.89 SEC
 DISK USED  *         7.98 GB      
 GA USED    *         0.01 MB       (max)       0.00 MB       (current)
 **********************************************************************************************************************************

1PROGRAM * RHF-SCF (CLOSED SHELL)       Authors: W. Meyer, H.-J. Werner


 NUMBER OF ELECTRONS:      28+   28-    SPACE SYMMETRY=1    SPIN SYMMETRY: Singlet 
 CONVERGENCE THRESHOLDS:    1.00E-10 (Density)    1.00E-13 (Energy)
 MAX. NUMBER OF ITERATIONS:      200
 INTERPOLATION TYPE:            DIIS
 INTERPOLATION STEPS:              2 (START)      1 (STEP)
 LEVEL SHIFTS:                  0.00 (CLOSED)  0.00 (OPEN) 



 Orbital guess generated from atomic densities. Full valence occupancy:   47

 Molecular orbital dump at record        2100.2

 ITERATION    DDIFF          GRAD             ENERGY        2-EL.EN.            DIPOLE MOMENTS         DIIS
    1      0.000D+00      0.000D+00      -323.54136577    822.124208   -1.89880    0.10258    0.00209    0
    2      0.000D+00      0.292D-02      -323.59780641    819.103640   -1.36876    0.04985   -0.00068    1
    3      0.781D-02      0.179D-02      -323.61440248    820.248877   -1.72960    0.07898    0.00059    2
    4      0.260D-02      0.576D-03      -323.61673903    820.450571   -1.63886    0.07176    0.00028    3
    5      0.963D-03      0.133D-03      -323.61686842    820.190583   -1.66280    0.07247    0.00026    4
    6      0.223D-03      0.229D-04      -323.61687457    820.217452   -1.66415    0.07242    0.00025    5
    7      0.845D-04      0.437D-05      -323.61687478    820.212564   -1.66450    0.07235    0.00024    6
    8      0.108D-04      0.126D-05      -323.61687480    820.213564   -1.66481    0.07241    0.00024    7
    9      0.354D-05      0.312D-06      -323.61687480    820.213594   -1.66478    0.07236    0.00024    6
   10      0.966D-06      0.114D-06      -323.61687480    820.213570   -1.66478    0.07240    0.00024    6
   11      0.314D-06      0.693D-07      -323.61687480    820.213593   -1.66478    0.07238    0.00024    7
   12      0.212D-06      0.315D-07      -323.61687480    820.213583   -1.66478    0.07238    0.00024    7
   13      0.123D-06      0.985D-08      -323.61687480    820.213588   -1.66478    0.07238    0.00024    8
   14      0.462D-07      0.309D-08      -323.61687480    820.213584   -1.66478    0.07238    0.00024    8
   15      0.116D-07      0.113D-08      -323.61687480    820.213586   -1.66478    0.07238    0.00024    9
   16      0.261D-08      0.155D-09      -323.61687480    820.213585   -1.66478    0.07238    0.00024    9
   17      0.677D-09      0.608D-10      -323.61687480    820.213585   -1.66478    0.07238    0.00024    8
   18      0.344D-09      0.207D-10      -323.61687480    820.213586   -1.66478    0.07238    0.00024    7
   19      0.178D-09      0.109D-10      -323.61687480    820.213585   -1.66478    0.07238    0.00024    7
   20      0.123D-09      0.581D-11      -323.61687480    820.213585   -1.66478    0.07238    0.00024    8
   21      0.325D-09      0.186D-11      -323.61687480    820.213585   -1.66478    0.07238    0.00024    8
   22      0.236D-09      0.814D-12      -323.61687480    820.213585   -1.66478    0.07238    0.00024    9
   23      0.123D-09      0.650D-12      -323.61687480    820.213585   -1.66478    0.07238    0.00024    9
   24      0.648D-10      0.573D-12      -323.61687480    820.213585   -1.66478    0.07238    0.00024    0

 Final occupancy:  28

 !RHF STATE 1.1 Energy               -323.616874802543
 Nuclear energy                       303.39359385
 One-electron energy                -1037.11726140
 Two-electron energy                  410.10679275
 Virial quotient                       -1.00170955
 !RHF STATE 1.1 Dipole moment          -1.66477897     0.07238395     0.00024023
 Dipole moment /Debye                  -4.23116893     0.18396960     0.00061055

 Orbital energies:

         1.1          2.1          3.1          4.1          5.1          6.1          7.1          8.1          9.1         10.1
    -15.591650   -11.283865   -11.266250   -11.265699   -11.265689   -11.264519   -11.264505   -11.263919    -1.218336    -1.173918

        11.1         12.1         13.1         14.1         15.1         16.1         17.1         18.1         19.1         20.1
     -1.037794    -1.037788    -0.845715    -0.845710    -0.789910    -0.729359    -0.664875    -0.639190    -0.608566    -0.608560

        21.1         22.1         23.1         24.1         25.1         26.1         27.1         28.1         29.1         30.1
     -0.565230    -0.520429    -0.514847    -0.514792    -0.475691    -0.475687    -0.359677    -0.359669     0.055868     0.060082


 **********************************************************************************************************************************
 DATASETS  * FILE   NREC   LENGTH (MB)   RECORD NAMES
              1      19     2151.27       500      610      700      900      950      970     1000      129      960     1100   
                                          VAR    BASINP    GEOM    SYMINP    ZMAT    AOBASIS   BASIS     P2S    ABASIS      S 
                                         1400     1410     1200     1210     1080     1600     1650     1300     1700   
                                           T        V       H0       H01     AOSYM     SMH    MOLCAS    ERIS     OPER   

              2       3        1.49       700     1000     2100   
                                         GEOM     BASIS     RHF  

 PROGRAMS   *        TOTAL       RHF       INT
 CPU TIMES  *        76.01     56.54     19.42
 REAL TIME  *        88.96 SEC
 DISK USED  *         7.98 GB      
 GA USED    *         0.01 MB       (max)       0.00 MB       (current)
 **********************************************************************************************************************************


1PROGRAM * CCSD (Closed-shell coupled cluster)     Authors: C. Hampel, H.-J. Werner, 1991, M. Deegan, P.J. Knowles, 1992


 Convergence thresholds:  THRVAR = 1.00D-08  THRDEN = 1.00D-12

 CCSD(T)     terms to be evaluated (factor= 1.000)


 Number of core orbitals:           8 (   8 )
 Number of closed-shell orbitals:  20 (  20 )
 Number of external orbitals:     191 ( 191 )

 Molecular orbitals read from record     2100.2  Type=RHF/CANONICAL (state 1.1)

 Number of N-1 electron functions:              20
 Number of N-2 electron functions:             210
 Number of singly external CSFs:              3820
 Number of doubly external CSFs:           7298110
 Total number of CSFs:                     7301931

 Length of J-op  integral file:               0.00 MB
 Length of K-op  integral file:               3.32 MB
 Length of 3-ext integral record:             0.00 MB

 Memory could be reduced to 174.82 Mwords without degradation in triples

 Integral transformation finished. Total CPU:  23.09 sec, npass=  1  Memory used: 128.13 MW

 Reference energy:                   -323.61687480

 MP2 singlet pair energy:              -0.67334281
 MP2 triplet pair energy:              -0.43519272
 MP2 correlation energy:               -1.10853553
 MP2 total energy:                   -324.72541033

 SCS-MP2 correlation energy:           -1.07879795   (PS=  1.200000  PT=  0.333333)
 SCS-MP2 total energy:               -324.69567276

 ITER.      SQ.NORM     CORR.ENERGY   TOTAL ENERGY   ENERGY CHANGE        DEN1      VAR(S)    VAR(P)  DIIS     TIME
   1      1.42873259    -1.14462123  -324.76149603    -0.03608569    -0.00289365  0.51D-02  0.99D-02  1  1    96.19
   2      1.46305525    -1.15049472  -324.76736952    -0.00587349    -0.03103150  0.83D-04  0.13D-02  2  2   169.74
   3      1.47634659    -1.15094240  -324.76781720    -0.00044768    -0.00655913  0.40D-04  0.12D-03  3  3   243.23
   4      1.48203851    -1.15119207  -324.76806687    -0.00024967    -0.00178577  0.22D-05  0.15D-04  4  4   316.75
   5      1.48356812    -1.15122776  -324.76810256    -0.00003569    -0.00036594  0.25D-06  0.14D-05  5  5   390.34
   6      1.48387442    -1.15121925  -324.76809405     0.00000852    -0.00005028  0.24D-07  0.91D-07  6  6   463.87
   7      1.48390923    -1.15122266  -324.76809746    -0.00000341    -0.00000225  0.35D-08  0.80D-08  6  2   537.45
   8      1.48391394    -1.15122301  -324.76809781    -0.00000036    -0.00000042  0.46D-09  0.84D-09  6  1   611.01
   9      1.48391419    -1.15122318  -324.76809798    -0.00000017     0.00000078  0.85D-10  0.82D-10  6  3   684.58
  10      1.48391459    -1.15122324  -324.76809804    -0.00000006     0.00000001  0.20D-10  0.12D-10  6  4   758.16
  11      1.48391433    -1.15122327  -324.76809808    -0.00000004     0.00000022  0.62D-11  0.24D-11  6  5   831.76
  12      1.48391417    -1.15122329  -324.76809809    -0.00000001     0.00000009  0.19D-11  0.67D-12  6  6   905.34
  13      1.48391400    -1.15122329  -324.76809809    -0.00000001     0.00000006  0.43D-12  0.16D-12  6  2   978.89
  14      1.48391393    -1.15122329  -324.76809809     0.00000000     0.00000002  0.86D-13  0.39D-13  6  1  1052.48
  15      1.48391391    -1.15122329  -324.76809809     0.00000000     0.00000000  0.12D-13  0.66D-14  6  3  1126.01
  16      1.48391390    -1.15122329  -324.76809809     0.00000000    -0.00000000  0.15D-14  0.11D-14  6  4  1199.66
  17      1.48391390    -1.15122329  -324.76809809     0.00000000    -0.00000000  0.13D-15  0.18D-15  6  6  1273.22
  18      1.48391390    -1.15122329  -324.76809809    -0.00000000    -0.00000000  0.13D-16  0.18D-16  6  5  1346.83
  19      1.48391390    -1.15122329  -324.76809809     0.00000000    -0.00000000  0.29D-17  0.34D-17  6  2  1420.38
  20      1.48391390    -1.15122329  -324.76809809     0.00000000    -0.00000000  0.70D-18  0.72D-18  6  1  1493.93
  21      1.48391390    -1.15122329  -324.76809809     0.00000000    -0.00000000  0.21D-18  0.15D-18  6  3  1567.53
  22      1.48391390    -1.15122329  -324.76809809     0.00000000    -0.00000000  0.97D-19  0.57D-19  6  4  1641.13
  23      1.48391390    -1.15122329  -324.76809809     0.00000000    -0.00000000  0.53D-19  0.27D-19  6  6  1714.70
  24      1.48391390    -1.15122329  -324.76809809     0.00000000    -0.00000000  0.35D-19  0.15D-19  6  5  1788.24

 Norm of t1 vector:      0.09774112      S-energy:    -0.00000000      T1 diagnostic:  0.01092779
                                                                       D1 diagnostic:  0.02771912

 Doubles amplitudes (print threshold =  0.500E-01):

         I         J         SYM. A    SYM. B    A         B      T(IJ, AB)

        19        19         1         1         7         7     -0.05490705
        20        20         1         1         8         8     -0.05490791


 Total CPU time for triples:   1508.83 sec


 RESULTS
 =======

  Reference energy                   -323.616874802541
  CCSD singlet pair energy             -0.770021380329
  CCSD triplet pair energy             -0.381201909546
  CCSD correlation energy              -1.151223289876

  Triples (T) contribution             -0.054014567436
  Total correlation energy             -1.205237857312

  CCSD total energy                  -324.768098092417
  CCSD[T] energy                     -324.823445017402
  CCSD-T energy                      -324.821507157674
 !CCSD(T) total energy               -324.822112659853

 Timing summary (sec):

 STEP                 CPU(USER)    SYS     CPU(TOT)    WALL
 Transformation         23.94      1.15     25.09     25.09
 CCSD iterations      1764.34     16.30   1780.64   1780.88
 Triples              1508.83     16.07   1524.90   1525.04

 Program statistics:

 Available memory in ccsd:               999998300
 Min. memory needed in ccsd:              17709720
 Max. memory used in ccsd:                24415330
 Max. memory used in cckext:              20754978 (24 integral passes)



 **********************************************************************************************************************************
 DATASETS  * FILE   NREC   LENGTH (MB)   RECORD NAMES
              1      20     2833.44       500      610      700      900      950      970     1000      129      960     1100   
                                          VAR    BASINP    GEOM    SYMINP    ZMAT    AOBASIS   BASIS     P2S    ABASIS      S 
                                         1400     1410     1200     1210     1080     1600     1650     1300     1700     1380   
                                           T        V       H0       H01     AOSYM     SMH    MOLCAS    ERIS     OPER     JKOP   

              2       3        1.49       700     1000     2100   
                                         GEOM     BASIS     RHF  

 PROGRAMS   *        TOTAL   CCSD(T)       RHF       INT
 CPU TIMES  *      3373.14   3297.12     56.54     19.42
 REAL TIME  *      3420.11 SEC
 DISK USED  *         7.98 GB      
 GA USED    *         0.01 MB       (max)       0.00 MB       (current)
 **********************************************************************************************************************************

        CCSD(T)         RHF-SCF 
   -324.82211266   -323.61687480
 **********************************************************************************************************************************
 Variable memory released
