
    -----------------------------------------------------------------------
          Psi4: An Open-Source Ab Initio Electronic Structure Package
                               Psi4 1.4a2.dev629 

                         Git: Rev {master} 2938fc2 dirty


    D. G. A. Smith, L. A. Burns, A. C. Simmonett, R. M. Parrish,
    M. C. Schieber, R. Galvelis, P. Kraus, H. Kruse, R. Di Remigio,
    A. Alenaizan, A. M. James, S. Lehtola, J. P. Misiewicz, M. Scheurer,
    R. A. Shaw, J. B. Schriber, Y. Xie, Z. L. Glick, D. A. Sirianni,
    J. S. O'Brien, J. M. Waldrop, A. Kumar, E. G. Hohenstein,
    B. P. Pritchard, B. R. Brooks, H. F. Schaefer III, A. Yu. Sokolov,
    K. Patkowski, A. E. DePrince III, U. Bozkaya, R. A. King,
    F. A. Evangelista, J. M. Turney, T. D. Crawford, C. D. Sherrill,
    J. Chem. Phys. 152(18) 184108 (2020). https://doi.org/10.1063/5.0006002

                            Additional Code Authors
    E. T. Seidl, C. L. Janssen, E. F. Valeev, M. L. Leininger,
    J. F. Gonthier, R. M. Richard, H. R. McAlexander, M. Saitow, X. Wang,
    P. Verma, and M. H. Lechner

             Previous Authors, Complete List of Code Contributors,
                       and Citations for Specific Modules
    https://github.com/psi4/psi4/blob/master/codemeta.json
    https://github.com/psi4/psi4/graphs/contributors
    http://psicode.org/psi4manual/master/introduction.html#citing-psifour

    -----------------------------------------------------------------------


    Psi4 started on: Tuesday, 02 November 2021 12:13PM

    Process ID: 30386
    Host:       n056
    PSIDATADIR: /opt/psi/4/master/share/psi4
    Memory:     500.0 MiB
    Threads:    1
    
  ==> Input File <==

--------------------------------------------------------------------------
import os
memory 14 GB 
 
molecule {
 H    4.6092100314   -0.0000009946    0.0013082573
 X    2.5892492900    1.0000000000    0.0000000000
 C    2.5983790664    0.0000002082   -0.0024865030
 X    2.5892492900   -0.0000000000    1.0000000000
 X    0.3005190700    1.0000000000   -0.0000000000
 C    0.3051863164    0.0000015770   -0.0011255967
 X    0.3005190700    0.0000000000    1.0000000000
 C   -2.4716137632    0.0000032123    0.0004013490
 H   -3.2035373586    1.9272066689   -0.0046711559
 H   -3.2011949350   -0.9590108087   -1.6657218059
 H   -3.2058811474   -0.9681998932    1.6722954552
units bohr
}

basis {

assign 6-31g_2dfp_

[ 6-31g_2dfp_ ]

spherical

!----------------------------------------------------------------------
! Basis Set Exchange
! Version v0.8.13
! https://www.basissetexchange.org
!----------------------------------------------------------------------
!   Basis set: 6-31G(2df,p)
! Description: 6-31G(2df,p)
!        Role: orbital
!     Version: 0  (Data from the original Basis Set Exchange)
!----------------------------------------------------------------------


****
H     0
S    3   1.00
     18.7311370              0.03349460
      2.8253937              0.23472695
      0.6401217              0.81375733
S    1   1.00
      0.1612778              1.00000000
P    1   1.00
      1.5000000              1.0000000
P    1   1.00
      0.3750000              1.0000000
****
B     0
S    6   1.00
   2068.8823000              0.0018663
    310.6495700              0.0142515
     70.6830330              0.0695516
     19.8610800              0.2325729
      6.2993048              0.4670787
      2.1270270              0.3634314
SP   3   1.00
      4.7279710             -0.1303938              0.0745976
      1.1903377             -0.1307889              0.3078467
      0.3594117              1.1309444              0.7434568
SP   1   1.00
      0.1267512              1.0000000              1.0000000
D    1   1.00
      0.8020000              1.0000000
D    1   1.00
      0.2005000              1.0000000
F    1   1.00
      0.5000000              1.0000000
****
C     0
S    6   1.00
   3047.5249000              0.0018347
    457.3695100              0.0140373
    103.9486900              0.0688426
     29.2101550              0.2321844
      9.2866630              0.4679413
      3.1639270              0.3623120
SP   3   1.00
      7.8682724             -0.1193324              0.0689991
      1.8812885             -0.1608542              0.3164240
      0.5442493              1.1434564              0.7443083
SP   1   1.00
      0.1687144              1.0000000              1.0000000
D    1   1.00
      1.2520000              1.0000000
D    1   1.00
      0.3130000              1.0000000
F    1   1.00
      0.8000000              1.0000000
****
N     0
S    6   1.00
   4173.5110000              0.0018348
    627.4579000              0.0139950
    142.9021000              0.0685870
     40.2343300              0.2322410
     12.8202100              0.4690700
      4.3904370              0.3604550
SP   3   1.00
     11.6263580             -0.1149610              0.0675800
      2.7162800             -0.1691180              0.3239070
      0.7722180              1.1458520              0.7408950
SP   1   1.00
      0.2120313              1.0000000              1.0000000
D    1   1.00
      1.8260000              1.0000000
D    1   1.00
      0.4565000              1.0000000
F    1   1.00
      1.0000000              1.0000000
****
O     0
S    6   1.00
   5484.6717000              0.0018311
    825.2349500              0.0139501
    188.0469600              0.0684451
     52.9645000              0.2327143
     16.8975700              0.4701930
      5.7996353              0.3585209
SP   3   1.00
     15.5396160             -0.1107775              0.0708743
      3.5999336             -0.1480263              0.3397528
      1.0137618              1.1307670              0.7271586
SP   1   1.00
      0.2700058              1.0000000              1.0000000
D    1   1.00
      2.5840000              1.0000000
D    1   1.00
      0.6460000              1.0000000
F    1   1.00
      1.4000000              1.0000000
****
F     0
S    6   1.00
   7001.7130900              0.0018196169
   1051.3660900              0.0139160796
    239.2856900              0.0684053245
     67.3974453              0.233185760
     21.5199573              0.471267439
      7.40310130             0.356618546
SP   3   1.00
     20.8479528             -0.108506975            0.0716287243
      4.80830834            -0.146451658            0.3459121030
      1.34406986             1.128688580            0.7224699570
SP   1   1.00
      0.358151393            1.0000000              1.0000000
D    1   1.00
      3.5000000              1.0000000
D    1   1.00
      0.8750000              1.0000000
F    1   1.00
      1.8500000              1.0000000
****
Al     0
S    6   1.00
  13983.1000000              0.00194267
   2098.7500000              0.0148599
    477.7050000              0.0728494
    134.3600000              0.2468300
     42.8709000              0.4872580
     14.5189000              0.3234960
SP   6   1.00
    239.6680000             -0.00292619             0.00460285
     57.4419000             -0.0374080              0.0331990
     18.2859000             -0.1144870              0.1362820
      6.5991400              0.1156350              0.3304760
      2.4904900              0.6125950              0.4491460
      0.9445400              0.3937990              0.2657040
SP   3   1.00
      1.2779000             -0.2276060             -0.0175130
      0.3975900              0.00144583             0.2445330
      0.1600950              1.0927900              0.8049340
SP   1   1.00
      0.0556577              1.0000000              1.0000000
D    1   1.00
      0.6500000              1.0000000
D    1   1.00
      0.1625000              1.0000000
F    1   1.00
      0.2500000              1.0000000
****
Si     0
S    6   1.00
  16115.9000000              0.00195948
   2425.5800000              0.01492880
    553.8670000              0.07284780
    156.3400000              0.24613000
     50.0683000              0.48591400
     17.0178000              0.32500200
SP   6   1.00
    292.7180000             -0.00278094             0.00443826
     69.8731000             -0.03571460             0.03266790
     22.3363000             -0.11498500             0.13472100
      8.1503900              0.09356340             0.32867800
      3.1345800              0.60301700             0.44964000
      1.2254300              0.41895900             0.26137200
SP   3   1.00
      1.7273800             -0.24463000            -0.01779510
      0.5729220              0.00431572             0.25353900
      0.2221920              1.09818000             0.80066900
SP   1   1.00
      0.0778369              1.00000000             1.00000000
D    1   1.00
      0.9000000              1.0000000
D    1   1.00
      0.2250000              1.0000000
F    1   1.00
      0.3200000              1.0000000
****
P     0
S    6   1.00
  19413.3000000              0.0018516
   2909.4200000              0.0142062
    661.3640000              0.0699995
    185.7590000              0.2400790
     59.1943000              0.4847620
     20.0310000              0.3352000
SP   6   1.00
    339.4780000             -0.00278217             0.00456462
     81.0101000             -0.0360499              0.03369360
     25.8780000             -0.1166310              0.13975500
      9.4522100              0.0968328              0.33936200
      3.6656600              0.6144180              0.45092100
      1.4674600              0.4037980              0.23858600
SP   3   1.00
      2.1562300             -0.2529230             -0.01776530
      0.7489970              0.0328517              0.27405800
      0.2831450              1.0812500              0.78542100
SP   1   1.00
      0.0998317              1.0000000              1.00000000
D    1   1.00
      1.1000000              1.0000000
D    1   1.00
      0.2750000              1.0000000
F    1   1.00
      0.4500000              1.0000000
****
S     0
S    6   1.00
  21917.1000000              0.0018690
   3301.4900000              0.0142300
    754.1460000              0.0696960
    212.7110000              0.2384870
     67.9896000              0.4833070
     23.0515000              0.3380740
SP   6   1.00
    423.7350000             -0.0023767              0.0040610
    100.7100000             -0.0316930              0.0306810
     32.1599000             -0.1133170              0.1304520
     11.8079000              0.0560900              0.3272050
      4.6311000              0.5922550              0.4528510
      1.8702500              0.4550060              0.2560420
SP   3   1.00
      2.6158400             -0.2503740             -0.0145110
      0.9221670              0.0669570              0.3102630
      0.3412870              1.0545100              0.7544830
SP   1   1.00
      0.1171670              1.0000000              1.0000000
D    1   1.00
      1.3000000              1.0000000
D    1   1.00
      0.3250000              1.0000000
F    1   1.00
      0.5500000              1.0000000
****
Cl     0
S    6   1.00
  25180.1000000              0.0018330
   3780.3500000              0.0140340
    860.4740000              0.0690970
    242.1450000              0.2374520
     77.3349000              0.4830340
     26.2470000              0.3398560
SP   6   1.00
    491.7650000             -0.0022974              0.0039894
    116.9840000             -0.0307140              0.0303180
     37.4153000             -0.1125280              0.1298800
     13.7834000              0.0450160              0.3279510
      5.4521500              0.5893530              0.4535270
      2.2258800              0.4652060              0.2521540
SP   3   1.00
      3.1864900             -0.2518300             -0.0142990
      1.1442700              0.0615890              0.3235720
      0.4203770              1.0601800              0.7435070
SP   1   1.00
      0.1426570              1.0000000              1.0000000
D    1   1.00
      1.5000000              1.0000000
D    1   1.00
      0.3750000              1.0000000
F    1   1.00
      0.7000000              1.0000000
****
}


set {
reference rhf                          
freeze_core true
e_convergence 10                       
d_convergence 10                      
dft_spherical_points 1202
dft_radial_points 99
}

e = energy('b3lyp')

print_out('Grab this energy {0}'.format(e))
--------------------------------------------------------------------------

  Memory set to  13.039 GiB by Python driver.

Scratch directory: /tmp/

*** tstart() called on n056
*** at Tue Nov  2 12:13:32 2021

   => Loading Basis Set <=

    Name: ANONYMOUS9A95AAF1
    Role: ORBITAL
    Keyword: BASIS
    atoms 1, 5-7 entry H          line    15 inputblock 6-31g_2dfp_ 
    atoms 2-4    entry C          line    48 inputblock 6-31g_2dfp_ 


         ---------------------------------------------------------
                                   SCF
               by Justin Turney, Rob Parrish, Andy Simmonett
                          and Daniel G. A. Smith
                              RKS Reference
                        1 Threads,  13351 MiB Core
         ---------------------------------------------------------

  ==> Geometry <==

    Molecular point group: c1
    Full point group: C1

    Geometry (in Bohr), charge = 0, multiplicity = 1:

       Center              X                  Y                   Z               Mass       
    ------------   -----------------  -----------------  -----------------  -----------------
         H            4.605640827246    -0.000002366103     0.002189895752     1.007825032230
         C            2.594809862246    -0.000001163303    -0.001604864548    12.000000000000
         C            0.301617112246     0.000000205497    -0.000243958248    12.000000000000
         C           -2.475182967354     0.000001840797     0.001282987452    12.000000000000
         H           -3.207106562754     1.927205297397    -0.003789517448     1.007825032230
         H           -3.204764139154    -0.959012180203    -1.664840167448     1.007825032230
         H           -3.209450351554    -0.968201264703     1.673177093652     1.007825032230

  Running in c1 symmetry.

  Rotational constants: A =      5.36077  B =      0.28201  C =      0.28193 [cm^-1]
  Rotational constants: A = 160711.97047  B =   8454.44882  C =   8452.00085 [MHz]
  Nuclear repulsion =   58.432757214919434

  Charge       = 0
  Multiplicity = 1
  Electrons    = 22
  Nalpha       = 11
  Nbeta        = 11

  ==> Algorithm <==

  SCF Algorithm Type is DF.
  DIIS enabled.
  MOM disabled.
  Fractional occupation disabled.
  Guess Type is SAD.
  Energy threshold   = 1.00e-10
  Density threshold  = 1.00e-10
  Integral threshold = 0.00e+00

  ==> Primary Basis <==

  Basis Set: ANONYMOUS9A95AAF1
    Blend: 6-31G_2DFP_
    Number of shells: 40
    Number of basis function: 110
    Number of Cartesian functions: 125
    Spherical Harmonics?: true
    Max angular momentum: 3

  ==> DFT Potential <==

   => Composite Functional: B3LYP <= 

    B3LYP Hyb-GGA Exchange-Correlation Functional

    P. J. Stephens, F. J. Devlin, C. F. Chabalowski, and M. J. Frisch, J. Phys. Chem. 98, 11623 (1994)

    Deriv               =              1
    GGA                 =           TRUE
    Meta                =          FALSE

    Exchange Hybrid     =           TRUE
    MP2 Hybrid          =          FALSE

   => Exchange Functionals <=

    0.0800   Slater exchange
    0.7200         Becke 88

   => Exact (HF) Exchange <=

    0.2000               HF 

   => Correlation Functionals <=

    0.1900   Vosko, Wilk & Nusair (VWN5_RPA)
    0.8100   Lee, Yang & Parr

   => Molecular Quadrature <=

    Radial Scheme          =       TREUTLER
    Pruning Scheme         =           NONE
    Nuclear Scheme         =       TREUTLER

    BS radius alpha        =              1
    Pruning alpha          =              1
    Radial Points          =             99
    Spherical Points       =           1202
    Total Points           =         786264
    Total Blocks           =           5443
    Max Points             =            256
    Max Functions          =            110
    Weights Tolerance      =       1.00E-15

   => Loading Basis Set <=

    Name: (ANONYMOUS9A95AAF1 AUX)
    Role: JKFIT
    Keyword: DF_BASIS_SCF
    atoms 1, 5-7 entry H          line    18 file /opt/psi/4/master/share/psi4/basis/def2-universal-jkfit.gbs 
    atoms 2-4    entry C          line   198 file /opt/psi/4/master/share/psi4/basis/def2-universal-jkfit.gbs 

  ==> Integral Setup <==

  DFHelper Memory: AOs need 0.030 GiB; user supplied 7.646 GiB. Using in-core AOs.

  ==> MemDFJK: Density-Fitted J/K Matrices <==

    J tasked:                   Yes
    K tasked:                   Yes
    wK tasked:                   No
    OpenMP threads:               1
    Memory [MiB]:              7829
    Algorithm:                 Core
    Schwarz Cutoff:           1E-12
    Mask sparsity (%):       1.1074
    Fitting Condition:        1E-10

   => Auxiliary Basis Set <=

  Basis Set: (ANONYMOUS9A95AAF1 AUX)
    Blend: DEF2-UNIVERSAL-JKFIT
    Number of shells: 99
    Number of basis function: 297
    Number of Cartesian functions: 347
    Spherical Harmonics?: true
    Max angular momentum: 4

  Cached 100.0% of DFT collocation blocks in 2.133 [GiB].

  Minimum eigenvalue in the overlap matrix is 1.1348587786E-04.
  Reciprocal condition number of the overlap matrix is 2.1167329175E-05.
    Using symmetric orthogonalization.

  ==> Pre-Iterations <==

  SCF Guess: Superposition of Atomic Densities via on-the-fly atomic UHF (no occupation information).

   -------------------------
    Irrep   Nso     Nmo    
   -------------------------
     A        110     110 
   -------------------------
    Total     110     110
   -------------------------

  ==> Iterations <==

                           Total Energy        Delta E     RMS |[F,P]|

   @DF-RKS iter SAD:  -116.02120911671091   -1.16021e+02   0.00000e+00 
   @DF-RKS iter   1:  -116.43944115791463   -4.18232e-01   5.76383e-03 DIIS
   @DF-RKS iter   2:  -116.45690228479589   -1.74611e-02   5.47193e-03 DIIS
   @DF-RKS iter   3:  -116.65877510470510   -2.01873e-01   8.30053e-04 DIIS
   @DF-RKS iter   4:  -116.66141948157916   -2.64438e-03   5.27262e-04 DIIS
   @DF-RKS iter   5:  -116.66313431835299   -1.71484e-03   2.99522e-05 DIIS
   @DF-RKS iter   6:  -116.66313860186327   -4.28351e-06   8.82686e-06 DIIS
   @DF-RKS iter   7:  -116.66313905264795   -4.50785e-07   2.88784e-06 DIIS
   @DF-RKS iter   8:  -116.66313910445231   -5.18044e-08   2.88706e-07 DIIS
   @DF-RKS iter   9:  -116.66313910512409   -6.71776e-10   2.03475e-08 DIIS
   @DF-RKS iter  10:  -116.66313910512764   -3.55271e-12   2.02975e-09 DIIS
   @DF-RKS iter  11:  -116.66313910512747    1.70530e-13   1.78461e-10 DIIS
   @DF-RKS iter  12:  -116.66313910512740    7.10543e-14   3.34146e-11 DIIS
  Energy and wave function converged.


  ==> Post-Iterations <==

    Orbital Energies [Eh]
    ---------------------

    Doubly Occupied:                                                      

       1A    -10.202859     2A    -10.181162     3A    -10.165382  
       4A     -0.772566     5A     -0.694430     6A     -0.522749  
       7A     -0.447066     8A     -0.429653     9A     -0.429591  
      10A     -0.260477    11A     -0.260439  

    Virtual:                                                              

      12A      0.056318    13A      0.056553    14A      0.095370  
      15A      0.124802    16A      0.167746    17A      0.168232  
      18A      0.222214    19A      0.368368    20A      0.399227  
      21A      0.434662    22A      0.435285    23A      0.475835  
      24A      0.476208    25A      0.564115    26A      0.564625  
      27A      0.578532    28A      0.579120    29A      0.602832  
      30A      0.629370    31A      0.629390    32A      0.668064  
      33A      0.668520    34A      0.668909    35A      0.674467  
      36A      0.852481    37A      0.874385    38A      0.874426  
      39A      0.898173    40A      0.922446    41A      0.922550  
      42A      0.998828    43A      1.079723    44A      1.081049  
      45A      1.161064    46A      1.295144    47A      1.297281  
      48A      1.328596    49A      1.353853    50A      1.378799  
      51A      1.378852    52A      1.435617    53A      1.437595  
      54A      1.542592    55A      1.615811    56A      1.616682  
      57A      1.675991    58A      1.737422    59A      1.884252  
      60A      1.886459    61A      2.482982    62A      2.673310  
      63A      2.683143    64A      2.692003    65A      2.692907  
      66A      2.804585    67A      2.805061    68A      2.805555  
      69A      2.913007    70A      2.929836    71A      2.930271  
      72A      3.034159    73A      3.035459    74A      3.078205  
      75A      3.087754    76A      3.103115    77A      3.103649  
      78A      3.119760    79A      3.243224    80A      3.243497  
      81A      3.290006    82A      3.290595    83A      3.301153  
      84A      3.392469    85A      3.392735    86A      3.515502  
      87A      3.516442    88A      3.592039    89A      3.831764  
      90A      3.850166    91A      3.851913    92A      3.976965  
      93A      3.978347    94A      3.979620    95A      4.164348  
      96A      4.166176    97A      4.341896    98A      4.387528  
      99A      4.425986   100A      4.431131   101A      4.648014  
     102A      4.648108   103A      4.697200   104A      4.827431  
     105A      4.827683   106A      4.943106   107A      5.137776  
     108A      5.277025   109A      5.287455   110A      5.753103  

    Final Occupation by Irrep:
              A 
    DOCC [    11 ]

  @DF-RKS Final Energy:  -116.66313910512740

   => Energetics <=

    Nuclear Repulsion Energy =             58.4327572149194339
    One-Electron Energy =                -271.1460092371628434
    Two-Electron Energy =                 110.3816220377239148
    DFT Exchange-Correlation Energy =     -14.3315091206079011
    Empirical Dispersion Energy =           0.0000000000000000
    VV10 Nonlocal Energy =                  0.0000000000000000
    Total Energy =                       -116.6631391051273994

Computation Completed


Properties will be evaluated at   0.000000,   0.000000,   0.000000 [a0]

Properties computed using the SCF density matrix

  Nuclear Dipole Moment: [e a0]
     X:    -2.4882      Y:    -0.0000      Z:     0.0033

  Electronic Dipole Moment: [e a0]
     X:     2.1986      Y:     0.0000      Z:    -0.0036

  Dipole Moment: [e a0]
     X:    -0.2897      Y:    -0.0000      Z:    -0.0002     Total:     0.2897

  Dipole Moment: [D]
     X:    -0.7362      Y:    -0.0000      Z:    -0.0005     Total:     0.7362


*** tstop() called on n056 at Tue Nov  2 12:14:07 2021
Module time:
	user time   =      33.85 seconds =       0.56 minutes
	system time =       0.62 seconds =       0.01 minutes
	total time  =         35 seconds =       0.58 minutes
Total time:
	user time   =      33.85 seconds =       0.56 minutes
	system time =       0.62 seconds =       0.01 minutes
	total time  =         35 seconds =       0.58 minutes
Grab this energy -116.6631391051274
    Psi4 stopped on: Tuesday, 02 November 2021 12:14PM
    Psi4 wall time for execution: 0:00:34.52

*** Psi4 exiting successfully. Buy a developer a beer!
