
 Primary working directories    : /tmp/943186.380.gen6.q
 Secondary working directories  : /tmp/943186.380.gen6.q
 Wavefunction directory         : /home/vulcan/mel64643/wfu/
 Main file repository           : /tmp/943186.380.gen6.q/

 ARCHNAME  : Linux/x86_64
 FC        : /opt/intel/compilers_and_libraries_2016.1.150/linux/bin/intel64/ifort
 FCVERSION : 16.0.1
 BLASLIB   : -mkl
 id        : ccgc

 Nodes     nprocs
 n087         1
 ga_uses_ma=false, calling ma_init with nominal heap.
 GA-space will be limited to   8.0 MW (determined by -G option)

 Using customized tuning parameters: mindgm=10; mindgv=16; mindgc=4; mindgr=1; noblas=0; mincuda=1000; minvec=7
 default implementation of scratch files=df  

 ***,Optimization of h2o_2
 memory,1000,m
 gthresh,energy=1.0d-12,orbital=1.0d-10,oneint=1.0d-16,twoint=1.0d-16,optgrad=1.0d-6,compress=1.0d-13
 geomtyp=xyz
 
 bohr
 geometry = {
  C    0.0023450466   -3.4200654286    0.0000393352
  H   -0.9652288802   -2.7298525356   -1.6823585205
  H   -0.9618040581   -2.7346231496    1.6863492337
  H    1.9478962178   -2.7434582777    0.0093042550
  H   -0.0055880183   -5.4798599572   -0.0028695903
  C   -0.0035162328    3.4234300307    0.0012844343
  H    0.0050663532    5.4832233147   -0.0004053201
  H    0.9628547704    2.7420486758   -1.6853993585
  H    0.9653105788    2.7173468002    1.6763595832
  H   -1.9473357774    2.7418105273   -0.0023040521
 }
 
 basis=VDZ
 {rhf;maxit,200}
 {ccsd(t);maxit,200}

 Variables initialized (661), CPU time= 0.00 sec
 Commands  initialized (458), CPU time= 0.01 sec, 486 directives.
 Default parameters read. Elapsed time= 0.05 sec

 Checking input...
 Passed
1


                                         ***  PROGRAM SYSTEM MOLPRO  ***
                         Copyright, University College Cardiff Consultants Limited, 2008

                                    Version 2010.1 linked May 16 2016 07:17:05


 **********************************************************************************************************************************
 LABEL *   Optimization of h2o_2                                                         
 Linux-4.4.3/n087(x86_64) 64 bit mpp version                                             DATE: 23-Oct-23          TIME: 12:40:03  
 **********************************************************************************************************************************

 SHA1:             9e8077add272b0f3cad6f7df79ec5211205f459d
 **********************************************************************************************************************************

 THRESHOLDS:

 ZERO    =  1.00D-12  ONEINT  =  1.00D-16  TWOINT  =  1.00D-16  PREFAC  =  1.00D-14  LOCALI  =  1.00D-09  EORDER  =  1.00D-04
 ENERGY  =  1.00D-12  ETEST   =  0.00D+00  EDENS   =  0.00D+00  THRDEDEF=  1.00D-06  GRADIENT=  1.00D-02  STEP    =  1.00D-03
 ORBITAL =  1.00D-10  CIVEC   =  1.00D-05  COEFF   =  1.00D-04  PRINTCI =  5.00D-02  PUNCHCI =  9.90D+01  OPTGRAD =  1.00D-06
 OPTENERG=  1.00D-06  OPTSTEP =  3.00D-04  THRGRAD =  1.00D-10  COMPRESS=  1.00D-13  VARMIN  =  1.00D-07  VARMAX  =  1.00D-03
 THRDOUB =  0.00D+00  THRDIV  =  1.00D-05  THRRED  =  1.00D-07  THRPSP  =  1.00D+00  THRDC   =  1.00D-10  THRCS   =  1.00D-10
 THRNRM  =  1.00D-08  THREQ   =  0.00D+00  THRDE   =  1.00D+00  THRREF  =  1.00D-05  SPARFAC =  1.00D+00  THRDLP  =  1.00D-07
 THRDIA  =  1.00D-10  THRDLS  =  1.00D-07  THRGPS  =  0.00D+00  THRKEX  =  0.00D+00  THRDIS  =  2.00D-01  THRVAR  =  1.00D-10
 THRLOC  =  1.00D-06  THRGAP  =  1.00D-06  THRLOCT = -1.00D+00  THRGAPT = -1.00D+00  THRORB  =  1.00D-06  THRMLTP =  0.00D+00
 THRCPQCI=  1.00D-10  KEXTA   =  0.00D+00  THRCOARS=  0.00D+00  SYMTOL  =  1.00D-06  GRADTOL =  1.00D-06  THROVL  =  1.00D-08
 THRORTH =  1.00D-08  GRID    =  1.00D-06  GRIDMAX =  1.00D-03  DTMAX   =  0.00D+00

 SETTING GEOMTYP        =    XYZ
 ZUNIT=BOHR
 

 Variable memory set to 1000000000 words,  buffer space   230000 words

 SETTING BASIS          =    VDZ


 Recomputing integrals since basis changed


 Using spherical harmonics

 Library entry C      S cc-pVDZ              selected for orbital group  1
 Library entry C      P cc-pVDZ              selected for orbital group  1
 Library entry C      D cc-pVDZ              selected for orbital group  1
 Library entry H      S cc-pVDZ              selected for orbital group  2
 Library entry H      P cc-pVDZ              selected for orbital group  2

1PROGRAM * SEWARD (Integral evaluation for generally contracted gaussian basis sets)     Author: Roland Lindh, 1990

 Geometry written to block  1 of record 700


 Point group  C1  



 ATOMIC COORDINATES

 NR  ATOM    CHARGE       X              Y              Z

   1  C       6.00    0.002345047   -3.420065429    0.000039335
   2  H       1.00   -0.965228880   -2.729852536   -1.682358521
   3  H       1.00   -0.961804058   -2.734623150    1.686349234
   4  H       1.00    1.947896218   -2.743458278    0.009304255
   5  H       1.00   -0.005588018   -5.479859957   -0.002869590
   6  C       6.00   -0.003516233    3.423430031    0.001284434
   7  H       1.00    0.005066353    5.483223315   -0.000405320
   8  H       1.00    0.962854770    2.742048676   -1.685399358
   9  H       1.00    0.965310579    2.717346800    1.676359583
  10  H       1.00   -1.947335777    2.741810527   -0.002304052

 Bond lengths in Bohr (Angstrom)

 1-2  2.059867881  1-3  2.059867881  1-4  2.059867092  1-5  2.059811859  6-7  2.059811858
     ( 1.090035136)     ( 1.090035136)     ( 1.090034718)     ( 1.090005491)     ( 1.090005490)

  6- 8  2.059867880   6- 9  2.059867878   6-10  2.059867094
       ( 1.090035136)       ( 1.090035134)       ( 1.090034720)

 Bond angles

  2-1-3  109.71066532   2-1-4  109.71054932   2-1-5  109.39695194   3-1-4  109.21435353

  3-1-5  109.39695200   4-1-5  109.39704411   7-6-8  109.15709597   7-6-9  109.96738076

  7- 6-10  109.56233046   8- 6- 9  109.37975581   8- 6-10  109.37963982   9- 6-10  109.37963976

 NUCLEAR CHARGE:                   20
 NUMBER OF PRIMITIVE AOS:         110
 NUMBER OF SYMMETRY AOS:          108
 NUMBER OF CONTRACTIONS:           68   (  68A   )
 NUMBER OF CORE ORBITALS:           2   (   2A   )
 NUMBER OF VALENCE ORBITALS:       16   (  16A   )


 NUCLEAR REPULSION ENERGY   41.33777872


 Eigenvalues of metric

         1 0.113E-01 0.127E-01 0.348E-01 0.349E-01 0.356E-01 0.375E-01 0.383E-01 0.384E-01


 Contracted 2-electron integrals neglected if value below      1.0D-16
 AO integral compression algorithm  1   Integral accuracy      1.0D-16

     21.758 MB (compressed) written to integral file ( 87.5%)

     Node minimum: 21.758 MB, node maximum: 21.758 MB


 NUMBER OF SORTED TWO-ELECTRON INTEGRALS:    2753031.     BUFFER LENGTH:  32768
 NUMBER OF SEGMENTS:   1  SEGMENT LENGTH:    2753031      RECORD LENGTH: 524288

 Memory used in sort:       3.31 MW

 SORT1 READ     3104305. AND WROTE     2687409. INTEGRALS IN      8 RECORDS. CPU TIME:     0.03 SEC, REAL TIME:     0.04 SEC
 SORT2 READ     2687409. AND WROTE     2753031. INTEGRALS IN     83 RECORDS. CPU TIME:     0.04 SEC, REAL TIME:     0.05 SEC

 FILE SIZES:   FILE 1:    21.6 MBYTE,  FILE 4:    33.6 MBYTE,   TOTAL:     55.2 MBYTE

 OPERATOR DM      FOR CENTER  0  COORDINATES:    0.000000    0.000000    0.000000


 **********************************************************************************************************************************
 DATASETS  * FILE   NREC   LENGTH (MB)   RECORD NAMES
              1      19       21.65       500      610      700      900      950      970     1000      129      960     1100   
                                          VAR    BASINP    GEOM    SYMINP    ZMAT    AOBASIS   BASIS     P2S    ABASIS      S 
                                         1400     1410     1200     1210     1080     1600     1650     1300     1700   
                                           T        V       H0       H01     AOSYM     SMH    MOLCAS    ERIS     OPER   

 PROGRAMS   *        TOTAL       INT
 CPU TIMES  *         0.41      0.37
 REAL TIME  *         0.62 SEC
 DISK USED  *        77.71 MB      
 GA USED    *         0.00 MB       (max)       0.00 MB       (current)
 **********************************************************************************************************************************

1PROGRAM * RHF-SCF (CLOSED SHELL)       Authors: W. Meyer, H.-J. Werner


 NUMBER OF ELECTRONS:      10+   10-    SPACE SYMMETRY=1    SPIN SYMMETRY: Singlet 
 CONVERGENCE THRESHOLDS:    1.00E-10 (Density)    1.00E-13 (Energy)
 MAX. NUMBER OF ITERATIONS:      200
 INTERPOLATION TYPE:            DIIS
 INTERPOLATION STEPS:              2 (START)      1 (STEP)
 LEVEL SHIFTS:                  0.00 (CLOSED)  0.00 (OPEN) 



 Orbital guess generated from atomic densities. Full valence occupancy:   18

 Molecular orbital dump at record        2100.2

 ITERATION    DDIFF          GRAD             ENERGY        2-EL.EN.            DIPOLE MOMENTS         DIIS
    1      0.000D+00      0.000D+00       -80.35961962    134.822598    0.00097   -0.00286   -0.00111    0
    2      0.000D+00      0.637D-02       -80.39228999    132.541994    0.00028   -0.00126   -0.00058    1
    3      0.132D-01      0.234D-02       -80.39615227    133.343638    0.00038   -0.00140   -0.00066    2
    4      0.460D-02      0.630D-03       -80.39668097    133.206769    0.00032   -0.00120   -0.00059    3
    5      0.165D-02      0.664D-04       -80.39668549    133.212790    0.00031   -0.00118   -0.00059    4
    6      0.233D-03      0.393D-05       -80.39668551    133.212652    0.00031   -0.00118   -0.00059    5
    7      0.205D-04      0.236D-06       -80.39668551    133.212649    0.00031   -0.00118   -0.00059    5
    8      0.753D-06      0.417D-07       -80.39668551    133.212651    0.00031   -0.00118   -0.00059    4
    9      0.110D-06      0.114D-07       -80.39668551    133.212652    0.00031   -0.00118   -0.00059    4
   10      0.380D-07      0.240D-08       -80.39668551    133.212652    0.00031   -0.00118   -0.00059    5
   11      0.805D-08      0.298D-09       -80.39668551    133.212652    0.00031   -0.00118   -0.00059    5
   12      0.717D-09      0.930D-10       -80.39668551    133.212652    0.00031   -0.00118   -0.00059    6
   13      0.224D-09      0.284D-10       -80.39668551    133.212652    0.00031   -0.00118   -0.00059    6
   14      0.834D-10      0.435D-11       -80.39668551    133.212652    0.00031   -0.00118   -0.00059    6
   15      0.202D-10      0.584D-12       -80.39668551    133.212652    0.00031   -0.00118   -0.00059    6
   16      0.139D-11      0.184D-12       -80.39668551    133.212652    0.00031   -0.00118   -0.00059    6
   17      0.448D-12      0.473D-13       -80.39668551    133.212652    0.00031   -0.00118   -0.00059    6
   18      0.141D-12      0.129D-13       -80.39668551    133.212652    0.00031   -0.00118   -0.00059    0

 Final occupancy:  10

 !RHF STATE 1.1 Energy                -80.396685508369
 Nuclear energy                        41.33777872
 One-electron energy                 -188.34079024
 Two-electron energy                   66.60632601
 Virial quotient                       -1.00229927
 !RHF STATE 1.1 Dipole moment           0.00031020    -0.00117601    -0.00058577
 Dipole moment /Debye                   0.00078841    -0.00298891    -0.00148878

 Orbital energies:

         1.1          2.1          3.1          4.1          5.1          6.1          7.1          8.1          9.1         10.1
    -11.215311   -11.215260    -0.944231    -0.938385    -0.549467    -0.545800    -0.545121    -0.538498    -0.537906    -0.534090

        11.1         12.1
      0.172481     0.229176


 **********************************************************************************************************************************
 DATASETS  * FILE   NREC   LENGTH (MB)   RECORD NAMES
              1      19       21.65       500      610      700      900      950      970     1000      129      960     1100   
                                          VAR    BASINP    GEOM    SYMINP    ZMAT    AOBASIS   BASIS     P2S    ABASIS      S 
                                         1400     1410     1200     1210     1080     1600     1650     1300     1700   
                                           T        V       H0       H01     AOSYM     SMH    MOLCAS    ERIS     OPER   

              2       3        0.51       700     1000     2100   
                                         GEOM     BASIS     RHF  

 PROGRAMS   *        TOTAL       RHF       INT
 CPU TIMES  *         0.74      0.33      0.37
 REAL TIME  *         0.99 SEC
 DISK USED  *        77.71 MB      
 GA USED    *         0.00 MB       (max)       0.00 MB       (current)
 **********************************************************************************************************************************


1PROGRAM * CCSD (Closed-shell coupled cluster)     Authors: C. Hampel, H.-J. Werner, 1991, M. Deegan, P.J. Knowles, 1992


 Convergence thresholds:  THRVAR = 1.00D-08  THRDEN = 1.00D-12

 CCSD(T)     terms to be evaluated (factor= 1.000)


 Number of core orbitals:           2 (   2 )
 Number of closed-shell orbitals:   8 (   8 )
 Number of external orbitals:      58 (  58 )

 Molecular orbitals read from record     2100.2  Type=RHF/CANONICAL (state 1.1)

 Number of N-1 electron functions:               8
 Number of N-2 electron functions:              36
 Number of singly external CSFs:               464
 Number of doubly external CSFs:            107880
 Total number of CSFs:                      108345

 Length of J-op  integral file:               0.00 MB
 Length of K-op  integral file:               0.35 MB
 Length of 3-ext integral record:             0.00 MB

 Memory could be reduced to 2.66 Mwords without degradation in triples

 Integral transformation finished. Total CPU:   0.06 sec, npass=  1  Memory used:   1.86 MW

 Reference energy:                    -80.39668551

 MP2 singlet pair energy:              -0.23207713
 MP2 triplet pair energy:              -0.09154723
 MP2 correlation energy:               -0.32362436
 MP2 total energy:                    -80.72030987

 SCS-MP2 correlation energy:           -0.33545527   (PS=  1.200000  PT=  0.333333)
 SCS-MP2 total energy:                -80.73214078

 ITER.      SQ.NORM     CORR.ENERGY   TOTAL ENERGY   ENERGY CHANGE        DEN1      VAR(S)    VAR(P)  DIIS     TIME
   1      1.13420949    -0.36752609   -80.76421160    -0.04390173    -0.03297781  0.50D-03  0.24D-02  1  1     0.18
   2      1.14681872    -0.37032351   -80.76700902    -0.00279742    -0.01276586  0.15D-04  0.96D-04  2  2     0.31
   3      1.14860993    -0.37049457   -80.76718008    -0.00017106    -0.00095455  0.17D-05  0.56D-05  3  3     0.43
   4      1.14897789    -0.37051487   -80.76720038    -0.00002029    -0.00016597  0.25D-07  0.35D-06  4  4     0.56
   5      1.14902382    -0.37051239   -80.76719789     0.00000248    -0.00002392  0.18D-08  0.18D-07  5  5     0.69
   6      1.14902509    -0.37051233   -80.76719784     0.00000006    -0.00000009  0.19D-09  0.12D-08  6  6     0.81
   7      1.14902518    -0.37051259   -80.76719810    -0.00000026     0.00000013  0.13D-10  0.71D-10  6  1     0.94
   8      1.14902535    -0.37051258   -80.76719809     0.00000001    -0.00000013  0.15D-11  0.41D-11  6  2     1.07
   9      1.14902538    -0.37051257   -80.76719808     0.00000001    -0.00000003  0.15D-12  0.26D-12  6  3     1.19
  10      1.14902537    -0.37051257   -80.76719808     0.00000000     0.00000001  0.11D-13  0.23D-13  6  4     1.32
  11      1.14902536    -0.37051257   -80.76719808    -0.00000000     0.00000001  0.80D-15  0.19D-14  6  5     1.44
  12      1.14902536    -0.37051257   -80.76719808    -0.00000000     0.00000000  0.43D-16  0.23D-15  6  6     1.57
  13      1.14902536    -0.37051257   -80.76719808    -0.00000000     0.00000000  0.33D-17  0.28D-16  6  1     1.69
  14      1.14902536    -0.37051257   -80.76719808     0.00000000     0.00000000  0.59D-18  0.37D-17  6  2     1.82
  15      1.14902536    -0.37051257   -80.76719808     0.00000000     0.00000000  0.71D-19  0.37D-18  6  3     1.94
  16      1.14902536    -0.37051257   -80.76719808    -0.00000000     0.00000000  0.15D-20  0.20D-19  6  5     2.07
  17      1.14902536    -0.37051257   -80.76719808    -0.00000000     0.00000000  0.18D-21  0.56D-21  6  4     2.19
  18      1.14902536    -0.37051257   -80.76719808     0.00000000    -0.00000000  0.45D-22  0.51D-22  6  6     2.32

 Norm of t1 vector:      0.03062515      S-energy:     0.00000000      T1 diagnostic:  0.00541381
                                                                       D1 diagnostic:  0.00879492


 Total CPU time for triples:      0.84 sec


 RESULTS
 =======

  Reference energy                    -80.396685508369
  CCSD singlet pair energy             -0.281841098501
  CCSD triplet pair energy             -0.088671470865
  CCSD correlation energy              -0.370512569367

  Triples (T) contribution             -0.007535336990
  Total correlation energy             -0.378047906357

  CCSD total energy                   -80.767198077736
  CCSD[T] energy                      -80.774909606679
  CCSD-T energy                       -80.774638978001
 !CCSD(T) total energy                -80.774733414726

 Timing summary (sec):

 STEP                 CPU(USER)    SYS     CPU(TOT)    WALL
 Transformation          0.07      0.01      0.08      0.08
 CCSD iterations         2.25      0.10      2.35      2.38
 Triples                 0.84      0.02      0.86      0.87

 Program statistics:

 Available memory in ccsd:               999999644
 Min. memory needed in ccsd:                356281
 Max. memory used in ccsd:                  442401
 Max. memory used in cckext:                403930 (18 integral passes)



 **********************************************************************************************************************************
 DATASETS  * FILE   NREC   LENGTH (MB)   RECORD NAMES
              1      20       30.11       500      610      700      900      950      970     1000      129      960     1100   
                                          VAR    BASINP    GEOM    SYMINP    ZMAT    AOBASIS   BASIS     P2S    ABASIS      S 
                                         1400     1410     1200     1210     1080     1600     1650     1300     1700     1380   
                                           T        V       H0       H01     AOSYM     SMH    MOLCAS    ERIS     OPER     JKOP   

              2       3        0.51       700     1000     2100   
                                         GEOM     BASIS     RHF  

 PROGRAMS   *        TOTAL   CCSD(T)       RHF       INT
 CPU TIMES  *         3.91      3.17      0.33      0.37
 REAL TIME  *         4.34 SEC
 DISK USED  *        77.71 MB      
 GA USED    *         0.00 MB       (max)       0.00 MB       (current)
 **********************************************************************************************************************************

        CCSD(T)         RHF-SCF 
    -80.77473341    -80.39668551
 **********************************************************************************************************************************
 Variable memory released
