
 Primary working directories    : /tmp/985636.693.gen6.q
 Secondary working directories  : /tmp/985636.693.gen6.q
 Wavefunction directory         : /home/vulcan/jj04645/wfu/
 Main file repository           : /tmp/985636.693.gen6.q/

 ARCHNAME  : Linux/x86_64
 FC        : /opt/intel/compilers_and_libraries_2016.1.150/linux/bin/intel64/ifort
 FCVERSION : 16.0.1
 BLASLIB   : -mkl
 id        : ccgc

 Nodes     nprocs
 n075         1
 ga_uses_ma=false, calling ma_init with nominal heap.
 GA-space will be limited to   8.0 MW (determined by -G option)

 Using customized tuning parameters: mindgm=10; mindgv=16; mindgc=4; mindgr=1; noblas=0; mincuda=1000; minvec=7
 default implementation of scratch files=df  

 ***,Optimization of tetrahydrothiopyran
 memory,1000,m
 gthresh,energy=1.0d-12,orbital=1.0d-10,oneint=1.0d-16,twoint=1.0d-16,optgrad=1.0d-6,compress=1.0d-13
 geomtyp=xyz
 
 bohr
 geometry = {
  S    0.3530920753    2.6998433546    0.0003791818
  C   -0.3290067433   -3.3653055371    0.0005640834
  C   -0.6626822257    0.6690124831   -2.5805970545
  C   -0.6614502662    0.6690312811    2.5818547212
  C    0.4722760825   -1.9815301134   -2.4135349321
  C    0.4734281872   -1.9815125390    2.4142703155
  H   -2.7239294825    0.5709304201   -2.5839215686
  H   -2.7326843779    0.5704739357    2.5861845894
  H   -0.0725646763    1.6265096219   -4.3153148237
  H   -0.0733632357    1.6219096910    4.3078943851
  H    2.5293019612   -1.8365768478   -2.4807628490
  H    2.5304859176   -1.8365587958    2.4805154188
  H   -0.1293931051   -3.0771306372   -4.0690580687
  H   -0.1274508232   -3.0771009792    4.0700884096
  H    0.4666509130   -5.2719964346    0.0003811487
  H   -2.3914452176   -3.5798203200    0.0010570432
 }
 
 basis=VDZ
 {rhf;maxit,200}
 {ccsd(t);maxit,200}

 Variables initialized (661), CPU time= 0.00 sec
 Commands  initialized (458), CPU time= 0.00 sec, 486 directives.
 Default parameters read. Elapsed time= 0.05 sec

 Checking input...
 Passed
1


                                         ***  PROGRAM SYSTEM MOLPRO  ***
                         Copyright, University College Cardiff Consultants Limited, 2008

                                    Version 2010.1 linked May 16 2016 07:17:05


 **********************************************************************************************************************************
 LABEL *   Optimization of tetrahydrothiopyran                                           
 Linux-4.4.3/n075(x86_64) 64 bit mpp version                                             DATE: 26-Jan-24          TIME: 14:15:00  
 **********************************************************************************************************************************

 SHA1:             9e8077add272b0f3cad6f7df79ec5211205f459d
 **********************************************************************************************************************************

 THRESHOLDS:

 ZERO    =  1.00D-12  ONEINT  =  1.00D-16  TWOINT  =  1.00D-16  PREFAC  =  1.00D-14  LOCALI  =  1.00D-09  EORDER  =  1.00D-04
 ENERGY  =  1.00D-12  ETEST   =  0.00D+00  EDENS   =  0.00D+00  THRDEDEF=  1.00D-06  GRADIENT=  1.00D-02  STEP    =  1.00D-03
 ORBITAL =  1.00D-10  CIVEC   =  1.00D-05  COEFF   =  1.00D-04  PRINTCI =  5.00D-02  PUNCHCI =  9.90D+01  OPTGRAD =  1.00D-06
 OPTENERG=  1.00D-06  OPTSTEP =  3.00D-04  THRGRAD =  1.00D-10  COMPRESS=  1.00D-13  VARMIN  =  1.00D-07  VARMAX  =  1.00D-03
 THRDOUB =  0.00D+00  THRDIV  =  1.00D-05  THRRED  =  1.00D-07  THRPSP  =  1.00D+00  THRDC   =  1.00D-10  THRCS   =  1.00D-10
 THRNRM  =  1.00D-08  THREQ   =  0.00D+00  THRDE   =  1.00D+00  THRREF  =  1.00D-05  SPARFAC =  1.00D+00  THRDLP  =  1.00D-07
 THRDIA  =  1.00D-10  THRDLS  =  1.00D-07  THRGPS  =  0.00D+00  THRKEX  =  0.00D+00  THRDIS  =  2.00D-01  THRVAR  =  1.00D-10
 THRLOC  =  1.00D-06  THRGAP  =  1.00D-06  THRLOCT = -1.00D+00  THRGAPT = -1.00D+00  THRORB  =  1.00D-06  THRMLTP =  0.00D+00
 THRCPQCI=  1.00D-10  KEXTA   =  0.00D+00  THRCOARS=  0.00D+00  SYMTOL  =  1.00D-06  GRADTOL =  1.00D-06  THROVL  =  1.00D-08
 THRORTH =  1.00D-08  GRID    =  1.00D-06  GRIDMAX =  1.00D-03  DTMAX   =  0.00D+00

 SETTING GEOMTYP        =    XYZ
 ZUNIT=BOHR
 

 Variable memory set to 1000000000 words,  buffer space   230000 words

 SETTING BASIS          =    VDZ


 Recomputing integrals since basis changed


 Using spherical harmonics

 Library entry S      S cc-pVDZ              selected for orbital group  1
 Library entry S      P cc-pVDZ              selected for orbital group  1
 Library entry S      D cc-pVDZ              selected for orbital group  1
 Library entry C      S cc-pVDZ              selected for orbital group  2
 Library entry C      P cc-pVDZ              selected for orbital group  2
 Library entry C      D cc-pVDZ              selected for orbital group  2
 Library entry H      S cc-pVDZ              selected for orbital group  3
 Library entry H      P cc-pVDZ              selected for orbital group  3

1PROGRAM * SEWARD (Integral evaluation for generally contracted gaussian basis sets)     Author: Roland Lindh, 1990

 Geometry written to block  1 of record 700


 Point group  C1  



 ATOMIC COORDINATES

 NR  ATOM    CHARGE       X              Y              Z

   1  S      16.00    0.353092075    2.699843355    0.000379182
   2  C       6.00   -0.329006743   -3.365305537    0.000564083
   3  C       6.00   -0.662682226    0.669012483   -2.580597055
   4  C       6.00   -0.661450266    0.669031281    2.581854721
   5  C       6.00    0.472276083   -1.981530113   -2.413534932
   6  C       6.00    0.473428187   -1.981512539    2.414270316
   7  H       1.00   -2.723929482    0.570930420   -2.583921569
   8  H       1.00   -2.732684378    0.570473936    2.586184589
   9  H       1.00   -0.072564676    1.626509622   -4.315314824
  10  H       1.00   -0.073363236    1.621909691    4.307894385
  11  H       1.00    2.529301961   -1.836576848   -2.480762849
  12  H       1.00    2.530485918   -1.836558796    2.480515419
  13  H       1.00   -0.129393105   -3.077130637   -4.069058069
  14  H       1.00   -0.127450823   -3.077100979    4.070088410
  15  H       1.00    0.466650913   -5.271996435    0.000381149
  16  H       1.00   -2.391445218   -3.579820320    0.001057043

 Bond lengths in Bohr (Angstrom)

  1- 3  3.437660511   1- 4  3.437660513   2- 5  2.895645463   2- 6  2.895645464   2-15  2.066044849
       ( 1.819131595)       ( 1.819131596)       ( 1.532309584)       ( 1.532309585)       ( 1.093303847)

  2-16  2.073564394   3- 5  2.888150995   3- 7  2.063582176   3- 9  2.067434456   4- 6  2.888150997
       ( 1.097283019)       ( 1.528343683)       ( 1.092000656)       ( 1.094039195)       ( 1.528343684)

  4- 8  2.073582177   4-10  2.057434456   5-11  2.063222360   5-13  2.074392242   6-12  2.063222360
       ( 1.097292429)       ( 1.088747423)       ( 1.091810250)       ( 1.097721097)       ( 1.091810250)

  6-14  2.074392243
       ( 1.097721097)

 Bond angles

  1-3-5  112.49558437   1-3-7  108.93154245   1-3-9  105.78484524   1-4-6  112.49558573

  1- 4- 8  108.93154203   1- 4-10  105.78484500   2- 5- 3  112.21281620   2- 5-11  109.67156733

  2- 5-13  109.43267524   2- 6- 4  112.21281456   2- 6-12  109.67156780   2- 6-14  109.43267549

  3- 1- 4   97.33107837   3- 5-11  108.99161303   3- 5-13  108.93892955   4- 6-12  108.99161336

  4- 6-14  108.93892985   5- 2- 6  112.94731859   5- 2-15  109.53488165   5- 2-16  108.95777529

  5- 3- 7  110.42612623   5- 3- 9  111.18611374   6- 2-15  109.53488165   6- 2-16  108.95777530

  6- 4- 8  110.42612598   6- 4-10  111.18611352   7- 3- 9  107.80465632   8- 4-10  107.80465600

 11- 5-13  107.47420342  12- 6-14  107.47420380  15- 2-16  106.71266582

 NUCLEAR CHARGE:                   56
 NUMBER OF PRIMITIVE AOS:         247
 NUMBER OF SYMMETRY AOS:          241
 NUMBER OF CONTRACTIONS:          138   ( 138A   )
 NUMBER OF CORE ORBITALS:          10   (  10A   )
 NUMBER OF VALENCE ORBITALS:       34   (  34A   )


 NUCLEAR REPULSION ENERGY  312.12493687


 Eigenvalues of metric

         1 0.286E-02 0.305E-02 0.426E-02 0.634E-02 0.704E-02 0.151E-01 0.157E-01 0.196E-01


 Contracted 2-electron integrals neglected if value below      1.0D-16
 AO integral compression algorithm  1   Integral accuracy      1.0D-16

     373.817 MB (compressed) written to integral file ( 94.0%)

     Node minimum: 373.817 MB, node maximum: 373.817 MB


 NUMBER OF SORTED TWO-ELECTRON INTEGRALS:   45998436.     BUFFER LENGTH:  32768
 NUMBER OF SEGMENTS:   3  SEGMENT LENGTH:   15998004      RECORD LENGTH: 524288

 Memory used in sort:      16.56 MW

 SORT1 READ    49669836. AND WROTE    45790803. INTEGRALS IN    132 RECORDS. CPU TIME:     0.44 SEC, REAL TIME:     0.70 SEC
 SORT2 READ    45790803. AND WROTE    45998436. INTEGRALS IN   1426 RECORDS. CPU TIME:     0.34 SEC, REAL TIME:     0.53 SEC

 FILE SIZES:   FILE 1:   349.2 MBYTE,  FILE 4:   553.7 MBYTE,   TOTAL:    902.9 MBYTE

 OPERATOR DM      FOR CENTER  0  COORDINATES:    0.000000    0.000000    0.000000


 **********************************************************************************************************************************
 DATASETS  * FILE   NREC   LENGTH (MB)   RECORD NAMES
              1      19      349.47       500      610      700      900      950      970     1000      129      960     1100   
                                          VAR    BASINP    GEOM    SYMINP    ZMAT    AOBASIS   BASIS     P2S    ABASIS      S 
                                         1400     1410     1200     1210     1080     1600     1650     1300     1700   
                                           T        V       H0       H01     AOSYM     SMH    MOLCAS    ERIS     OPER   

 PROGRAMS   *        TOTAL       INT
 CPU TIMES  *         4.33      4.29
 REAL TIME  *         5.14 SEC
 DISK USED  *         1.28 GB      
 GA USED    *         0.01 MB       (max)       0.00 MB       (current)
 **********************************************************************************************************************************

1PROGRAM * RHF-SCF (CLOSED SHELL)       Authors: W. Meyer, H.-J. Werner


 NUMBER OF ELECTRONS:      28+   28-    SPACE SYMMETRY=1    SPIN SYMMETRY: Singlet 
 CONVERGENCE THRESHOLDS:    1.00E-10 (Density)    1.00E-13 (Energy)
 MAX. NUMBER OF ITERATIONS:      200
 INTERPOLATION TYPE:            DIIS
 INTERPOLATION STEPS:              2 (START)      1 (STEP)
 LEVEL SHIFTS:                  0.00 (CLOSED)  0.00 (OPEN) 



 Orbital guess generated from atomic densities. Full valence occupancy:   44

 Molecular orbital dump at record        2100.2

 ITERATION    DDIFF          GRAD             ENERGY        2-EL.EN.            DIPOLE MOMENTS         DIIS
    1      0.000D+00      0.000D+00      -592.64384346   1056.819156   -0.41028   -0.80599   -0.00199    0
    2      0.000D+00      0.396D-02      -592.70488338   1054.228057   -0.20582   -0.73827    0.00053    1
    3      0.778D-02      0.132D-02      -592.71082352   1055.666889   -0.27908   -0.67597    0.00048    2
    4      0.269D-02      0.540D-03      -592.71183450   1055.047029   -0.25127   -0.70876    0.00074    3
    5      0.931D-03      0.774D-04      -592.71186024   1055.110138   -0.24729   -0.70027    0.00075    4
    6      0.181D-03      0.267D-04      -592.71186276   1055.079246   -0.24902   -0.70055    0.00076    5
    7      0.504D-04      0.619D-05      -592.71186297   1055.082385   -0.24835   -0.70043    0.00076    6
    8      0.164D-04      0.173D-05      -592.71186299   1055.081528   -0.24834   -0.70030    0.00076    7
    9      0.537D-05      0.452D-06      -592.71186299   1055.081411   -0.24832   -0.70025    0.00076    7
   10      0.126D-05      0.162D-06      -592.71186299   1055.081449   -0.24831   -0.70025    0.00076    7
   11      0.479D-06      0.343D-07      -592.71186299   1055.081435   -0.24831   -0.70025    0.00076    7
   12      0.114D-06      0.688D-08      -592.71186299   1055.081440   -0.24831   -0.70025    0.00076    7
   13      0.183D-07      0.288D-08      -592.71186299   1055.081437   -0.24831   -0.70025    0.00076    7
   14      0.634D-08      0.850D-09      -592.71186299   1055.081438   -0.24831   -0.70025    0.00076    7
   15      0.227D-08      0.277D-09      -592.71186299   1055.081438   -0.24831   -0.70025    0.00076    7
   16      0.668D-09      0.887D-10      -592.71186299   1055.081438   -0.24831   -0.70025    0.00076    8
   17      0.215D-09      0.223D-10      -592.71186299   1055.081438   -0.24831   -0.70025    0.00076    7
   18      0.606D-10      0.847D-11      -592.71186299   1055.081438   -0.24831   -0.70025    0.00076    7
   19      0.277D-10      0.324D-11      -592.71186299   1055.081438   -0.24831   -0.70025    0.00076    8
   20      0.106D-10      0.113D-11      -592.71186299   1055.081438   -0.24831   -0.70025    0.00076    8
   21      0.417D-11      0.359D-12      -592.71186299   1055.081438   -0.24831   -0.70025    0.00076    8
   22      0.123D-11      0.112D-12      -592.71186299   1055.081438   -0.24831   -0.70025    0.00076    8
   23      0.425D-12      0.458D-13      -592.71186299   1055.081438   -0.24831   -0.70025    0.00076    0

 Final occupancy:  28

 !RHF STATE 1.1 Energy               -592.711862990773
 Nuclear energy                       312.12493687
 One-electron energy                -1432.37751886
 Two-electron energy                  527.54071900
 Virial quotient                       -1.00019563
 !RHF STATE 1.1 Dipole moment          -0.24831157    -0.70025064     0.00075992
 Dipole moment /Debye                  -0.63110373    -1.77974303     0.00193140

 Orbital energies:

         1.1          2.1          3.1          4.1          5.1          6.1          7.1          8.1          9.1         10.1
    -91.929815   -11.255001   -11.254981   -11.231070   -11.230985   -11.229119    -8.933704    -6.615599    -6.614166    -6.611965

        11.1         12.1         13.1         14.1         15.1         16.1         17.1         18.1         19.1         20.1
     -1.119596    -1.019953    -1.006510    -0.842386    -0.835832    -0.755939    -0.646613    -0.614688    -0.609263    -0.578504

        21.1         22.1         23.1         24.1         25.1         26.1         27.1         28.1         29.1         30.1
     -0.546774    -0.523639    -0.498207    -0.495570    -0.473273    -0.434488    -0.411672    -0.328728     0.176794     0.190343


 **********************************************************************************************************************************
 DATASETS  * FILE   NREC   LENGTH (MB)   RECORD NAMES
              1      19      349.47       500      610      700      900      950      970     1000      129      960     1100   
                                          VAR    BASINP    GEOM    SYMINP    ZMAT    AOBASIS   BASIS     P2S    ABASIS      S 
                                         1400     1410     1200     1210     1080     1600     1650     1300     1700   
                                           T        V       H0       H01     AOSYM     SMH    MOLCAS    ERIS     OPER   

              2       3        0.92       700     1000     2100   
                                         GEOM     BASIS     RHF  

 PROGRAMS   *        TOTAL       RHF       INT
 CPU TIMES  *        11.38      7.05      4.29
 REAL TIME  *        13.04 SEC
 DISK USED  *         1.28 GB      
 GA USED    *         0.01 MB       (max)       0.00 MB       (current)
 **********************************************************************************************************************************


1PROGRAM * CCSD (Closed-shell coupled cluster)     Authors: C. Hampel, H.-J. Werner, 1991, M. Deegan, P.J. Knowles, 1992


 Convergence thresholds:  THRVAR = 1.00D-08  THRDEN = 1.00D-12

 CCSD(T)     terms to be evaluated (factor= 1.000)


 Number of core orbitals:          10 (  10 )
 Number of closed-shell orbitals:  18 (  18 )
 Number of external orbitals:     110 ( 110 )

 Molecular orbitals read from record     2100.2  Type=RHF/CANONICAL (state 1.1)

 Number of N-1 electron functions:              18
 Number of N-2 electron functions:             171
 Number of singly external CSFs:              1980
 Number of doubly external CSFs:           1961190
 Total number of CSFs:                     1963171

 Length of J-op  integral file:               0.00 MB
 Length of K-op  integral file:               1.35 MB
 Length of 3-ext integral record:             0.00 MB

 Memory could be reduced to 32.58 Mwords without degradation in triples

 Integral transformation finished. Total CPU:   2.05 sec, npass=  1  Memory used:  30.89 MW

 Reference energy:                   -592.71186299

 MP2 singlet pair energy:              -0.53945899
 MP2 triplet pair energy:              -0.30435945
 MP2 correlation energy:               -0.84381844
 MP2 total energy:                   -593.55568143

 SCS-MP2 correlation energy:           -0.83673000   (PS=  1.200000  PT=  0.333333)
 SCS-MP2 total energy:               -593.54859299

 ITER.      SQ.NORM     CORR.ENERGY   TOTAL ENERGY   ENERGY CHANGE        DEN1      VAR(S)    VAR(P)  DIIS     TIME
   1      1.33970495    -0.91079643  -593.62265942    -0.06697799    -0.04301848  0.26D-02  0.55D-02  1  1     9.18
   2      1.36670257    -0.91614437  -593.62800737    -0.00534794    -0.02577797  0.69D-04  0.46D-03  2  2    16.39
   3      1.37203687    -0.91627231  -593.62813530    -0.00012793    -0.00303810  0.16D-04  0.28D-04  3  3    23.59
   4      1.37353039    -0.91633036  -593.62819335    -0.00005806    -0.00059407  0.76D-06  0.20D-05  4  4    30.81
   5      1.37377117    -0.91633697  -593.62819996    -0.00000661    -0.00007089  0.17D-06  0.16D-06  5  5    38.04
   6      1.37381687    -0.91633252  -593.62819551     0.00000445    -0.00001394  0.30D-07  0.14D-07  6  6    45.25
   7      1.37382446    -0.91633241  -593.62819540     0.00000011     0.00000064  0.53D-08  0.23D-08  6  2    52.48
   8      1.37383055    -0.91633210  -593.62819509     0.00000031    -0.00000125  0.73D-09  0.27D-09  6  1    59.71
   9      1.37383138    -0.91633203  -593.62819503     0.00000006     0.00000051  0.66D-10  0.44D-10  6  4    66.94
  10      1.37383226    -0.91633200  -593.62819499     0.00000003    -0.00000011  0.48D-11  0.35D-11  6  3    74.17
  11      1.37383227    -0.91633200  -593.62819499    -0.00000000     0.00000004  0.12D-11  0.54D-12  6  5    81.39
  12      1.37383224    -0.91633200  -593.62819500    -0.00000000     0.00000002  0.17D-12  0.77D-13  6  6    88.61
  13      1.37383219    -0.91633201  -593.62819500    -0.00000000     0.00000002  0.24D-13  0.11D-13  6  1    95.84
  14      1.37383218    -0.91633201  -593.62819500    -0.00000000     0.00000000  0.31D-14  0.12D-14  6  2   103.05
  15      1.37383218    -0.91633201  -593.62819500     0.00000000    -0.00000000  0.67D-15  0.31D-15  6  4   110.27
  16      1.37383218    -0.91633201  -593.62819500     0.00000000    -0.00000000  0.32D-16  0.23D-16  6  5   117.48
  17      1.37383218    -0.91633201  -593.62819500     0.00000000    -0.00000000  0.57D-17  0.24D-17  6  3   124.72
  18      1.37383218    -0.91633201  -593.62819500     0.00000000    -0.00000000  0.18D-17  0.49D-18  6  6   131.96
  19      1.37383218    -0.91633201  -593.62819500     0.00000000    -0.00000000  0.38D-18  0.12D-18  6  1   139.18
  20      1.37383218    -0.91633201  -593.62819500     0.00000000     0.00000000  0.46D-19  0.17D-19  6  2   146.41
  21      1.37383218    -0.91633201  -593.62819500    -0.00000000     0.00000000  0.83D-20  0.35D-20  6  4   153.63

 Norm of t1 vector:      0.07015355      S-energy:    -0.00000000      T1 diagnostic:  0.00826767
                                                                       D1 diagnostic:  0.02108547


 Total CPU time for triples:    108.02 sec


 RESULTS
 =======

  Reference energy                   -592.711862990773
  CCSD singlet pair energy             -0.634216190682
  CCSD triplet pair energy             -0.282115816381
  CCSD correlation energy              -0.916332007064

  Triples (T) contribution             -0.029867681895
  Total correlation energy             -0.946199688959

  CCSD total energy                  -593.628194997837
  CCSD[T] energy                     -593.658682137193
  CCSD-T energy                      -593.657751459315
 !CCSD(T) total energy               -593.658062679732

 Timing summary (sec):

 STEP                 CPU(USER)    SYS     CPU(TOT)    WALL
 Transformation          2.14      0.21      2.35      2.35
 CCSD iterations       151.50      2.68    154.18    154.28
 Triples               108.02      2.00    110.02    110.04

 Program statistics:

 Available memory in ccsd:               999998604
 Min. memory needed in ccsd:               5123362
 Max. memory used in ccsd:                 6867976
 Max. memory used in cckext:               6836871 (21 integral passes)



 **********************************************************************************************************************************
 DATASETS  * FILE   NREC   LENGTH (MB)   RECORD NAMES
              1      20      485.84       500      610      700      900      950      970     1000      129      960     1100   
                                          VAR    BASINP    GEOM    SYMINP    ZMAT    AOBASIS   BASIS     P2S    ABASIS      S 
                                         1400     1410     1200     1210     1080     1600     1650     1300     1700     1380   
                                           T        V       H0       H01     AOSYM     SMH    MOLCAS    ERIS     OPER     JKOP   

              2       3        0.92       700     1000     2100   
                                         GEOM     BASIS     RHF  

 PROGRAMS   *        TOTAL   CCSD(T)       RHF       INT
 CPU TIMES  *       273.05    261.67      7.05      4.29
 REAL TIME  *       279.76 SEC
 DISK USED  *         1.28 GB      
 GA USED    *         0.01 MB       (max)       0.00 MB       (current)
 **********************************************************************************************************************************

        CCSD(T)         RHF-SCF 
   -593.65806268   -592.71186299
 **********************************************************************************************************************************
 Variable memory released
