
 Primary working directories    : /tmp/1049502.1743.gen4.q
 Secondary working directories  : /tmp/1049502.1743.gen4.q
 Wavefunction directory         : /home/vulcan/jj04645/wfu/
 Main file repository           : /tmp/1049502.1743.gen4.q/

 ARCHNAME  : Linux/x86_64
 FC        : /opt/intel/compilers_and_libraries_2016.1.150/linux/bin/intel64/ifort
 FCVERSION : 16.0.1
 BLASLIB   : -mkl
 id        : ccgc

 Nodes     nprocs
 n065         1
 ga_uses_ma=false, calling ma_init with nominal heap.
 GA-space will be limited to   8.0 MW (determined by -G option)

 Using customized tuning parameters: mindgm=10; mindgv=16; mindgc=4; mindgr=1; noblas=0; mincuda=1000; minvec=7
 default implementation of scratch files=df  

 ***,Optimization of neopentane
 memory,1000,m
 gthresh,energy=1.0d-12,orbital=1.0d-10,oneint=1.0d-16,twoint=1.0d-16,optgrad=1.0d-6,compress=1.0d-13
 geomtyp=xyz
 
 bohr
 geometry = {
  C   -0.0006131782   -0.0006131782    0.0000000000
  C    2.3660053096   -0.0017897989   -1.6709543346
  C   -0.0017909706   -2.3648772527    1.6742839777
  C   -0.0017897989    2.3660053096    1.6709543346
  C   -2.3648772527   -0.0017909706   -1.6742839777
  H    2.4029657904    1.6728095236   -2.8823630643
  H   -1.6728974330   -2.4147311050    2.8900462342
  H    1.6728095236    2.4029657904    2.8823630643
  H   -2.4147311050   -1.6728974330   -2.8900462342
  H    4.0838218427   -0.0033298287   -0.5210569190
  H    0.0065683052   -4.0795970156    0.5198029956
  H   -0.0033298287    4.0838218427    0.5210569190
  H   -4.0795970156    0.0065683052   -0.5198029956
  H    2.4151019983   -1.6753748621   -2.8833332483
  H    1.6752844074   -2.4075557323    2.8820740272
  H   -1.6753748621    2.4151019983    2.8833332483
  H   -2.4075557323    1.6752844074   -2.8820740272
 }
 
 basis=VDZ
 {rhf;maxit,200}
 {ccsd(t);maxit,200}

 Variables initialized (661), CPU time= 0.01 sec
 Commands  initialized (458), CPU time= 0.00 sec, 486 directives.
 Default parameters read. Elapsed time= 0.05 sec

 Checking input...
 Passed
1


                                         ***  PROGRAM SYSTEM MOLPRO  ***
                         Copyright, University College Cardiff Consultants Limited, 2008

                                    Version 2010.1 linked May 16 2016 07:17:05


 **********************************************************************************************************************************
 LABEL *   Optimization of neopentane                                                    
 Linux-4.4.3/n065(x86_64) 64 bit mpp version                                             DATE: 31-Mar-24          TIME: 03:03:07  
 **********************************************************************************************************************************

 SHA1:             9e8077add272b0f3cad6f7df79ec5211205f459d
 **********************************************************************************************************************************

 THRESHOLDS:

 ZERO    =  1.00D-12  ONEINT  =  1.00D-16  TWOINT  =  1.00D-16  PREFAC  =  1.00D-14  LOCALI  =  1.00D-09  EORDER  =  1.00D-04
 ENERGY  =  1.00D-12  ETEST   =  0.00D+00  EDENS   =  0.00D+00  THRDEDEF=  1.00D-06  GRADIENT=  1.00D-02  STEP    =  1.00D-03
 ORBITAL =  1.00D-10  CIVEC   =  1.00D-05  COEFF   =  1.00D-04  PRINTCI =  5.00D-02  PUNCHCI =  9.90D+01  OPTGRAD =  1.00D-06
 OPTENERG=  1.00D-06  OPTSTEP =  3.00D-04  THRGRAD =  1.00D-10  COMPRESS=  1.00D-13  VARMIN  =  1.00D-07  VARMAX  =  1.00D-03
 THRDOUB =  0.00D+00  THRDIV  =  1.00D-05  THRRED  =  1.00D-07  THRPSP  =  1.00D+00  THRDC   =  1.00D-10  THRCS   =  1.00D-10
 THRNRM  =  1.00D-08  THREQ   =  0.00D+00  THRDE   =  1.00D+00  THRREF  =  1.00D-05  SPARFAC =  1.00D+00  THRDLP  =  1.00D-07
 THRDIA  =  1.00D-10  THRDLS  =  1.00D-07  THRGPS  =  0.00D+00  THRKEX  =  0.00D+00  THRDIS  =  2.00D-01  THRVAR  =  1.00D-10
 THRLOC  =  1.00D-06  THRGAP  =  1.00D-06  THRLOCT = -1.00D+00  THRGAPT = -1.00D+00  THRORB  =  1.00D-06  THRMLTP =  0.00D+00
 THRCPQCI=  1.00D-10  KEXTA   =  0.00D+00  THRCOARS=  0.00D+00  SYMTOL  =  1.00D-06  GRADTOL =  1.00D-06  THROVL  =  1.00D-08
 THRORTH =  1.00D-08  GRID    =  1.00D-06  GRIDMAX =  1.00D-03  DTMAX   =  0.00D+00

 SETTING GEOMTYP        =    XYZ
 ZUNIT=BOHR
 

 Variable memory set to 1000000000 words,  buffer space   230000 words

 SETTING BASIS          =    VDZ


 Recomputing integrals since basis changed


 Using spherical harmonics

 Library entry C      S cc-pVDZ              selected for orbital group  1
 Library entry C      P cc-pVDZ              selected for orbital group  1
 Library entry C      D cc-pVDZ              selected for orbital group  1
 Library entry H      S cc-pVDZ              selected for orbital group  2
 Library entry H      P cc-pVDZ              selected for orbital group  2

1PROGRAM * SEWARD (Integral evaluation for generally contracted gaussian basis sets)     Author: Roland Lindh, 1990

 Geometry written to block  1 of record 700


 Point group  C1  



 ATOMIC COORDINATES

 NR  ATOM    CHARGE       X              Y              Z

   1  C       6.00   -0.000613178   -0.000613178    0.000000000
   2  C       6.00    2.366005310   -0.001789799   -1.670954335
   3  C       6.00   -0.001790971   -2.364877253    1.674283978
   4  C       6.00   -0.001789799    2.366005310    1.670954335
   5  C       6.00   -2.364877253   -0.001790971   -1.674283978
   6  H       1.00    2.402965790    1.672809524   -2.882363064
   7  H       1.00   -1.672897433   -2.414731105    2.890046234
   8  H       1.00    1.672809524    2.402965790    2.882363064
   9  H       1.00   -2.414731105   -1.672897433   -2.890046234
  10  H       1.00    4.083821843   -0.003329829   -0.521056919
  11  H       1.00    0.006568305   -4.079597016    0.519802996
  12  H       1.00   -0.003329829    4.083821843    0.521056919
  13  H       1.00   -4.079597016    0.006568305   -0.519802996
  14  H       1.00    2.415101998   -1.675374862   -2.883333248
  15  H       1.00    1.675284407   -2.407555732    2.882074027
  16  H       1.00   -1.675374862    2.415101998    2.883333248
  17  H       1.00   -2.407555732    1.675284407   -2.882074027

 Bond lengths in Bohr (Angstrom)

 1-2  2.897062795  1-3  2.897062795  1-4  2.897062795  1-5  2.897062795  2-6  2.067162325
     ( 1.533059604)     ( 1.533059604)     ( 1.533059604)     ( 1.533059604)     ( 1.093895190)

  2-10  2.067162325   2-14  2.067162325   3- 7  2.067162325   3-11  2.067162326   3-15  2.067162325
       ( 1.093895190)       ( 1.093895190)       ( 1.093895190)       ( 1.093895190)       ( 1.093895190)

  4- 8  2.067162325   4-12  2.067162325   4-16  2.067162325   5- 9  2.067162325   5-13  2.067162326
       ( 1.093895190)       ( 1.093895190)       ( 1.093895190)       ( 1.093895190)       ( 1.093895190)

  5-17  2.067162325
       ( 1.093895190)

 Bond angles

  1- 2- 6  110.62694356   1- 2-10  110.97780762   1- 2-14  110.97780762   1- 3- 7  111.09440717

  1- 3-11  110.74354512   1- 3-15  110.74354513   1- 4- 8  110.62694356   1- 4-12  110.97780762

  1- 4-16  110.97780762   1- 5- 9  111.09440717   1- 5-13  110.74354512   1- 5-17  110.74354513

  2-1-3  109.47122063   2-1-4  109.47122063   2-1-5  109.47122063   3-1-4  109.47122063

  3- 1- 5  109.47122064   4- 1- 5  109.47122063   6- 2-10  108.16367711   6- 2-14  108.16367712

  7- 3-11  108.16332266   7- 3-15  108.16332269   8- 4-12  108.16367711   8- 4-16  108.16367712

  9- 5-13  108.16332266   9- 5-17  108.16332269  10- 2-14  107.81281450  11- 3-15  107.81246198

 12- 4-16  107.81281450  13- 5-17  107.81246198

 NUCLEAR CHARGE:                   42
 NUMBER OF PRIMITIVE AOS:         219
 NUMBER OF SYMMETRY AOS:          214
 NUMBER OF CONTRACTIONS:          130   ( 130A   )
 NUMBER OF CORE ORBITALS:           5   (   5A   )
 NUMBER OF VALENCE ORBITALS:       32   (  32A   )


 NUCLEAR REPULSION ENERGY  198.59918803


 Eigenvalues of metric

         1 0.280E-02 0.503E-02 0.504E-02 0.504E-02 0.171E-01 0.189E-01 0.189E-01 0.189E-01


 Contracted 2-electron integrals neglected if value below      1.0D-16
 AO integral compression algorithm  1   Integral accuracy      1.0D-16

     302.776 MB (compressed) written to integral file ( 97.1%)

     Node minimum: 302.776 MB, node maximum: 302.776 MB


 NUMBER OF SORTED TWO-ELECTRON INTEGRALS:   36256870.     BUFFER LENGTH:  32768
 NUMBER OF SEGMENTS:   3  SEGMENT LENGTH:   15998004      RECORD LENGTH: 524288

 Memory used in sort:      16.56 MW

 SORT1 READ    38982969. AND WROTE    36199626. INTEGRALS IN    105 RECORDS. CPU TIME:     0.39 SEC, REAL TIME:     0.61 SEC
 SORT2 READ    36199626. AND WROTE    36256870. INTEGRALS IN   1155 RECORDS. CPU TIME:     0.29 SEC, REAL TIME:     0.44 SEC

 FILE SIZES:   FILE 1:   283.3 MBYTE,  FILE 4:   440.4 MBYTE,   TOTAL:    723.7 MBYTE

 OPERATOR DM      FOR CENTER  0  COORDINATES:    0.000000    0.000000    0.000000


 **********************************************************************************************************************************
 DATASETS  * FILE   NREC   LENGTH (MB)   RECORD NAMES
              1      19      283.48       500      610      700      900      950      970     1000      129      960     1100   
                                          VAR    BASINP    GEOM    SYMINP    ZMAT    AOBASIS   BASIS     P2S    ABASIS      S 
                                         1400     1410     1200     1210     1080     1600     1650     1300     1700   
                                           T        V       H0       H01     AOSYM     SMH    MOLCAS    ERIS     OPER   

 PROGRAMS   *        TOTAL       INT
 CPU TIMES  *         4.22      4.18
 REAL TIME  *         4.91 SEC
 DISK USED  *         1.03 GB      
 GA USED    *         0.01 MB       (max)       0.00 MB       (current)
 **********************************************************************************************************************************

1PROGRAM * RHF-SCF (CLOSED SHELL)       Authors: W. Meyer, H.-J. Werner


 NUMBER OF ELECTRONS:      21+   21-    SPACE SYMMETRY=1    SPIN SYMMETRY: Singlet 
 CONVERGENCE THRESHOLDS:    1.00E-10 (Density)    1.00E-13 (Energy)
 MAX. NUMBER OF ITERATIONS:      200
 INTERPOLATION TYPE:            DIIS
 INTERPOLATION STEPS:              2 (START)      1 (STEP)
 LEVEL SHIFTS:                  0.00 (CLOSED)  0.00 (OPEN) 



 Orbital guess generated from atomic densities. Full valence occupancy:   37

 Molecular orbital dump at record        2100.2

 ITERATION    DDIFF          GRAD             ENERGY        2-EL.EN.            DIPOLE MOMENTS         DIIS
    1      0.000D+00      0.000D+00      -196.27089157    527.677264    0.00148    0.00148    0.00000    0
    2      0.000D+00      0.467D-02      -196.33874967    521.943886   -0.00012   -0.00012   -0.00000    1
    3      0.930D-02      0.177D-02      -196.34653998    524.513954    0.00032    0.00032   -0.00000    2
    4      0.346D-02      0.571D-03      -196.34768671    523.812625    0.00019    0.00019   -0.00000    3
    5      0.114D-02      0.118D-03      -196.34772130    523.879139    0.00019    0.00019   -0.00000    4
    6      0.198D-03      0.238D-04      -196.34772297    523.875380    0.00020    0.00020    0.00000    5
    7      0.659D-04      0.226D-05      -196.34772300    523.875146    0.00020    0.00020   -0.00000    6
    8      0.684D-05      0.488D-06      -196.34772300    523.875105    0.00020    0.00020   -0.00000    6
    9      0.137D-05      0.707D-07      -196.34772300    523.875096    0.00020    0.00020   -0.00000    5
   10      0.243D-06      0.109D-07      -196.34772300    523.875105    0.00020    0.00020    0.00000    5
   11      0.328D-07      0.414D-08      -196.34772300    523.875102    0.00020    0.00020   -0.00000    6
   12      0.776D-08      0.483D-09      -196.34772300    523.875102    0.00020    0.00020   -0.00000    6
   13      0.121D-08      0.728D-10      -196.34772300    523.875102    0.00020    0.00020   -0.00000    6
   14      0.201D-09      0.247D-10      -196.34772300    523.875102    0.00020    0.00020    0.00000    6
   15      0.582D-10      0.706D-11      -196.34772300    523.875102    0.00020    0.00020    0.00000    6
   16      0.185D-10      0.202D-11      -196.34772300    523.875102    0.00020    0.00020    0.00000    6
   17      0.508D-11      0.621D-12      -196.34772300    523.875102    0.00020    0.00020    0.00000    6
   18      0.147D-11      0.126D-12      -196.34772300    523.875102    0.00020    0.00020    0.00000    7
   19      0.357D-12      0.501D-13      -196.34772300    523.875102    0.00020    0.00020    0.00000    7
   20      0.259D-12      0.309D-13      -196.34772300    523.875102    0.00020    0.00020    0.00000    8
   21      0.124D-12      0.298D-13      -196.34772300    523.875102    0.00020    0.00020    0.00000    0

 Final occupancy:  21

 !RHF STATE 1.1 Energy               -196.347722997926
 Nuclear energy                       198.59918803
 One-electron energy                 -656.88446223
 Two-electron energy                  261.93755120
 Virial quotient                       -1.00118139
 !RHF STATE 1.1 Dipole moment           0.00019835     0.00019835     0.00000000
 Dipole moment /Debye                   0.00050411     0.00050411     0.00000000

 Orbital energies:

         1.1          2.1          3.1          4.1          5.1          6.1          7.1          8.1          9.1         10.1
    -11.230716   -11.214144   -11.214127   -11.214062   -11.214032    -1.103748    -0.927659    -0.927512    -0.927512    -0.728613

        11.1         12.1         13.1         14.1         15.1         16.1         17.1         18.1         19.1         20.1
     -0.609269    -0.609023    -0.608937    -0.551001    -0.549970    -0.508037    -0.508032    -0.507292    -0.450632    -0.450214

        21.1         22.1         23.1
     -0.450147     0.170677     0.231068


 **********************************************************************************************************************************
 DATASETS  * FILE   NREC   LENGTH (MB)   RECORD NAMES
              1      19      283.48       500      610      700      900      950      970     1000      129      960     1100   
                                          VAR    BASINP    GEOM    SYMINP    ZMAT    AOBASIS   BASIS     P2S    ABASIS      S 
                                         1400     1410     1200     1210     1080     1600     1650     1300     1700   
                                           T        V       H0       H01     AOSYM     SMH    MOLCAS    ERIS     OPER   

              2       3        0.89       700     1000     2100   
                                         GEOM     BASIS     RHF  

 PROGRAMS   *        TOTAL       RHF       INT
 CPU TIMES  *         9.95      5.72      4.18
 REAL TIME  *        11.33 SEC
 DISK USED  *         1.03 GB      
 GA USED    *         0.01 MB       (max)       0.00 MB       (current)
 **********************************************************************************************************************************


1PROGRAM * CCSD (Closed-shell coupled cluster)     Authors: C. Hampel, H.-J. Werner, 1991, M. Deegan, P.J. Knowles, 1992


 Convergence thresholds:  THRVAR = 1.00D-08  THRDEN = 1.00D-12

 CCSD(T)     terms to be evaluated (factor= 1.000)


 Number of core orbitals:           5 (   5 )
 Number of closed-shell orbitals:  16 (  16 )
 Number of external orbitals:     109 ( 109 )

 Molecular orbitals read from record     2100.2  Type=RHF/CANONICAL (state 1.1)

 Number of N-1 electron functions:              16
 Number of N-2 electron functions:             136
 Number of singly external CSFs:              1744
 Number of doubly external CSFs:           1521640
 Total number of CSFs:                     1523385

 Length of J-op  integral file:               0.00 MB
 Length of K-op  integral file:               1.20 MB
 Length of 3-ext integral record:             0.00 MB

 Memory could be reduced to 28.13 Mwords without degradation in triples

 Integral transformation finished. Total CPU:   1.88 sec, npass=  1  Memory used:  22.98 MW

 Reference energy:                   -196.34772300

 MP2 singlet pair energy:              -0.48845325
 MP2 triplet pair energy:              -0.25007826
 MP2 correlation energy:               -0.73853151
 MP2 total energy:                   -197.08625451

 SCS-MP2 correlation energy:           -0.74174815   (PS=  1.200000  PT=  0.333333)
 SCS-MP2 total energy:               -197.08947115

 ITER.      SQ.NORM     CORR.ENERGY   TOTAL ENERGY   ENERGY CHANGE        DEN1      VAR(S)    VAR(P)  DIIS     TIME
   1      1.28821663    -0.80655660  -197.15427960    -0.06802509    -0.04667752  0.17D-02  0.47D-02  1  1     6.92
   2      1.31151474    -0.81149034  -197.15921334    -0.00493374    -0.02352387  0.47D-04  0.32D-03  2  2    12.03
   3      1.31554364    -0.81163951  -197.15936251    -0.00014917    -0.00245334  0.53D-05  0.22D-04  3  3    17.14
   4      1.31658492    -0.81170205  -197.15942504    -0.00006253    -0.00046088  0.25D-06  0.12D-05  4  4    22.25
   5      1.31670995    -0.81170659  -197.15942959    -0.00000454    -0.00005030  0.15D-07  0.93D-07  5  5    27.37
   6      1.31672246    -0.81170414  -197.15942713     0.00000245    -0.00000856  0.68D-09  0.61D-08  6  6    32.50
   7      1.31672094    -0.81170442  -197.15942742    -0.00000029     0.00000070  0.16D-09  0.52D-09  6  1    37.61
   8      1.31672065    -0.81170457  -197.15942757    -0.00000015     0.00000027  0.78D-11  0.30D-10  6  2    42.74
   9      1.31672036    -0.81170461  -197.15942761    -0.00000005     0.00000026  0.11D-11  0.25D-11  6  3    47.87
  10      1.31672025    -0.81170462  -197.15942762    -0.00000001     0.00000009  0.89D-13  0.22D-12  6  4    53.01
  11      1.31672018    -0.81170463  -197.15942762    -0.00000000     0.00000004  0.94D-14  0.24D-13  6  5    58.14
  12      1.31672015    -0.81170463  -197.15942763    -0.00000000     0.00000002  0.89D-15  0.12D-14  6  1    63.26
  13      1.31672015    -0.81170463  -197.15942763    -0.00000000     0.00000000  0.78D-16  0.70D-16  6  6    68.38
  14      1.31672015    -0.81170463  -197.15942763    -0.00000000     0.00000000  0.15D-16  0.96D-17  6  2    73.50
  15      1.31672015    -0.81170463  -197.15942763    -0.00000000     0.00000000  0.13D-17  0.11D-17  6  3    78.62
  16      1.31672015    -0.81170463  -197.15942763     0.00000000    -0.00000000  0.70D-19  0.92D-19  6  4    83.76
  17      1.31672015    -0.81170463  -197.15942763     0.00000000    -0.00000000  0.34D-20  0.85D-20  6  5    88.88
  18      1.31672015    -0.81170463  -197.15942763     0.00000000    -0.00000000  0.38D-21  0.12D-20  6  1    94.01
  19      1.31672015    -0.81170463  -197.15942763     0.00000000    -0.00000000  0.30D-22  0.16D-21  6  6    99.14

 Norm of t1 vector:      0.05469728      S-energy:    -0.00000000      T1 diagnostic:  0.00683716
                                                                       D1 diagnostic:  0.01260576


 Total CPU time for triples:     80.92 sec


 RESULTS
 =======

  Reference energy                   -196.347722997925
  CCSD singlet pair energy             -0.577588015075
  CCSD triplet pair energy             -0.234116612758
  CCSD correlation energy              -0.811704627833

  Triples (T) contribution             -0.023942473775
  Total correlation energy             -0.835647101608

  CCSD total energy                  -197.159427625759
  CCSD[T] energy                     -197.183829438480
  CCSD-T energy                      -197.183121437651
 !CCSD(T) total energy               -197.183370099534

 Timing summary (sec):

 STEP                 CPU(USER)    SYS     CPU(TOT)    WALL
 Transformation          1.96      0.19      2.15      2.14
 CCSD iterations        97.18      2.10     99.28     99.53
 Triples                80.92      1.59     82.51     82.53

 Program statistics:

 Available memory in ccsd:               999998876
 Min. memory needed in ccsd:               3966807
 Max. memory used in ccsd:                 5311887
 Max. memory used in cckext:               4858018 (19 integral passes)



 **********************************************************************************************************************************
 DATASETS  * FILE   NREC   LENGTH (MB)   RECORD NAMES
              1      20      395.19       500      610      700      900      950      970     1000      129      960     1100   
                                          VAR    BASINP    GEOM    SYMINP    ZMAT    AOBASIS   BASIS     P2S    ABASIS      S 
                                         1400     1410     1200     1210     1080     1600     1650     1300     1700     1380   
                                           T        V       H0       H01     AOSYM     SMH    MOLCAS    ERIS     OPER     JKOP   

              2       3        0.89       700     1000     2100   
                                         GEOM     BASIS     RHF  

 PROGRAMS   *        TOTAL   CCSD(T)       RHF       INT
 CPU TIMES  *       190.03    180.07      5.72      4.18
 REAL TIME  *       195.58 SEC
 DISK USED  *         1.03 GB      
 GA USED    *         0.01 MB       (max)       0.00 MB       (current)
 **********************************************************************************************************************************

        CCSD(T)         RHF-SCF 
   -197.18337010   -196.34772300
 **********************************************************************************************************************************
 Variable memory released
