
 Primary working directories    : /tmp/1059987.683.gen4.q
 Secondary working directories  : /tmp/1059987.683.gen4.q
 Wavefunction directory         : /home/vulcan/jj04645/wfu/
 Main file repository           : /tmp/1059987.683.gen4.q/

 ARCHNAME  : Linux/x86_64
 FC        : /opt/intel/compilers_and_libraries_2016.1.150/linux/bin/intel64/ifort
 FCVERSION : 16.0.1
 BLASLIB   : -mkl
 id        : ccgc

 Nodes     nprocs
 n067         1
 ga_uses_ma=false, calling ma_init with nominal heap.
 GA-space will be limited to   8.0 MW (determined by -G option)

 Using customized tuning parameters: mindgm=10; mindgv=16; mindgc=4; mindgr=1; noblas=0; mincuda=1000; minvec=7
 default implementation of scratch files=df  

 ***,Optimization of 1_4_cyclohexadiene
 memory,1000,m
 gthresh,energy=1.0d-12,orbital=1.0d-10,oneint=1.0d-16,twoint=1.0d-16,optgrad=1.0d-6,compress=1.0d-13
 geomtyp=xyz
 
 bohr
 geometry = {
  H    4.1020597625    0.0000000000   -1.6492220312
  C    2.8410815035   -0.0000000000   -0.0029227388
  C   -1.2651113948    2.3673562906   -0.0029227388
  C   -1.2651113948   -2.3673562906   -0.0029227388
  C   -2.8410815035   -0.0000000000   -0.0029227388
  C    1.2651113948   -2.3673562906   -0.0029227388
  C    1.2651113948    2.3673562906   -0.0029227388
  H   -2.2659670681    4.1517317800    0.0073068470
  H    2.2659670681    4.1517317800    0.0073068470
  H   -4.1020597625   -0.0000000000   -1.6492220312
  H    2.2659670681   -4.1517317800    0.0073068470
  H   -2.2659670681   -4.1517317800    0.0073068470
  H    4.1020597625    0.0000000000    1.6433765536
  H   -4.1020597625   -0.0000000000    1.6433765536
 }
 
 basis=VDZ
 {rhf;maxit,200}
 {ccsd(t);maxit,200}

 Variables initialized (661), CPU time= 0.00 sec
 Commands  initialized (458), CPU time= 0.01 sec, 486 directives.
 Default parameters read. Elapsed time= 0.05 sec

 Checking input...
 Passed
1


                                         ***  PROGRAM SYSTEM MOLPRO  ***
                         Copyright, University College Cardiff Consultants Limited, 2008

                                    Version 2010.1 linked May 16 2016 07:17:05


 **********************************************************************************************************************************
 LABEL *   Optimization of 1_4_cyclohexadiene                                            
 Linux-4.4.3/n067(x86_64) 64 bit mpp version                                             DATE: 06-May-24          TIME: 15:41:37  
 **********************************************************************************************************************************

 SHA1:             9e8077add272b0f3cad6f7df79ec5211205f459d
 **********************************************************************************************************************************

 THRESHOLDS:

 ZERO    =  1.00D-12  ONEINT  =  1.00D-16  TWOINT  =  1.00D-16  PREFAC  =  1.00D-14  LOCALI  =  1.00D-09  EORDER  =  1.00D-04
 ENERGY  =  1.00D-12  ETEST   =  0.00D+00  EDENS   =  0.00D+00  THRDEDEF=  1.00D-06  GRADIENT=  1.00D-02  STEP    =  1.00D-03
 ORBITAL =  1.00D-10  CIVEC   =  1.00D-05  COEFF   =  1.00D-04  PRINTCI =  5.00D-02  PUNCHCI =  9.90D+01  OPTGRAD =  1.00D-06
 OPTENERG=  1.00D-06  OPTSTEP =  3.00D-04  THRGRAD =  1.00D-10  COMPRESS=  1.00D-13  VARMIN  =  1.00D-07  VARMAX  =  1.00D-03
 THRDOUB =  0.00D+00  THRDIV  =  1.00D-05  THRRED  =  1.00D-07  THRPSP  =  1.00D+00  THRDC   =  1.00D-10  THRCS   =  1.00D-10
 THRNRM  =  1.00D-08  THREQ   =  0.00D+00  THRDE   =  1.00D+00  THRREF  =  1.00D-05  SPARFAC =  1.00D+00  THRDLP  =  1.00D-07
 THRDIA  =  1.00D-10  THRDLS  =  1.00D-07  THRGPS  =  0.00D+00  THRKEX  =  0.00D+00  THRDIS  =  2.00D-01  THRVAR  =  1.00D-10
 THRLOC  =  1.00D-06  THRGAP  =  1.00D-06  THRLOCT = -1.00D+00  THRGAPT = -1.00D+00  THRORB  =  1.00D-06  THRMLTP =  0.00D+00
 THRCPQCI=  1.00D-10  KEXTA   =  0.00D+00  THRCOARS=  0.00D+00  SYMTOL  =  1.00D-06  GRADTOL =  1.00D-06  THROVL  =  1.00D-08
 THRORTH =  1.00D-08  GRID    =  1.00D-06  GRIDMAX =  1.00D-03  DTMAX   =  0.00D+00

 SETTING GEOMTYP        =    XYZ
 ZUNIT=BOHR
 

 Variable memory set to 1000000000 words,  buffer space   230000 words

 SETTING BASIS          =    VDZ


 Recomputing integrals since basis changed


 Using spherical harmonics

 Library entry H      S cc-pVDZ              selected for orbital group  1
 Library entry H      P cc-pVDZ              selected for orbital group  1
 Library entry C      S cc-pVDZ              selected for orbital group  2
 Library entry C      P cc-pVDZ              selected for orbital group  2
 Library entry C      D cc-pVDZ              selected for orbital group  2

1PROGRAM * SEWARD (Integral evaluation for generally contracted gaussian basis sets)     Author: Roland Lindh, 1990

 Geometry written to block  1 of record 700


 Point group  C2v 



 ATOMIC COORDINATES

 NR  ATOM    CHARGE       X              Y              Z

   1  H       1.00    4.102059762    0.000000000   -1.649222031
   2  H       1.00   -4.102059762    0.000000000   -1.649222031
   3  C       6.00    2.841081503    0.000000000   -0.002922739
   4  C       6.00   -2.841081503    0.000000000   -0.002922739
   5  C       6.00   -1.265111395    2.367356291   -0.002922739
   6  C       6.00   -1.265111395   -2.367356291   -0.002922739
   7  C       6.00    1.265111395   -2.367356291   -0.002922739
   8  C       6.00    1.265111395    2.367356291   -0.002922739
   9  H       1.00   -2.265967068    4.151731780    0.007306847
  10  H       1.00    2.265967068    4.151731780    0.007306847
  11  H       1.00    2.265967068   -4.151731780    0.007306847
  12  H       1.00   -2.265967068   -4.151731780    0.007306847
  13  H       1.00    4.102059762    0.000000000    1.643376554
  14  H       1.00   -4.102059762    0.000000000    1.643376554

 Bond lengths in Bohr (Angstrom)

  1- 3  2.073732753   2- 4  2.073732753   3- 7  2.843951053   3- 8  2.843951053   3-13  2.073732753
       ( 1.097372110)       ( 1.097372110)       ( 1.504954081)       ( 1.504954081)       ( 1.097372110)

  4- 5  2.843951053   4- 6  2.843951053   4-14  2.073732753   5- 8  2.530222790   5- 9  2.045925857
       ( 1.504954081)       ( 1.504954081)       ( 1.097372110)       ( 1.338936234)       ( 1.082657335)

  6- 7  2.530222790   6-12  2.045925857   7-11  2.045925857   8-10  2.045925857
       ( 1.338936234)       ( 1.082657335)       ( 1.082657335)       ( 1.082657335)

 Bond angles

  1- 3- 7  109.69187827   1- 3- 8  109.69187827   1- 3-13  105.09958683   2- 4- 5  109.69187827

  2- 4- 6  109.69187827   2- 4-14  105.09958683   3- 7- 6  123.65205893   3- 7-11  117.05952145

  3- 8- 5  123.65205893   3- 8-10  117.05952145   4- 5- 8  123.65205893   4- 5- 9  117.05952145

  4- 6- 7  123.65205893   4- 6-12  117.05952145   5- 4- 6  112.69588213   5- 4-14  109.69187827

  5- 8-10  119.28765204   6- 4-14  109.69187827   6- 7-11  119.28765204   7- 3- 8  112.69588213

  7- 3-13  109.69187827   7- 6-12  119.28765204   8- 3-13  109.69187827   8- 5- 9  119.28765204

 NUCLEAR CHARGE:                   44
 NUMBER OF PRIMITIVE AOS:         218
 NUMBER OF SYMMETRY AOS:          212
 NUMBER OF CONTRACTIONS:          124   (  37A1  +  37B1  +  25B2  +  25A2  )
 NUMBER OF CORE ORBITALS:           6   (   2A1  +   2B1  +   1B2  +   1A2  )
 NUMBER OF VALENCE ORBITALS:       32   (  10A1  +  10B1  +   6B2  +   6A2  )


 NUCLEAR REPULSION ENERGY  217.80818694


 Eigenvalues of metric

         1 0.345E-02 0.182E-01 0.272E-01 0.356E-01 0.382E-01 0.389E-01 0.435E-01 0.797E-01
         2 0.670E-03 0.315E-02 0.163E-01 0.227E-01 0.258E-01 0.318E-01 0.366E-01 0.453E-01
         3 0.562E-02 0.256E-01 0.358E-01 0.532E-01 0.124E+00 0.132E+00 0.138E+00 0.170E+00
         4 0.169E-02 0.432E-02 0.142E-01 0.309E-01 0.605E-01 0.859E-01 0.991E-01 0.102E+00


 Contracted 2-electron integrals neglected if value below      1.0D-16
 AO integral compression algorithm  1   Integral accuracy      1.0D-16

     74.449 MB (compressed) written to integral file ( 88.9%)

     Node minimum: 74.449 MB, node maximum: 74.449 MB


 NUMBER OF SORTED TWO-ELECTRON INTEGRALS:    7708939.     BUFFER LENGTH:  32768
 NUMBER OF SEGMENTS:   1  SEGMENT LENGTH:    7708939      RECORD LENGTH: 524288

 Memory used in sort:       8.27 MW

 SORT1 READ    10470800. AND WROTE     6906163. INTEGRALS IN     20 RECORDS. CPU TIME:     0.16 SEC, REAL TIME:     0.20 SEC
 SORT2 READ     6906163. AND WROTE     7708939. INTEGRALS IN    284 RECORDS. CPU TIME:     0.11 SEC, REAL TIME:     0.15 SEC

 FILE SIZES:   FILE 1:    59.6 MBYTE,  FILE 4:    83.9 MBYTE,   TOTAL:    143.5 MBYTE

 OPERATOR DM      FOR CENTER  0  COORDINATES:    0.000000    0.000000    0.000000


 **********************************************************************************************************************************
 DATASETS  * FILE   NREC   LENGTH (MB)   RECORD NAMES
              1      19       59.64       500      610      700      900      950      970     1000      129      960     1100   
                                          VAR    BASINP    GEOM    SYMINP    ZMAT    AOBASIS   BASIS     P2S    ABASIS      S 
                                         1400     1410     1200     1210     1080     1600     1650     1300     1700   
                                           T        V       H0       H01     AOSYM     SMH    MOLCAS    ERIS     OPER   

 PROGRAMS   *        TOTAL       INT
 CPU TIMES  *         2.26      2.22
 REAL TIME  *         2.55 SEC
 DISK USED  *       218.90 MB      
 GA USED    *         0.00 MB       (max)       0.00 MB       (current)
 **********************************************************************************************************************************

1PROGRAM * RHF-SCF (CLOSED SHELL)       Authors: W. Meyer, H.-J. Werner


 NUMBER OF ELECTRONS:      22+   22-
 CONVERGENCE THRESHOLDS:    1.00E-10 (Density)    1.00E-13 (Energy)
 MAX. NUMBER OF ITERATIONS:      200
 INTERPOLATION TYPE:            DIIS
 INTERPOLATION STEPS:              2 (START)      1 (STEP)
 LEVEL SHIFTS:                  0.00 (CLOSED)  0.00 (OPEN) 



 Orbital guess generated from atomic densities. Full valence occupancy:   12  12   7   7

 Molecular orbital dump at record        2100.2

 Initial alpha occupancy:   8   6   5   3
 Initial beta  occupancy:   8   6   5   3
 Wave function symmetry:    1

 ITERATION    DDIFF          GRAD             ENERGY        2-EL.EN.            DIPOLE MOMENTS         DIIS
    1      0.000D+00      0.000D+00      -231.78148043    590.574285    0.00000    0.00000    0.00560    0
    2      0.000D+00      0.880D-02      -231.84387217    585.726332    0.00000    0.00000    0.00505    1
    3      0.179D-01      0.345D-02      -231.85141841    588.045188    0.00000    0.00000    0.00568    2
    4      0.661D-02      0.118D-02      -231.85265876    587.436367    0.00000    0.00000    0.00556    3
    5      0.246D-02      0.120D-03      -231.85267707    587.441455    0.00000    0.00000    0.00559    4
    6      0.451D-03      0.257D-04      -231.85267766    587.438312    0.00000    0.00000    0.00558    5
    7      0.630D-04      0.852D-05      -231.85267772    587.439368    0.00000    0.00000    0.00558    6
    8      0.245D-04      0.166D-05      -231.85267773    587.439250    0.00000    0.00000    0.00558    7
    9      0.573D-05      0.339D-06      -231.85267773    587.439288    0.00000    0.00000    0.00558    6
   10      0.127D-05      0.709D-07      -231.85267773    587.439281    0.00000    0.00000    0.00558    6
   11      0.272D-06      0.103D-07      -231.85267773    587.439284    0.00000    0.00000    0.00558    6
   12      0.302D-07      0.261D-08      -231.85267773    587.439283    0.00000    0.00000    0.00558    6
   13      0.799D-08      0.877D-09      -231.85267773    587.439283    0.00000    0.00000    0.00558    6
   14      0.211D-08      0.224D-09      -231.85267773    587.439283    0.00000    0.00000    0.00558    6
   15      0.676D-09      0.453D-10      -231.85267773    587.439283    0.00000    0.00000    0.00558    6
   16      0.102D-09      0.157D-10      -231.85267773    587.439283    0.00000    0.00000    0.00558    7
   17      0.414D-10      0.312D-11      -231.85267773    587.439283    0.00000    0.00000    0.00558    0

 Final occupancy:   8   6   5   3

 !RHF STATE 1.1 Energy               -231.852677726851
 Nuclear energy                       217.80818694
 One-electron energy                 -743.38050631
 Two-electron energy                  293.71964165
 Virial quotient                       -1.00108788
 !RHF STATE 1.1 Dipole moment           0.00000000     0.00000000     0.00557984
 Dipole moment /Debye                   0.00000000     0.00000000     0.01418162

 Orbital energies:

         1.1          2.1          3.1          4.1          5.1          6.1          7.1          8.1          9.1         10.1
    -11.233667   -11.228879    -1.122183    -0.862008    -0.678887    -0.595188    -0.490849    -0.329700     0.180962     0.245810

         1.2          2.2          3.2          4.2          5.2          6.2          7.2          8.2
    -11.233668   -11.227275    -1.004914    -0.655304    -0.561660    -0.531942     0.193484     0.217580

         1.3          2.3          3.3          4.3          5.3          6.3          7.3
    -11.228937    -1.008636    -0.597811    -0.561777    -0.358714     0.223820     0.414478

         1.4          2.4          3.4          4.4          5.4
    -11.227308    -0.785189    -0.446114     0.174513     0.258030


 **********************************************************************************************************************************
 DATASETS  * FILE   NREC   LENGTH (MB)   RECORD NAMES
              1      19       59.64       500      610      700      900      950      970     1000      129      960     1100   
                                          VAR    BASINP    GEOM    SYMINP    ZMAT    AOBASIS   BASIS     P2S    ABASIS      S 
                                         1400     1410     1200     1210     1080     1600     1650     1300     1700   
                                           T        V       H0       H01     AOSYM     SMH    MOLCAS    ERIS     OPER   

              2       3        0.58       700     1000     2100   
                                         GEOM     BASIS     RHF  

 PROGRAMS   *        TOTAL       RHF       INT
 CPU TIMES  *         2.62      0.36      2.22
 REAL TIME  *         3.00 SEC
 DISK USED  *       218.90 MB      
 GA USED    *         0.00 MB       (max)       0.00 MB       (current)
 **********************************************************************************************************************************


1PROGRAM * CCSD (Closed-shell coupled cluster)     Authors: C. Hampel, H.-J. Werner, 1991, M. Deegan, P.J. Knowles, 1992


 Convergence thresholds:  THRVAR = 1.00D-08  THRDEN = 1.00D-12

 CCSD(T)     terms to be evaluated (factor= 1.000)


 Number of core orbitals:           6 (   2   2   1   1 )
 Number of closed-shell orbitals:  16 (   6   4   4   2 )
 Number of external orbitals:     102 (  29  31  20  22 )

 Molecular orbitals read from record     2100.2  Type=RHF/CANONICAL (state 1.1)

 Number of N-1 electron functions:              16
 Number of N-2 electron functions:             136
 Number of singly external CSFs:               422
 Number of doubly external CSFs:            334424
 Total number of CSFs:                      334847

 Length of J-op  integral file:               0.00 MB
 Length of K-op  integral file:               0.31 MB
 Length of 3-ext integral record:             0.00 MB

 Memory could be reduced to 6.15 Mwords without degradation in triples

 Integral transformation finished. Total CPU:   0.15 sec, npass=  1  Memory used:   1.74 MW

 Reference energy:                   -231.85267773

 MP2 singlet pair energy:              -0.50625005
 MP2 triplet pair energy:              -0.29374505
 MP2 correlation energy:               -0.79999509
 MP2 total energy:                   -232.65267282

 SCS-MP2 correlation energy:           -0.79027475   (PS=  1.200000  PT=  0.333333)
 SCS-MP2 total energy:               -232.64295248

 ITER.      SQ.NORM     CORR.ENERGY   TOTAL ENERGY   ENERGY CHANGE        DEN1      VAR(S)    VAR(P)  DIIS     TIME
   1      1.31801170    -0.85444485  -232.70712258    -0.05444976    -0.03138127  0.31D-02  0.54D-02  1  1     0.55
   2      1.34617227    -0.86026240  -232.71294013    -0.00581755    -0.02418599  0.68D-04  0.70D-03  2  2     0.95
   3      1.35454131    -0.86057346  -232.71325119    -0.00031106    -0.00385708  0.20D-04  0.68D-04  3  3     1.36
   4      1.35808163    -0.86069399  -232.71337171    -0.00012052    -0.00107669  0.10D-05  0.67D-05  4  4     1.76
   5      1.35891603    -0.86070573  -232.71338345    -0.00001174    -0.00017792  0.50D-07  0.65D-06  5  5     2.15
   6      1.35907313    -0.86069807  -232.71337580     0.00000765    -0.00002572  0.49D-08  0.36D-07  6  6     2.56
   7      1.35908854    -0.86069874  -232.71337647    -0.00000067     0.00000108  0.16D-08  0.32D-08  6  2     2.97
   8      1.35909319    -0.86069860  -232.71337633     0.00000014    -0.00000093  0.56D-10  0.35D-09  6  1     3.37
   9      1.35909324    -0.86069867  -232.71337640    -0.00000007     0.00000044  0.18D-10  0.52D-10  6  3     3.78
  10      1.35909317    -0.86069871  -232.71337644    -0.00000004     0.00000017  0.79D-12  0.82D-11  6  4     4.18
  11      1.35909261    -0.86069874  -232.71337647    -0.00000003     0.00000022  0.85D-13  0.11D-11  6  6     4.58
  12      1.35909250    -0.86069875  -232.71337648    -0.00000001     0.00000005  0.19D-13  0.98D-13  6  5     4.99
  13      1.35909250    -0.86069875  -232.71337648     0.00000000    -0.00000000  0.76D-14  0.15D-13  6  2     5.39
  14      1.35909252    -0.86069875  -232.71337648     0.00000000    -0.00000001  0.55D-15  0.13D-14  6  1     5.80
  15      1.35909253    -0.86069875  -232.71337647     0.00000000    -0.00000000  0.17D-15  0.15D-15  6  3     6.20
  16      1.35909253    -0.86069875  -232.71337647     0.00000000    -0.00000000  0.18D-16  0.24D-16  6  4     6.61
  17      1.35909253    -0.86069875  -232.71337647    -0.00000000     0.00000000  0.34D-17  0.38D-17  6  6     7.01
  18      1.35909253    -0.86069875  -232.71337647    -0.00000000     0.00000000  0.23D-18  0.65D-18  6  5     7.42
  19      1.35909253    -0.86069875  -232.71337647     0.00000000     0.00000000  0.29D-19  0.15D-18  6  2     7.83
  20      1.35909253    -0.86069875  -232.71337647     0.00000000    -0.00000000  0.65D-21  0.26D-19  6  1     8.23
  21      1.35909253    -0.86069875  -232.71337647     0.00000000    -0.00000000  0.14D-21  0.18D-20  6  4     8.63
  22      1.35909253    -0.86069875  -232.71337647     0.00000000    -0.00000000  0.16D-22  0.84D-22  6  3     9.03

 Norm of t1 vector:      0.07884243      S-energy:    -0.00000000      T1 diagnostic:  0.00985530
                                                                       D1 diagnostic:  0.02885131

 Doubles amplitudes (print threshold =  0.500E-01):

         I         J         SYM. A    SYM. B    A         B      T(IJ, AB)

         6         6         2         2         1         1     -0.05814656
        14        14         4         4         1         1     -0.07474008
        14         6         4         2         1         1     -0.06109274


 Total CPU time for triples:      7.25 sec


 RESULTS
 =======

  Reference energy                   -231.852677726851
  CCSD singlet pair energy             -0.593365163658
  CCSD triplet pair energy             -0.267333584331
  CCSD correlation energy              -0.860698747990

  Triples (T) contribution             -0.032200331158
  Total correlation energy             -0.892899079147

  CCSD total energy                  -232.713376474841
  CCSD[T] energy                     -232.746308964096
  CCSD-T energy                      -232.745258611320
 !CCSD(T) total energy               -232.745576805999

 Timing summary (sec):

 STEP                 CPU(USER)    SYS     CPU(TOT)    WALL
 Transformation          0.16      0.04      0.20      0.21
 CCSD iterations         8.87      0.48      9.35      9.39
 Triples                 7.25      0.25      7.50      7.50

 Program statistics:

 Available memory in ccsd:               999998876
 Min. memory needed in ccsd:                897175
 Max. memory used in ccsd:                 1197405
 Max. memory used in cckext:               1174895 (22 integral passes)



 **********************************************************************************************************************************
 DATASETS  * FILE   NREC   LENGTH (MB)   RECORD NAMES
              1      20       83.65       500      610      700      900      950      970     1000      129      960     1100   
                                          VAR    BASINP    GEOM    SYMINP    ZMAT    AOBASIS   BASIS     P2S    ABASIS      S 
                                         1400     1410     1200     1210     1080     1600     1650     1300     1700     1380   
                                           T        V       H0       H01     AOSYM     SMH    MOLCAS    ERIS     OPER     JKOP   

              2       3        0.58       700     1000     2100   
                                         GEOM     BASIS     RHF  

 PROGRAMS   *        TOTAL   CCSD(T)       RHF       INT
 CPU TIMES  *        18.91     16.28      0.36      2.22
 REAL TIME  *        20.14 SEC
 DISK USED  *       218.90 MB      
 GA USED    *         0.00 MB       (max)       0.00 MB       (current)
 **********************************************************************************************************************************

        CCSD(T)         RHF-SCF 
   -232.74557681   -231.85267773
 **********************************************************************************************************************************
 Variable memory released
