
 Primary working directories    : /tmp/880701.755.gen6.q
 Secondary working directories  : /tmp/880701.755.gen6.q
 Wavefunction directory         : /home/vulcan/lo21740/wfu/
 Main file repository           : /tmp/880701.755.gen6.q/

 ARCHNAME  : Linux/x86_64
 FC        : /opt/intel/compilers_and_libraries_2016.1.150/linux/bin/intel64/ifort
 FCVERSION : 16.0.1
 BLASLIB   : -mkl
 id        : ccgc

 Nodes     nprocs
 n077         1
 ga_uses_ma=false, calling ma_init with nominal heap.
 GA-space will be limited to   8.0 MW (determined by -G option)

 Using customized tuning parameters: mindgm=10; mindgv=16; mindgc=4; mindgr=1; noblas=0; mincuda=1000; minvec=7
 default implementation of scratch files=df  

 ***,Optimization of formamide
 memory,1000,m
 gthresh,energy=1.0d-12,orbital=1.0d-10,oneint=1.0d-16,twoint=1.0d-16,optgrad=1.0d-6,compress=1.0d-13
 geomtyp=xyz
 
 bohr
 geometry = {
  C   -3.8261450856    0.0861399660    0.0000000000
  O   -2.7255393826    2.1397920429   -0.0000000000
  N   -2.6817932539   -2.1788612207    0.0000000000
  H   -3.7431278717   -3.7591620050    0.0000000000
  H   -0.7466810919   -2.3012494269   -0.0000000000
  H   -5.9061803653   -0.0203618520   -0.0000000000
  C    3.8254583494   -0.0865431337    0.0000000000
  O    2.7348843718   -2.1381080010   -0.0000000000
  N    2.6809332934    2.1800171571   -0.0000000000
  H    3.7350520974    3.7529349976    0.0000000000
  H    0.7546907168    2.3088809318   -0.0000000000
  H    5.8984482222    0.0165205438   -0.0000000000
 }
 
 basis=AVDZ
 {rhf;maxit,200}
 {ccsd(t);maxit,200}

 Variables initialized (661), CPU time= 0.00 sec
 Commands  initialized (458), CPU time= 0.00 sec, 486 directives.
 Default parameters read. Elapsed time= 0.05 sec

 Checking input...
 Passed
1


                                         ***  PROGRAM SYSTEM MOLPRO  ***
                         Copyright, University College Cardiff Consultants Limited, 2008

                                    Version 2010.1 linked May 16 2016 07:17:05


 **********************************************************************************************************************************
 LABEL *   Optimization of formamide                                                     
 Linux-4.4.3/n077(x86_64) 64 bit mpp version                                             DATE: 25-May-23          TIME: 03:34:23  
 **********************************************************************************************************************************

 SHA1:             9e8077add272b0f3cad6f7df79ec5211205f459d
 **********************************************************************************************************************************

 THRESHOLDS:

 ZERO    =  1.00D-12  ONEINT  =  1.00D-16  TWOINT  =  1.00D-16  PREFAC  =  1.00D-14  LOCALI  =  1.00D-09  EORDER  =  1.00D-04
 ENERGY  =  1.00D-12  ETEST   =  0.00D+00  EDENS   =  0.00D+00  THRDEDEF=  1.00D-06  GRADIENT=  1.00D-02  STEP    =  1.00D-03
 ORBITAL =  1.00D-10  CIVEC   =  1.00D-05  COEFF   =  1.00D-04  PRINTCI =  5.00D-02  PUNCHCI =  9.90D+01  OPTGRAD =  1.00D-06
 OPTENERG=  1.00D-06  OPTSTEP =  3.00D-04  THRGRAD =  1.00D-10  COMPRESS=  1.00D-13  VARMIN  =  1.00D-07  VARMAX  =  1.00D-03
 THRDOUB =  0.00D+00  THRDIV  =  1.00D-05  THRRED  =  1.00D-07  THRPSP  =  1.00D+00  THRDC   =  1.00D-10  THRCS   =  1.00D-10
 THRNRM  =  1.00D-08  THREQ   =  0.00D+00  THRDE   =  1.00D+00  THRREF  =  1.00D-05  SPARFAC =  1.00D+00  THRDLP  =  1.00D-07
 THRDIA  =  1.00D-10  THRDLS  =  1.00D-07  THRGPS  =  0.00D+00  THRKEX  =  0.00D+00  THRDIS  =  2.00D-01  THRVAR  =  1.00D-10
 THRLOC  =  1.00D-06  THRGAP  =  1.00D-06  THRLOCT = -1.00D+00  THRGAPT = -1.00D+00  THRORB  =  1.00D-06  THRMLTP =  0.00D+00
 THRCPQCI=  1.00D-10  KEXTA   =  0.00D+00  THRCOARS=  0.00D+00  SYMTOL  =  1.00D-06  GRADTOL =  1.00D-06  THROVL  =  1.00D-08
 THRORTH =  1.00D-08  GRID    =  1.00D-06  GRIDMAX =  1.00D-03  DTMAX   =  0.00D+00

 SETTING GEOMTYP        =    XYZ
 ZUNIT=BOHR
 

 Variable memory set to 1000000000 words,  buffer space   230000 words

 SETTING BASIS          =    AVDZ


 Recomputing integrals since basis changed


 Using spherical harmonics

 Library entry C      S aug-cc-pVDZ          selected for orbital group  1
 Library entry C      P aug-cc-pVDZ          selected for orbital group  1
 Library entry C      D aug-cc-pVDZ          selected for orbital group  1
 Library entry O      S aug-cc-pVDZ          selected for orbital group  2
 Library entry O      P aug-cc-pVDZ          selected for orbital group  2
 Library entry O      D aug-cc-pVDZ          selected for orbital group  2
 Library entry N      S aug-cc-pVDZ          selected for orbital group  3
 Library entry N      P aug-cc-pVDZ          selected for orbital group  3
 Library entry N      D aug-cc-pVDZ          selected for orbital group  3
 Library entry H      S aug-cc-pVDZ          selected for orbital group  4
 Library entry H      P aug-cc-pVDZ          selected for orbital group  4

1PROGRAM * SEWARD (Integral evaluation for generally contracted gaussian basis sets)     Author: Roland Lindh, 1990

 Geometry written to block  1 of record 700


 Point group  Cs  



 ATOMIC COORDINATES

 NR  ATOM    CHARGE       X              Y              Z

   1  C       6.00   -3.826145086    0.086139966    0.000000000
   2  O       8.00   -2.725539383    2.139792043    0.000000000
   3  N       7.00   -2.681793254   -2.178861221    0.000000000
   4  H       1.00   -3.743127872   -3.759162005    0.000000000
   5  H       1.00   -0.746681092   -2.301249427    0.000000000
   6  H       1.00   -5.906180365   -0.020361852    0.000000000
   7  C       6.00    3.825458349   -0.086543134    0.000000000
   8  O       8.00    2.734884372   -2.138108001    0.000000000
   9  N       7.00    2.680933293    2.180017157    0.000000000
  10  H       1.00    3.735052097    3.752934998    0.000000000
  11  H       1.00    0.754690717    2.308880932    0.000000000
  12  H       1.00    5.898448222    0.016520544    0.000000000

 Bond lengths in Bohr (Angstrom)

 1-2  2.329982782  1-3  2.537670485  1-6  2.082760044  3-4  1.903623319  3-5  1.938978585
     ( 1.232973786)     ( 1.342877385)     ( 1.102149147)     ( 1.007354075)     ( 1.026063276)

  7- 8  2.323417742   7- 9  2.539140239   7-12  2.075550321   9-10  1.893472204   9-11  1.930548196
       ( 1.229499716)       ( 1.343655145)       ( 1.098333926)       ( 1.001982336)       ( 1.021602106)

 Bond angles

  1-3-4  119.31019413   1-3-5  120.42329306   2-1-3  125.00760058   2-1-6  121.11911288

  3- 1- 6  113.87328654   4- 3- 5  120.26651281   7- 9-10  119.37927659   7- 9-11  120.61933490

  8- 7- 9  125.21370835   8- 7-12  120.84054023   9- 7-12  113.94575141  10- 9-11  120.00138851

 NUCLEAR CHARGE:                   48
 NUMBER OF PRIMITIVE AOS:         288
 NUMBER OF SYMMETRY AOS:          276
 NUMBER OF CONTRACTIONS:          192   ( 138A'  +  54A"  )
 NUMBER OF CORE ORBITALS:           6   (   6A'  +   0A"  )
 NUMBER OF VALENCE ORBITALS:       30   (  24A'  +   6A"  )


 NUCLEAR REPULSION ENERGY  230.50429586


 Eigenvalues of metric

         1 0.232E-03 0.270E-03 0.524E-03 0.528E-03 0.565E-03 0.701E-03 0.713E-03 0.715E-03
         2 0.182E-01 0.198E-01 0.283E-01 0.283E-01 0.335E-01 0.339E-01 0.416E-01 0.453E-01


 Contracted 2-electron integrals neglected if value below      1.0D-16
 AO integral compression algorithm  1   Integral accuracy      1.0D-16

     746.586 MB (compressed) written to integral file ( 93.7%)

     Node minimum: 746.586 MB, node maximum: 746.586 MB


 NUMBER OF SORTED TWO-ELECTRON INTEGRALS:   89829696.     BUFFER LENGTH:  32768
 NUMBER OF SEGMENTS:   6  SEGMENT LENGTH:   15998004      RECORD LENGTH: 524288

 Memory used in sort:      16.56 MW

 SORT1 READ    99568560. AND WROTE    89009787. INTEGRALS IN    258 RECORDS. CPU TIME:     1.00 SEC, REAL TIME:     1.51 SEC
 SORT2 READ    89009787. AND WROTE    89829696. INTEGRALS IN   2848 RECORDS. CPU TIME:     0.66 SEC, REAL TIME:     1.01 SEC

 FILE SIZES:   FILE 1:   692.0 MBYTE,  FILE 4:  1082.2 MBYTE,   TOTAL:   1774.1 MBYTE

 OPERATOR DM      FOR CENTER  0  COORDINATES:    0.000000    0.000000    0.000000


 **********************************************************************************************************************************
 DATASETS  * FILE   NREC   LENGTH (MB)   RECORD NAMES
              1      19      692.19       500      610      700      900      950      970     1000      129      960     1100   
                                          VAR    BASINP    GEOM    SYMINP    ZMAT    AOBASIS   BASIS     P2S    ABASIS      S 
                                         1400     1410     1200     1210     1080     1600     1650     1300     1700   
                                           T        V       H0       H01     AOSYM     SMH    MOLCAS    ERIS     OPER   

 PROGRAMS   *        TOTAL       INT
 CPU TIMES  *         7.10      7.07
 REAL TIME  *         8.50 SEC
 DISK USED  *         2.52 GB      
 GA USED    *         0.00 MB       (max)       0.00 MB       (current)
 **********************************************************************************************************************************

1PROGRAM * RHF-SCF (CLOSED SHELL)       Authors: W. Meyer, H.-J. Werner


 NUMBER OF ELECTRONS:      24+   24-
 CONVERGENCE THRESHOLDS:    1.00E-10 (Density)    1.00E-13 (Energy)
 MAX. NUMBER OF ITERATIONS:      200
 INTERPOLATION TYPE:            DIIS
 INTERPOLATION STEPS:              2 (START)      1 (STEP)
 LEVEL SHIFTS:                  0.00 (CLOSED)  0.00 (OPEN) 



 Orbital guess generated from atomic densities. Full valence occupancy:   30   6

 Molecular orbital dump at record        2100.2

 Initial alpha occupancy:  20   4
 Initial beta  occupancy:  20   4
 Wave function symmetry:    1

 ITERATION    DDIFF          GRAD             ENERGY        2-EL.EN.            DIPOLE MOMENTS         DIIS
    1      0.000D+00      0.000D+00      -337.80603118    704.692501   -0.00821   -0.02110    0.00000    0
    2      0.000D+00      0.728D-02      -337.88345833    699.080495    0.00046   -0.00474    0.00000    1
    3      0.138D-01      0.531D-02      -337.94120359    701.818729   -0.00375   -0.01158    0.00000    2
    4      0.561D-02      0.701D-03      -337.94341456    701.723267   -0.00307   -0.00927    0.00000    3
    5      0.134D-02      0.241D-03      -337.94368266    701.656439   -0.00345   -0.01014    0.00000    4
    6      0.456D-03      0.794D-04      -337.94374389    701.681951   -0.00336   -0.00947    0.00000    5
    7      0.201D-03      0.351D-04      -337.94375489    701.673151   -0.00350   -0.00988    0.00000    6
    8      0.957D-04      0.106D-04      -337.94375584    701.678436   -0.00340   -0.00941    0.00000    7
    9      0.299D-04      0.374D-05      -337.94375592    701.676650   -0.00350   -0.00979    0.00000    8
   10      0.798D-05      0.152D-05      -337.94375593    701.676370   -0.00345   -0.00962    0.00000    8
   11      0.371D-05      0.574D-06      -337.94375593    701.676714   -0.00347   -0.00967    0.00000    8
   12      0.115D-05      0.150D-06      -337.94375593    701.676658   -0.00346   -0.00966    0.00000    8
   13      0.426D-06      0.419D-07      -337.94375593    701.676646   -0.00346   -0.00966    0.00000    8
   14      0.957D-07      0.177D-07      -337.94375593    701.676652   -0.00346   -0.00966    0.00000    8
   15      0.401D-07      0.319D-08      -337.94375593    701.676652   -0.00346   -0.00966    0.00000    8
   16      0.859D-08      0.838D-09      -337.94375593    701.676652   -0.00346   -0.00966    0.00000    8
   17      0.180D-08      0.258D-09      -337.94375593    701.676652   -0.00346   -0.00966    0.00000    7
   18      0.547D-09      0.762D-10      -337.94375593    701.676652   -0.00346   -0.00966    0.00000    7
   19      0.165D-09      0.319D-10      -337.94375593    701.676652   -0.00346   -0.00966    0.00000    8
   20      0.607D-10      0.134D-10      -337.94375593    701.676652   -0.00346   -0.00966    0.00000    8
   21      0.273D-10      0.462D-11      -337.94375593    701.676652   -0.00346   -0.00966    0.00000    8
   22      0.113D-10      0.245D-11      -337.94375593    701.676652   -0.00346   -0.00966    0.00000    8
   23      0.793D-11      0.739D-12      -337.94375593    701.676652   -0.00346   -0.00966    0.00000    8
   24      0.574D-11      0.364D-12      -337.94375593    701.676652   -0.00346   -0.00966    0.00000    9
   25      0.479D-11      0.164D-12      -337.94375593    701.676652   -0.00346   -0.00966    0.00000    9
   26      0.382D-11      0.131D-12      -337.94375593    701.676652   -0.00346   -0.00966    0.00000    9
   27      0.192D-11      0.117D-12      -337.94375593    701.676652   -0.00346   -0.00966    0.00000    9
   28      0.141D-11      0.107D-12      -337.94375593    701.676652   -0.00346   -0.00966    0.00000    9
   29      0.995D-12      0.987D-13      -337.94375593    701.676652   -0.00346   -0.00966    0.00000    9
   30      0.627D-12      0.986D-13      -337.94375593    701.676652   -0.00346   -0.00966    0.00000    9
   31      0.709D-12      0.835D-13      -337.94375593    701.676652   -0.00346   -0.00966    0.00000    9
   32      0.571D-12      0.919D-13      -337.94375593    701.676652   -0.00346   -0.00966    0.00000    9
   33      0.420D-12      0.892D-13      -337.94375593    701.676652   -0.00346   -0.00966    0.00000    9
   34      0.375D-12      0.105D-12      -337.94375593    701.676652   -0.00346   -0.00966    0.00000    9
   35      0.351D-12      0.946D-13      -337.94375593    701.676652   -0.00346   -0.00966    0.00000    9
   36      0.319D-12      0.949D-13      -337.94375593    701.676652   -0.00346   -0.00966    0.00000    9
   37      0.445D-12      0.805D-13      -337.94375593    701.676652   -0.00346   -0.00966    0.00000    0

 Final occupancy:  20   4

 !RHF STATE 1.1 Energy               -337.943755934142
 Nuclear energy                       230.50429586
 One-electron energy                 -919.28637778
 Two-electron energy                  350.83832599
 Virial quotient                       -1.00172993
 !RHF STATE 1.1 Dipole moment          -0.00346377    -0.00966454     0.00000000
 Dipole moment /Debye                  -0.00880344    -0.02456321     0.00000000

 Orbital energies:

         1.1          2.1          3.1          4.1          5.1          6.1          7.1          8.1          9.1         10.1
    -20.541359   -20.540928   -15.589612   -15.588280   -11.368051   -11.367377    -1.389611    -1.384327    -1.218557    -1.212300

        11.1         12.1         13.1         14.1         15.1         16.1         17.1         18.1         19.1         20.1
     -0.860913    -0.835701    -0.749982    -0.740888    -0.705925    -0.645092    -0.619324    -0.593696    -0.454437    -0.429028

        21.1         22.1
      0.033381     0.036359

         1.2          2.2          3.2          4.2          5.2          6.2
     -0.573749    -0.565635    -0.420343    -0.409750     0.092351     0.103387


 **********************************************************************************************************************************
 DATASETS  * FILE   NREC   LENGTH (MB)   RECORD NAMES
              1      19      692.19       500      610      700      900      950      970     1000      129      960     1100   
                                          VAR    BASINP    GEOM    SYMINP    ZMAT    AOBASIS   BASIS     P2S    ABASIS      S 
                                         1400     1410     1200     1210     1080     1600     1650     1300     1700   
                                           T        V       H0       H01     AOSYM     SMH    MOLCAS    ERIS     OPER   

              2       3        0.91       700     1000     2100   
                                         GEOM     BASIS     RHF  

 PROGRAMS   *        TOTAL       RHF       INT
 CPU TIMES  *        22.68     15.58      7.07
 REAL TIME  *        26.45 SEC
 DISK USED  *         2.52 GB      
 GA USED    *         0.00 MB       (max)       0.00 MB       (current)
 **********************************************************************************************************************************


1PROGRAM * CCSD (Closed-shell coupled cluster)     Authors: C. Hampel, H.-J. Werner, 1991, M. Deegan, P.J. Knowles, 1992


 Convergence thresholds:  THRVAR = 1.00D-08  THRDEN = 1.00D-12

 CCSD(T)     terms to be evaluated (factor= 1.000)


 Number of core orbitals:           6 (   6   0 )
 Number of closed-shell orbitals:  18 (  14   4 )
 Number of external orbitals:     168 ( 118  50 )

 Molecular orbitals read from record     2100.2  Type=RHF/CANONICAL (state 1.1)

 Number of N-1 electron functions:              18
 Number of N-2 electron functions:             171
 Number of singly external CSFs:              1852
 Number of doubly external CSFs:           2403256
 Total number of CSFs:                     2405109

 Length of J-op  integral file:               0.00 MB
 Length of K-op  integral file:               1.55 MB
 Length of 3-ext integral record:             0.00 MB

 Memory could be reduced to 56.93 Mwords without degradation in triples

 Integral transformation finished. Total CPU:   2.83 sec, npass=  1  Memory used:  23.60 MW

 Reference energy:                   -337.94375593

 MP2 singlet pair energy:              -0.62275607
 MP2 triplet pair energy:              -0.40616860
 MP2 correlation energy:               -1.02892467
 MP2 total energy:                   -338.97268060

 SCS-MP2 correlation energy:           -1.00003441   (PS=  1.200000  PT=  0.333333)
 SCS-MP2 total energy:               -338.94379035

 ITER.      SQ.NORM     CORR.ENERGY   TOTAL ENERGY   ENERGY CHANGE        DEN1      VAR(S)    VAR(P)  DIIS     TIME
   1      1.31936171    -1.05744640  -339.00120234    -0.02852173     0.00279241  0.10D-01  0.60D-02  1  1     9.21
   2      1.34487751    -1.05932981  -339.00308574    -0.00188340    -0.02595927  0.22D-03  0.11D-02  2  2    15.73
   3      1.35751726    -1.06022295  -339.00397889    -0.00089315    -0.00556442  0.22D-03  0.52D-04  3  3    22.25
   4      1.36273247    -1.05995865  -339.00371459     0.00026430    -0.00169574  0.22D-04  0.96D-05  4  4    28.77
   5      1.36488399    -1.05990108  -339.00365702     0.00005757    -0.00045061  0.27D-05  0.12D-05  5  5    35.30
   6      1.36540598    -1.05987242  -339.00362835     0.00002866    -0.00004982  0.27D-06  0.19D-06  6  6    41.83
   7      1.36553343    -1.05986011  -339.00361604     0.00001231    -0.00000190  0.35D-07  0.23D-07  6  1    48.39
   8      1.36557078    -1.05985891  -339.00361484     0.00000120    -0.00000701  0.75D-08  0.33D-08  6  2    54.92
   9      1.36557229    -1.05985908  -339.00361502    -0.00000017     0.00000267  0.13D-08  0.49D-09  6  3    61.44
  10      1.36557706    -1.05985854  -339.00361447     0.00000055    -0.00000110  0.32D-09  0.69D-10  6  4    67.98
  11      1.36557682    -1.05985879  -339.00361472    -0.00000025     0.00000046  0.59D-10  0.13D-10  6  5    74.50
  12      1.36557682    -1.05985876  -339.00361470     0.00000003     0.00000002  0.44D-11  0.35D-11  6  6    81.02
  13      1.36557654    -1.05985880  -339.00361474    -0.00000004     0.00000012  0.11D-11  0.38D-12  6  1    87.56
  14      1.36557644    -1.05985881  -339.00361475    -0.00000001     0.00000004  0.87D-13  0.73D-13  6  2    94.09
  15      1.36557642    -1.05985881  -339.00361475     0.00000000     0.00000001  0.21D-13  0.11D-13  6  3   100.62
  16      1.36557642    -1.05985881  -339.00361475    -0.00000000     0.00000000  0.45D-14  0.20D-14  6  4   107.16
  17      1.36557642    -1.05985881  -339.00361475     0.00000000    -0.00000000  0.72D-15  0.40D-15  6  5   113.70
  18      1.36557642    -1.05985881  -339.00361475     0.00000000    -0.00000000  0.22D-15  0.70D-16  6  6   120.21
  19      1.36557642    -1.05985881  -339.00361475    -0.00000000    -0.00000000  0.37D-16  0.17D-16  6  1   126.74
  20      1.36557643    -1.05985881  -339.00361475     0.00000000    -0.00000000  0.98D-17  0.40D-17  6  2   133.28
  21      1.36557643    -1.05985881  -339.00361475    -0.00000000     0.00000000  0.23D-17  0.82D-18  6  3   139.81
  22      1.36557643    -1.05985881  -339.00361475    -0.00000000     0.00000000  0.32D-18  0.20D-18  6  4   146.35
  23      1.36557643    -1.05985881  -339.00361475    -0.00000000     0.00000000  0.10D-18  0.41D-19  6  5   152.88
  24      1.36557643    -1.05985881  -339.00361475    -0.00000000     0.00000000  0.17D-19  0.93D-20  6  6   159.41
  25      1.36557643    -1.05985881  -339.00361475    -0.00000000    -0.00000000  0.46D-20  0.16D-20  6  3   165.93
  26      1.36557643    -1.05985881  -339.00361475    -0.00000000    -0.00000000  0.82D-21  0.23D-21  6  1   172.46

 Norm of t1 vector:      0.14831756      S-energy:     0.00000000      T1 diagnostic:  0.01747939
                                                                       D1 diagnostic:  0.05910822


 Total CPU time for triples:    158.88 sec


 RESULTS
 =======

  Reference energy                   -337.943755934140
  CCSD singlet pair energy             -0.699685021389
  CCSD triplet pair energy             -0.360173792072
  CCSD correlation energy              -1.059858813462

  Triples (T) contribution             -0.039945385032
  Total correlation energy             -1.099804198493

  CCSD total energy                  -339.003614747601
  CCSD[T] energy                     -339.046783949543
  CCSD-T energy                      -339.042436695922
 !CCSD(T) total energy               -339.043560132633

 Timing summary (sec):

 STEP                 CPU(USER)    SYS     CPU(TOT)    WALL
 Transformation          2.92      0.31      3.23      3.22
 CCSD iterations       169.54      4.60    174.14    174.22
 Triples               158.88      3.74    162.62    162.64

 Program statistics:

 Available memory in ccsd:               999998604
 Min. memory needed in ccsd:               6087664
 Max. memory used in ccsd:                 8297292
 Max. memory used in cckext:               8019339 (26 integral passes)



 **********************************************************************************************************************************
 DATASETS  * FILE   NREC   LENGTH (MB)   RECORD NAMES
              1      20      912.69       500      610      700      900      950      970     1000      129      960     1100   
                                          VAR    BASINP    GEOM    SYMINP    ZMAT    AOBASIS   BASIS     P2S    ABASIS      S 
                                         1400     1410     1200     1210     1080     1600     1650     1300     1700     1380   
                                           T        V       H0       H01     AOSYM     SMH    MOLCAS    ERIS     OPER     JKOP   

              2       3        0.91       700     1000     2100   
                                         GEOM     BASIS     RHF  

 PROGRAMS   *        TOTAL   CCSD(T)       RHF       INT
 CPU TIMES  *       354.03    331.34     15.58      7.07
 REAL TIME  *       366.59 SEC
 DISK USED  *         2.52 GB      
 GA USED    *         0.00 MB       (max)       0.00 MB       (current)
 **********************************************************************************************************************************

        CCSD(T)         RHF-SCF 
   -339.04356013   -337.94375593
 **********************************************************************************************************************************
 Variable memory released
