
 Primary working directories    : /tmp/1049502.956.gen4.q
 Secondary working directories  : /tmp/1049502.956.gen4.q
 Wavefunction directory         : /home/vulcan/jj04645/wfu/
 Main file repository           : /tmp/1049502.956.gen4.q/

 ARCHNAME  : Linux/x86_64
 FC        : /opt/intel/compilers_and_libraries_2016.1.150/linux/bin/intel64/ifort
 FCVERSION : 16.0.1
 BLASLIB   : -mkl
 id        : ccgc

 Nodes     nprocs
 n054         1
 ga_uses_ma=false, calling ma_init with nominal heap.
 GA-space will be limited to   8.0 MW (determined by -G option)

 Using customized tuning parameters: mindgm=10; mindgv=16; mindgc=4; mindgr=1; noblas=0; mincuda=1000; minvec=7
 default implementation of scratch files=df  

 ***,Optimization of neopentane
 memory,1000,m
 gthresh,energy=1.0d-12,orbital=1.0d-10,oneint=1.0d-16,twoint=1.0d-16,optgrad=1.0d-6,compress=1.0d-13
 geomtyp=xyz
 
 bohr
 geometry = {
  C    0.0000000000   -0.0000000000   -0.0009520630
  C    2.3654418322   -0.0004056643   -1.6735720477
  C   -0.0004056643   -2.3654418322    1.6716679217
  C    0.0004056643    2.3654418322    1.6716679217
  C   -2.3654418322    0.0004056643   -1.6735720477
  H    2.4091410789    1.6724507194   -2.8871625775
  H   -1.6732769219   -2.4085673228    2.8852584731
  H    1.6732769219    2.4085673228    2.8852584731
  H   -2.4091410789   -1.6724507194   -2.8871625775
  H    4.0875888347   -0.0007009514   -0.5174346060
  H   -0.0006999992   -4.0817180244    0.5194717470
  H    0.0006999992    4.0817180244    0.5194717470
  H   -4.0875888347    0.0007009514   -0.5174346060
  H    2.4084198038   -1.6675545632   -2.8830113523
  H    1.6724507031   -2.4091411024    2.8852584731
  H   -1.6724507031    2.4091411024    2.8852584731
  H   -2.4084198038    1.6675545632   -2.8830113523
 }
 
 basis=VDZ
 {rhf;maxit,200}
 {ccsd(t);maxit,200}

 Variables initialized (661), CPU time= 0.00 sec
 Commands  initialized (458), CPU time= 0.00 sec, 486 directives.
 Default parameters read. Elapsed time= 0.05 sec

 Checking input...
 Passed
1


                                         ***  PROGRAM SYSTEM MOLPRO  ***
                         Copyright, University College Cardiff Consultants Limited, 2008

                                    Version 2010.1 linked May 16 2016 07:17:05


 **********************************************************************************************************************************
 LABEL *   Optimization of neopentane                                                    
 Linux-4.4.3/n054(x86_64) 64 bit mpp version                                             DATE: 30-Mar-24          TIME: 22:54:52  
 **********************************************************************************************************************************

 SHA1:             9e8077add272b0f3cad6f7df79ec5211205f459d
 **********************************************************************************************************************************

 THRESHOLDS:

 ZERO    =  1.00D-12  ONEINT  =  1.00D-16  TWOINT  =  1.00D-16  PREFAC  =  1.00D-14  LOCALI  =  1.00D-09  EORDER  =  1.00D-04
 ENERGY  =  1.00D-12  ETEST   =  0.00D+00  EDENS   =  0.00D+00  THRDEDEF=  1.00D-06  GRADIENT=  1.00D-02  STEP    =  1.00D-03
 ORBITAL =  1.00D-10  CIVEC   =  1.00D-05  COEFF   =  1.00D-04  PRINTCI =  5.00D-02  PUNCHCI =  9.90D+01  OPTGRAD =  1.00D-06
 OPTENERG=  1.00D-06  OPTSTEP =  3.00D-04  THRGRAD =  1.00D-10  COMPRESS=  1.00D-13  VARMIN  =  1.00D-07  VARMAX  =  1.00D-03
 THRDOUB =  0.00D+00  THRDIV  =  1.00D-05  THRRED  =  1.00D-07  THRPSP  =  1.00D+00  THRDC   =  1.00D-10  THRCS   =  1.00D-10
 THRNRM  =  1.00D-08  THREQ   =  0.00D+00  THRDE   =  1.00D+00  THRREF  =  1.00D-05  SPARFAC =  1.00D+00  THRDLP  =  1.00D-07
 THRDIA  =  1.00D-10  THRDLS  =  1.00D-07  THRGPS  =  0.00D+00  THRKEX  =  0.00D+00  THRDIS  =  2.00D-01  THRVAR  =  1.00D-10
 THRLOC  =  1.00D-06  THRGAP  =  1.00D-06  THRLOCT = -1.00D+00  THRGAPT = -1.00D+00  THRORB  =  1.00D-06  THRMLTP =  0.00D+00
 THRCPQCI=  1.00D-10  KEXTA   =  0.00D+00  THRCOARS=  0.00D+00  SYMTOL  =  1.00D-06  GRADTOL =  1.00D-06  THROVL  =  1.00D-08
 THRORTH =  1.00D-08  GRID    =  1.00D-06  GRIDMAX =  1.00D-03  DTMAX   =  0.00D+00

 SETTING GEOMTYP        =    XYZ
 ZUNIT=BOHR
 

 Variable memory set to 1000000000 words,  buffer space   230000 words

 SETTING BASIS          =    VDZ


 Recomputing integrals since basis changed


 Using spherical harmonics

 Library entry C      S cc-pVDZ              selected for orbital group  1
 Library entry C      P cc-pVDZ              selected for orbital group  1
 Library entry C      D cc-pVDZ              selected for orbital group  1
 Library entry H      S cc-pVDZ              selected for orbital group  2
 Library entry H      P cc-pVDZ              selected for orbital group  2

1PROGRAM * SEWARD (Integral evaluation for generally contracted gaussian basis sets)     Author: Roland Lindh, 1990

 Geometry written to block  1 of record 700


 Point group  C2  



 ATOMIC COORDINATES

 NR  ATOM    CHARGE       X              Y              Z

   1  C       6.00    0.000000000    0.000000000   -0.000952063
   2  C       6.00    2.365441832   -0.000405664   -1.673572048
   3  C       6.00   -2.365441832    0.000405664   -1.673572048
   4  C       6.00   -0.000405664   -2.365441832    1.671667922
   5  C       6.00    0.000405664    2.365441832    1.671667922
   6  H       1.00    2.409141079    1.672450719   -2.887162577
   7  H       1.00   -2.409141079   -1.672450719   -2.887162577
   8  H       1.00   -1.673276922   -2.408567323    2.885258473
   9  H       1.00    1.673276922    2.408567323    2.885258473
  10  H       1.00    4.087588835   -0.000700951   -0.517434606
  11  H       1.00   -4.087588835    0.000700951   -0.517434606
  12  H       1.00   -0.000699999   -4.081718024    0.519471747
  13  H       1.00    0.000699999    4.081718024    0.519471747
  14  H       1.00    2.408419804   -1.667554563   -2.883011352
  15  H       1.00   -2.408419804    1.667554563   -2.883011352
  16  H       1.00    1.672450703   -2.409141102    2.885258473
  17  H       1.00   -1.672450703    2.409141102    2.885258473

 Bond lengths in Bohr (Angstrom)

 1-2  2.897062795  1-3  2.897062795  1-4  2.897062795  1-5  2.897062795  2-6  2.067162325
     ( 1.533059604)     ( 1.533059604)     ( 1.533059604)     ( 1.533059604)     ( 1.093895190)

  2-10  2.074233393   2-14  2.060091257   3- 7  2.067162325   3-11  2.074233393   3-15  2.060091257
       ( 1.097637038)       ( 1.090153342)       ( 1.093895190)       ( 1.097637038)       ( 1.090153342)

  4- 8  2.067162325   4-12  2.067162325   4-16  2.067162325   5- 9  2.067162325   5-13  2.067162325
       ( 1.093895190)       ( 1.093895190)       ( 1.093895190)       ( 1.093895190)       ( 1.093895190)

  5-17  2.067162325
       ( 1.093895190)

 Bond angles

  1- 2- 6  110.86076783   1- 2-10  110.86076906   1- 2-14  110.86076941   1- 3- 7  110.86076783

  1- 3-11  110.86076906   1- 3-15  110.86076941   1- 4- 8  110.86076877   1- 4-12  110.86076876

  1- 4-16  110.86076877   1- 5- 9  110.86076877   1- 5-13  110.86076876   1- 5-17  110.86076877

  2-1-3  109.47122063   2-1-4  109.47122064   2-1-5  109.47122064   3-1-4  109.47122064

  3- 1- 5  109.47122064   4- 1- 5  109.47122063   6- 2-10  108.04663751   6- 2-14  108.04663821

  7- 3-11  108.04663751   7- 3-15  108.04663821   8- 4-12  108.04663873   8- 4-16  108.04663877

  9- 5-13  108.04663873   9- 5-17  108.04663877  10- 2-14  108.04664052  11- 3-15  108.04664052

 12- 4-16  108.04663874  13- 5-17  108.04663874

 NUCLEAR CHARGE:                   42
 NUMBER OF PRIMITIVE AOS:         219
 NUMBER OF SYMMETRY AOS:          214
 NUMBER OF CONTRACTIONS:          130   (  66A   +  64B   )
 NUMBER OF CORE ORBITALS:           5   (   3A   +   2B   )
 NUMBER OF VALENCE ORBITALS:       32   (  16A   +  16B   )


 NUCLEAR REPULSION ENERGY  198.59919007


 Eigenvalues of metric

         1 0.280E-02 0.503E-02 0.171E-01 0.189E-01 0.236E-01 0.319E-01 0.336E-01 0.338E-01
         2 0.504E-02 0.504E-02 0.189E-01 0.189E-01 0.237E-01 0.237E-01 0.319E-01 0.319E-01


 Contracted 2-electron integrals neglected if value below      1.0D-16
 AO integral compression algorithm  1   Integral accuracy      1.0D-16

     163.840 MB (compressed) written to integral file ( 97.0%)

     Node minimum: 163.840 MB, node maximum: 163.840 MB


 NUMBER OF SORTED TWO-ELECTRON INTEGRALS:   18406246.     BUFFER LENGTH:  32768
 NUMBER OF SEGMENTS:   2  SEGMENT LENGTH:   15998467      RECORD LENGTH: 524288

 Memory used in sort:      16.56 MW

 SORT1 READ    21105840. AND WROTE    18330081. INTEGRALS IN     53 RECORDS. CPU TIME:     0.25 SEC, REAL TIME:     0.37 SEC
 SORT2 READ    18330081. AND WROTE    18406246. INTEGRALS IN    625 RECORDS. CPU TIME:     0.22 SEC, REAL TIME:     0.30 SEC

 FILE SIZES:   FILE 1:   148.2 MBYTE,  FILE 4:   222.3 MBYTE,   TOTAL:    370.5 MBYTE

 OPERATOR DM      FOR CENTER  0  COORDINATES:    0.000000    0.000000    0.000000


 **********************************************************************************************************************************
 DATASETS  * FILE   NREC   LENGTH (MB)   RECORD NAMES
              1      19      148.31       500      610      700      900      950      970     1000      129      960     1100   
                                          VAR    BASINP    GEOM    SYMINP    ZMAT    AOBASIS   BASIS     P2S    ABASIS      S 
                                         1400     1410     1200     1210     1080     1600     1650     1300     1700   
                                           T        V       H0       H01     AOSYM     SMH    MOLCAS    ERIS     OPER   

 PROGRAMS   *        TOTAL       INT
 CPU TIMES  *         3.24      3.20
 REAL TIME  *         3.70 SEC
 DISK USED  *       535.41 MB      
 GA USED    *         0.00 MB       (max)       0.00 MB       (current)
 **********************************************************************************************************************************

1PROGRAM * RHF-SCF (CLOSED SHELL)       Authors: W. Meyer, H.-J. Werner


 NUMBER OF ELECTRONS:      21+   21-
 CONVERGENCE THRESHOLDS:    1.00E-10 (Density)    1.00E-13 (Energy)
 MAX. NUMBER OF ITERATIONS:      200
 INTERPOLATION TYPE:            DIIS
 INTERPOLATION STEPS:              2 (START)      1 (STEP)
 LEVEL SHIFTS:                  0.00 (CLOSED)  0.00 (OPEN) 



 Orbital guess generated from atomic densities. Full valence occupancy:   19  18

 Molecular orbital dump at record        2100.2

 Initial alpha occupancy:  11  10
 Initial beta  occupancy:  11  10
 Wave function symmetry:    1

 ITERATION    DDIFF          GRAD             ENERGY        2-EL.EN.            DIPOLE MOMENTS         DIIS
    1      0.000D+00      0.000D+00      -196.27086861    527.677311    0.00000    0.00000    0.00317    0
    2      0.000D+00      0.657D-02      -196.33872903    521.943715    0.00000    0.00000   -0.00318    1
    3      0.131D-01      0.249D-02      -196.34651971    524.513836    0.00000    0.00000   -0.00231    2
    4      0.488D-02      0.804D-03      -196.34766649    523.812502    0.00000    0.00000   -0.00293    3
    5      0.161D-02      0.166D-03      -196.34770107    523.879016    0.00000    0.00000   -0.00297    4
    6      0.279D-03      0.335D-04      -196.34770275    523.875257    0.00000    0.00000   -0.00298    5
    7      0.929D-04      0.319D-05      -196.34770277    523.875023    0.00000    0.00000   -0.00298    6
    8      0.964D-05      0.688D-06      -196.34770277    523.874981    0.00000    0.00000   -0.00298    6
    9      0.193D-05      0.991D-07      -196.34770277    523.874973    0.00000    0.00000   -0.00298    5
   10      0.343D-06      0.134D-07      -196.34770277    523.874982    0.00000    0.00000   -0.00298    5
   11      0.447D-07      0.413D-08      -196.34770277    523.874978    0.00000    0.00000   -0.00298    5
   12      0.853D-08      0.149D-08      -196.34770277    523.874979    0.00000    0.00000   -0.00298    6
   13      0.309D-08      0.128D-09      -196.34770277    523.874979    0.00000    0.00000   -0.00298    6
   14      0.289D-09      0.382D-10      -196.34770277    523.874979    0.00000    0.00000   -0.00298    6
   15      0.106D-09      0.120D-10      -196.34770277    523.874979    0.00000    0.00000   -0.00298    6
   16      0.382D-10      0.317D-11      -196.34770277    523.874979    0.00000    0.00000   -0.00298    7
   17      0.708D-11      0.919D-12      -196.34770277    523.874979    0.00000    0.00000   -0.00298    7
   18      0.244D-11      0.190D-12      -196.34770277    523.874979    0.00000    0.00000   -0.00298    6
   19      0.627D-12      0.491D-13      -196.34770277    523.874979    0.00000    0.00000   -0.00298    0

 Final occupancy:  11  10

 !RHF STATE 1.1 Energy               -196.347702771953
 Nuclear energy                       198.59919007
 One-electron energy                 -656.88438239
 Two-electron energy                  261.93748954
 Virial quotient                       -1.00118077
 !RHF STATE 1.1 Dipole moment           0.00000000     0.00000000    -0.00298134
 Dipole moment /Debye                   0.00000000     0.00000000    -0.00757731

 Orbital energies:

         1.1          2.1          3.1          4.1          5.1          6.1          7.1          8.1          9.1         10.1
    -11.230715   -11.214126   -11.214033    -1.103748    -0.927666    -0.728616    -0.608584    -0.550843    -0.550131    -0.508119

        11.1         12.1         13.1
     -0.450373     0.170675     0.231225

         1.2          2.2          3.2          4.2          5.2          6.2          7.2          8.2          9.2         10.2
    -11.214144   -11.214064    -0.927568    -0.927458    -0.609580    -0.609066    -0.507985    -0.507261    -0.450427    -0.450197

        11.2         12.2
      0.231106     0.231262


 **********************************************************************************************************************************
 DATASETS  * FILE   NREC   LENGTH (MB)   RECORD NAMES
              1      19      148.31       500      610      700      900      950      970     1000      129      960     1100   
                                          VAR    BASINP    GEOM    SYMINP    ZMAT    AOBASIS   BASIS     P2S    ABASIS      S 
                                         1400     1410     1200     1210     1080     1600     1650     1300     1700   
                                           T        V       H0       H01     AOSYM     SMH    MOLCAS    ERIS     OPER   

              2       3        0.72       700     1000     2100   
                                         GEOM     BASIS     RHF  

 PROGRAMS   *        TOTAL       RHF       INT
 CPU TIMES  *         4.99      1.75      3.20
 REAL TIME  *         5.77 SEC
 DISK USED  *       535.41 MB      
 GA USED    *         0.00 MB       (max)       0.00 MB       (current)
 **********************************************************************************************************************************


1PROGRAM * CCSD (Closed-shell coupled cluster)     Authors: C. Hampel, H.-J. Werner, 1991, M. Deegan, P.J. Knowles, 1992


 Convergence thresholds:  THRVAR = 1.00D-08  THRDEN = 1.00D-12

 CCSD(T)     terms to be evaluated (factor= 1.000)


 Number of core orbitals:           5 (   3   2 )
 Number of closed-shell orbitals:  16 (   8   8 )
 Number of external orbitals:     109 (  55  54 )

 Molecular orbitals read from record     2100.2  Type=RHF/CANONICAL (state 1.1)

 Number of N-1 electron functions:              16
 Number of N-2 electron functions:             136
 Number of singly external CSFs:               872
 Number of doubly external CSFs:            761256
 Total number of CSFs:                      762129

 Length of J-op  integral file:               0.00 MB
 Length of K-op  integral file:               0.62 MB
 Length of 3-ext integral record:             0.00 MB

 Memory could be reduced to 14.22 Mwords without degradation in triples

 Integral transformation finished. Total CPU:   0.79 sec, npass=  1  Memory used:   8.40 MW

 Reference energy:                   -196.34770277

 MP2 singlet pair energy:              -0.48845228
 MP2 triplet pair energy:              -0.25007683
 MP2 correlation energy:               -0.73852911
 MP2 total energy:                   -197.08623188

 SCS-MP2 correlation energy:           -0.74174609   (PS=  1.200000  PT=  0.333333)
 SCS-MP2 total energy:               -197.08944887

 ITER.      SQ.NORM     CORR.ENERGY   TOTAL ENERGY   ENERGY CHANGE        DEN1      VAR(S)    VAR(P)  DIIS     TIME
   1      1.28821639    -0.80655467  -197.15425744    -0.06802556    -0.04667787  0.17D-02  0.47D-02  1  1     2.02
   2      1.31151985    -0.81148842  -197.15919119    -0.00493375    -0.02352879  0.47D-04  0.32D-03  2  2     3.33
   3      1.31554503    -0.81163780  -197.15934057    -0.00014938    -0.00244874  0.53D-05  0.22D-04  3  3     4.64
   4      1.31658484    -0.81170023  -197.15940300    -0.00006244    -0.00046055  0.25D-06  0.12D-05  4  4     5.95
   5      1.31670982    -0.81170478  -197.15940756    -0.00000455    -0.00005023  0.15D-07  0.93D-07  5  5     7.27
   6      1.31672274    -0.81170232  -197.15940509     0.00000246    -0.00000881  0.68D-09  0.61D-08  6  6     8.59
   7      1.31672132    -0.81170260  -197.15940538    -0.00000028     0.00000065  0.16D-09  0.52D-09  6  1     9.91
   8      1.31672106    -0.81170275  -197.15940552    -0.00000015     0.00000025  0.78D-11  0.30D-10  6  2    11.22
   9      1.31672077    -0.81170280  -197.15940557    -0.00000005     0.00000025  0.11D-11  0.25D-11  6  3    12.55
  10      1.31672066    -0.81170280  -197.15940558    -0.00000001     0.00000009  0.89D-13  0.22D-12  6  4    13.87
  11      1.31672060    -0.81170281  -197.15940558    -0.00000000     0.00000004  0.94D-14  0.24D-13  6  5    15.19
  12      1.31672057    -0.81170281  -197.15940558    -0.00000000     0.00000002  0.89D-15  0.12D-14  6  1    16.51
  13      1.31672056    -0.81170281  -197.15940558    -0.00000000     0.00000000  0.79D-16  0.70D-16  6  6    17.82
  14      1.31672056    -0.81170281  -197.15940558    -0.00000000     0.00000000  0.15D-16  0.96D-17  6  2    19.14
  15      1.31672056    -0.81170281  -197.15940558    -0.00000000     0.00000000  0.13D-17  0.11D-17  6  3    20.46
  16      1.31672056    -0.81170281  -197.15940558     0.00000000    -0.00000000  0.70D-19  0.92D-19  6  4    21.78
  17      1.31672056    -0.81170281  -197.15940558     0.00000000    -0.00000000  0.34D-20  0.85D-20  6  5    23.09
  18      1.31672056    -0.81170281  -197.15940558     0.00000000    -0.00000000  0.38D-21  0.12D-20  6  1    24.41
  19      1.31672056    -0.81170281  -197.15940558     0.00000000    -0.00000000  0.30D-22  0.16D-21  6  6    25.73

 Norm of t1 vector:      0.05469895      S-energy:    -0.00000000      T1 diagnostic:  0.00683737
                                                                       D1 diagnostic:  0.01261420


 Total CPU time for triples:     26.47 sec


 RESULTS
 =======

  Reference energy                   -196.347702771953
  CCSD singlet pair energy             -0.577587321254
  CCSD triplet pair energy             -0.234115488383
  CCSD correlation energy              -0.811702809638

  Triples (T) contribution             -0.023942348836
  Total correlation energy             -0.835645158473

  CCSD total energy                  -197.159405581591
  CCSD[T] energy                     -197.183807279742
  CCSD-T energy                      -197.183099267276
 !CCSD(T) total energy               -197.183347930426

 Timing summary (sec):

 STEP                 CPU(USER)    SYS     CPU(TOT)    WALL
 Transformation          0.82      0.10      0.92      0.92
 CCSD iterations        24.91      1.00     25.91     25.94
 Triples                26.47      0.84     27.31     27.31

 Program statistics:

 Available memory in ccsd:               999998876
 Min. memory needed in ccsd:               2001507
 Max. memory used in ccsd:                 2680419
 Max. memory used in cckext:               2701130 (19 integral passes)



 **********************************************************************************************************************************
 DATASETS  * FILE   NREC   LENGTH (MB)   RECORD NAMES
              1      20      204.66       500      610      700      900      950      970     1000      129      960     1100   
                                          VAR    BASINP    GEOM    SYMINP    ZMAT    AOBASIS   BASIS     P2S    ABASIS      S 
                                         1400     1410     1200     1210     1080     1600     1650     1300     1700     1380   
                                           T        V       H0       H01     AOSYM     SMH    MOLCAS    ERIS     OPER     JKOP   

              2       3        0.72       700     1000     2100   
                                         GEOM     BASIS     RHF  

 PROGRAMS   *        TOTAL   CCSD(T)       RHF       INT
 CPU TIMES  *        57.21     52.21      1.75      3.20
 REAL TIME  *        59.98 SEC
 DISK USED  *       535.41 MB      
 GA USED    *         0.00 MB       (max)       0.00 MB       (current)
 **********************************************************************************************************************************

        CCSD(T)         RHF-SCF 
   -197.18334793   -196.34770277
 **********************************************************************************************************************************
 Variable memory released
