
 Primary working directories    : /tmp/1049502.148.gen4.q
 Secondary working directories  : /tmp/1049502.148.gen4.q
 Wavefunction directory         : /home/vulcan/jj04645/wfu/
 Main file repository           : /tmp/1049502.148.gen4.q/

 ARCHNAME  : Linux/x86_64
 FC        : /opt/intel/compilers_and_libraries_2016.1.150/linux/bin/intel64/ifort
 FCVERSION : 16.0.1
 BLASLIB   : -mkl
 id        : ccgc

 Nodes     nprocs
 n054         1
 ga_uses_ma=false, calling ma_init with nominal heap.
 GA-space will be limited to   8.0 MW (determined by -G option)

 Using customized tuning parameters: mindgm=10; mindgv=16; mindgc=4; mindgr=1; noblas=0; mincuda=1000; minvec=7
 default implementation of scratch files=df  

 ***,Optimization of neopentane
 memory,1000,m
 gthresh,energy=1.0d-12,orbital=1.0d-10,oneint=1.0d-16,twoint=1.0d-16,optgrad=1.0d-6,compress=1.0d-13
 geomtyp=xyz
 
 bohr
 geometry = {
  C   -0.0019211684    0.0019211684   -0.0000000000
  C    2.3676031815    0.0019211684   -1.6755067360
  C   -0.0019211684   -2.3676031815    1.6755067360
  C   -0.0019211684    2.3632805525    1.6697332334
  C   -2.3632805525    0.0019211684   -1.6697332334
  H    2.4095122117    1.6732809309   -2.8912206237
  H   -1.6732809309   -2.4095122117    2.8912206237
  H    1.6694385941    2.4051895828    2.8854471210
  H   -2.4051895828   -1.6694385941   -2.8854471210
  H    4.0879410039    0.0004106413   -0.5293847639
  H   -0.0004106413   -4.0879410039    0.5293847639
  H   -0.0034316956    4.0836183750    0.5236112612
  H   -4.0836183750    0.0034316956   -0.5236112612
  H    2.4039392523   -1.6724388067   -2.8872651456
  H    1.6724388067   -2.4039392523    2.8872651456
  H   -1.6762811435    2.3996166233    2.8814916429
  H   -2.3996166233    1.6762811435   -2.8814916429
 }
 
 basis=VDZ
 {rhf;maxit,200}
 {ccsd(t);maxit,200}

 Variables initialized (661), CPU time= 0.01 sec
 Commands  initialized (458), CPU time= 0.00 sec, 486 directives.
 Default parameters read. Elapsed time= 0.05 sec

 Checking input...
 Passed
1


                                         ***  PROGRAM SYSTEM MOLPRO  ***
                         Copyright, University College Cardiff Consultants Limited, 2008

                                    Version 2010.1 linked May 16 2016 07:17:05


 **********************************************************************************************************************************
 LABEL *   Optimization of neopentane                                                    
 Linux-4.4.3/n054(x86_64) 64 bit mpp version                                             DATE: 30-Mar-24          TIME: 18:53:52  
 **********************************************************************************************************************************

 SHA1:             9e8077add272b0f3cad6f7df79ec5211205f459d
 **********************************************************************************************************************************

 THRESHOLDS:

 ZERO    =  1.00D-12  ONEINT  =  1.00D-16  TWOINT  =  1.00D-16  PREFAC  =  1.00D-14  LOCALI  =  1.00D-09  EORDER  =  1.00D-04
 ENERGY  =  1.00D-12  ETEST   =  0.00D+00  EDENS   =  0.00D+00  THRDEDEF=  1.00D-06  GRADIENT=  1.00D-02  STEP    =  1.00D-03
 ORBITAL =  1.00D-10  CIVEC   =  1.00D-05  COEFF   =  1.00D-04  PRINTCI =  5.00D-02  PUNCHCI =  9.90D+01  OPTGRAD =  1.00D-06
 OPTENERG=  1.00D-06  OPTSTEP =  3.00D-04  THRGRAD =  1.00D-10  COMPRESS=  1.00D-13  VARMIN  =  1.00D-07  VARMAX  =  1.00D-03
 THRDOUB =  0.00D+00  THRDIV  =  1.00D-05  THRRED  =  1.00D-07  THRPSP  =  1.00D+00  THRDC   =  1.00D-10  THRCS   =  1.00D-10
 THRNRM  =  1.00D-08  THREQ   =  0.00D+00  THRDE   =  1.00D+00  THRREF  =  1.00D-05  SPARFAC =  1.00D+00  THRDLP  =  1.00D-07
 THRDIA  =  1.00D-10  THRDLS  =  1.00D-07  THRGPS  =  0.00D+00  THRKEX  =  0.00D+00  THRDIS  =  2.00D-01  THRVAR  =  1.00D-10
 THRLOC  =  1.00D-06  THRGAP  =  1.00D-06  THRLOCT = -1.00D+00  THRGAPT = -1.00D+00  THRORB  =  1.00D-06  THRMLTP =  0.00D+00
 THRCPQCI=  1.00D-10  KEXTA   =  0.00D+00  THRCOARS=  0.00D+00  SYMTOL  =  1.00D-06  GRADTOL =  1.00D-06  THROVL  =  1.00D-08
 THRORTH =  1.00D-08  GRID    =  1.00D-06  GRIDMAX =  1.00D-03  DTMAX   =  0.00D+00

 SETTING GEOMTYP        =    XYZ
 ZUNIT=BOHR
 

 Variable memory set to 1000000000 words,  buffer space   230000 words

 SETTING BASIS          =    VDZ


 Recomputing integrals since basis changed


 Using spherical harmonics

 Library entry C      S cc-pVDZ              selected for orbital group  1
 Library entry C      P cc-pVDZ              selected for orbital group  1
 Library entry C      D cc-pVDZ              selected for orbital group  1
 Library entry H      S cc-pVDZ              selected for orbital group  2
 Library entry H      P cc-pVDZ              selected for orbital group  2

1PROGRAM * SEWARD (Integral evaluation for generally contracted gaussian basis sets)     Author: Roland Lindh, 1990

 Geometry written to block  1 of record 700


 Point group  C1  



 ATOMIC COORDINATES

 NR  ATOM    CHARGE       X              Y              Z

   1  C       6.00   -0.001921168    0.001921168    0.000000000
   2  C       6.00    2.367603181    0.001921168   -1.675506736
   3  C       6.00   -0.001921168   -2.367603181    1.675506736
   4  C       6.00   -0.001921168    2.363280553    1.669733233
   5  C       6.00   -2.363280553    0.001921168   -1.669733233
   6  H       1.00    2.409512212    1.673280931   -2.891220624
   7  H       1.00   -1.673280931   -2.409512212    2.891220624
   8  H       1.00    1.669438594    2.405189583    2.885447121
   9  H       1.00   -2.405189583   -1.669438594   -2.885447121
  10  H       1.00    4.087941004    0.000410641   -0.529384764
  11  H       1.00   -0.000410641   -4.087941004    0.529384764
  12  H       1.00   -0.003431696    4.083618375    0.523611261
  13  H       1.00   -4.083618375    0.003431696   -0.523611261
  14  H       1.00    2.403939252   -1.672438807   -2.887265146
  15  H       1.00    1.672438807   -2.403939252    2.887265146
  16  H       1.00   -1.676281144    2.399616623    2.881491643
  17  H       1.00   -2.399616623    1.676281144   -2.881491643

 Bond lengths in Bohr (Angstrom)

 1-2  2.902062795  1-3  2.902062795  1-4  2.892062795  1-5  2.892062795  2-6  2.067162325
     ( 1.535705490)     ( 1.535705490)     ( 1.530413718)     ( 1.530413718)     ( 1.093895190)

  2-10  2.067162325   2-14  2.067162325   3- 7  2.067162325   3-11  2.067162325   3-15  2.067162325
       ( 1.093895190)       ( 1.093895190)       ( 1.093895190)       ( 1.093895190)       ( 1.093895190)

  4- 8  2.067162325   4-12  2.067162326   4-16  2.067162325   5- 9  2.067162325   5-13  2.067162326
       ( 1.093895190)       ( 1.093895190)       ( 1.093895190)       ( 1.093895190)       ( 1.093895190)

  5-17  2.067162325
       ( 1.093895190)

 Bond angles

  1- 2- 6  110.86072214   1- 2-10  111.06329258   1- 2-14  110.65815180   1- 3- 7  110.86072214

  1- 3-11  111.06329258   1- 3-15  110.65815180   1- 4- 8  110.86072214   1- 4-12  111.06329258

  1- 4-16  110.65815180   1- 5- 9  110.86072214   1- 5-13  111.06329258   1- 5-17  110.65815180

  2-1-3  109.47122063   2-1-4  109.47122064   2-1-5  109.47122063   3-1-4  109.47122063

  3- 1- 5  109.47122064   4- 1- 5  109.47122064   6- 2-10  108.04659063   6- 2-14  108.04659361

  7- 3-11  108.04659063   7- 3-15  108.04659361   8- 4-12  108.04659063   8- 4-16  108.04659361

  9- 5-13  108.04659063   9- 5-17  108.04659361  10- 2-14  108.04659221  11- 3-15  108.04659221

 12- 4-16  108.04659221  13- 5-17  108.04659221

 NUCLEAR CHARGE:                   42
 NUMBER OF PRIMITIVE AOS:         219
 NUMBER OF SYMMETRY AOS:          214
 NUMBER OF CONTRACTIONS:          130   ( 130A   )
 NUMBER OF CORE ORBITALS:           5   (   5A   )
 NUMBER OF VALENCE ORBITALS:       32   (  32A   )


 NUCLEAR REPULSION ENERGY  198.59935993


 Eigenvalues of metric

         1 0.280E-02 0.501E-02 0.504E-02 0.506E-02 0.171E-01 0.189E-01 0.189E-01 0.190E-01


 Contracted 2-electron integrals neglected if value below      1.0D-16
 AO integral compression algorithm  1   Integral accuracy      1.0D-16

     299.106 MB (compressed) written to integral file ( 95.9%)

     Node minimum: 299.106 MB, node maximum: 299.106 MB


 NUMBER OF SORTED TWO-ELECTRON INTEGRALS:   36256870.     BUFFER LENGTH:  32768
 NUMBER OF SEGMENTS:   3  SEGMENT LENGTH:   15998004      RECORD LENGTH: 524288

 Memory used in sort:      16.56 MW

 SORT1 READ    38983860. AND WROTE    35811374. INTEGRALS IN    104 RECORDS. CPU TIME:     0.37 SEC, REAL TIME:     0.59 SEC
 SORT2 READ    35811374. AND WROTE    36256870. INTEGRALS IN   1141 RECORDS. CPU TIME:     0.28 SEC, REAL TIME:     0.44 SEC

 FILE SIZES:   FILE 1:   280.4 MBYTE,  FILE 4:   436.2 MBYTE,   TOTAL:    716.7 MBYTE

 OPERATOR DM      FOR CENTER  0  COORDINATES:    0.000000    0.000000    0.000000


 **********************************************************************************************************************************
 DATASETS  * FILE   NREC   LENGTH (MB)   RECORD NAMES
              1      19      280.64       500      610      700      900      950      970     1000      129      960     1100   
                                          VAR    BASINP    GEOM    SYMINP    ZMAT    AOBASIS   BASIS     P2S    ABASIS      S 
                                         1400     1410     1200     1210     1080     1600     1650     1300     1700   
                                           T        V       H0       H01     AOSYM     SMH    MOLCAS    ERIS     OPER   

 PROGRAMS   *        TOTAL       INT
 CPU TIMES  *         4.19      4.15
 REAL TIME  *         4.92 SEC
 DISK USED  *         1.02 GB      
 GA USED    *         0.01 MB       (max)       0.00 MB       (current)
 **********************************************************************************************************************************

1PROGRAM * RHF-SCF (CLOSED SHELL)       Authors: W. Meyer, H.-J. Werner


 NUMBER OF ELECTRONS:      21+   21-    SPACE SYMMETRY=1    SPIN SYMMETRY: Singlet 
 CONVERGENCE THRESHOLDS:    1.00E-10 (Density)    1.00E-13 (Energy)
 MAX. NUMBER OF ITERATIONS:      200
 INTERPOLATION TYPE:            DIIS
 INTERPOLATION STEPS:              2 (START)      1 (STEP)
 LEVEL SHIFTS:                  0.00 (CLOSED)  0.00 (OPEN) 



 Orbital guess generated from atomic densities. Full valence occupancy:   37

 Molecular orbital dump at record        2100.2

 ITERATION    DDIFF          GRAD             ENERGY        2-EL.EN.            DIPOLE MOMENTS         DIIS
    1      0.000D+00      0.000D+00      -196.27088227    527.677654   -0.00105    0.00105   -0.00000    0
    2      0.000D+00      0.467D-02      -196.33874092    521.944099   -0.00034    0.00034   -0.00000    1
    3      0.930D-02      0.177D-02      -196.34653146    524.514252   -0.00001    0.00001   -0.00000    2
    4      0.346D-02      0.571D-03      -196.34767824    523.812916   -0.00018    0.00018    0.00000    3
    5      0.114D-02      0.118D-03      -196.34771283    523.879424   -0.00014    0.00014   -0.00000    4
    6      0.198D-03      0.238D-04      -196.34771450    523.875668   -0.00016    0.00016   -0.00000    5
    7      0.659D-04      0.226D-05      -196.34771453    523.875433   -0.00016    0.00016    0.00000    6
    8      0.684D-05      0.489D-06      -196.34771453    523.875392   -0.00016    0.00016   -0.00000    6
    9      0.138D-05      0.732D-07      -196.34771453    523.875384   -0.00016    0.00016   -0.00000    5
   10      0.243D-06      0.158D-07      -196.34771453    523.875391   -0.00016    0.00016    0.00000    5
   11      0.392D-07      0.501D-08      -196.34771453    523.875389   -0.00016    0.00016   -0.00000    6
   12      0.106D-07      0.524D-09      -196.34771453    523.875390   -0.00016    0.00016   -0.00000    6
   13      0.137D-08      0.141D-09      -196.34771453    523.875389   -0.00016    0.00016   -0.00000    6
   14      0.331D-09      0.262D-10      -196.34771453    523.875389   -0.00016    0.00016    0.00000    6
   15      0.687D-10      0.505D-11      -196.34771453    523.875389   -0.00016    0.00016    0.00000    0

 Final occupancy:  21

 !RHF STATE 1.1 Energy               -196.347714529653
 Nuclear energy                       198.59935993
 One-electron energy                 -656.88476920
 Two-electron energy                  261.93769474
 Virial quotient                       -1.00118095
 !RHF STATE 1.1 Dipole moment          -0.00015719     0.00015719     0.00000000
 Dipole moment /Debye                  -0.00039951     0.00039951     0.00000000

 Orbital energies:

         1.1          2.1          3.1          4.1          5.1          6.1          7.1          8.1          9.1         10.1
    -11.230716   -11.214275   -11.214253   -11.213931   -11.213905    -1.103756    -0.927774    -0.927560    -0.927349    -0.728612

        11.1         12.1         13.1         14.1         15.1         16.1         17.1         18.1         19.1         20.1
     -0.609341    -0.609079    -0.608813    -0.550569    -0.550401    -0.507935    -0.507790    -0.507644    -0.451161    -0.450327

        21.1         22.1         23.1
     -0.449500     0.170677     0.231142


 **********************************************************************************************************************************
 DATASETS  * FILE   NREC   LENGTH (MB)   RECORD NAMES
              1      19      280.64       500      610      700      900      950      970     1000      129      960     1100   
                                          VAR    BASINP    GEOM    SYMINP    ZMAT    AOBASIS   BASIS     P2S    ABASIS      S 
                                         1400     1410     1200     1210     1080     1600     1650     1300     1700   
                                           T        V       H0       H01     AOSYM     SMH    MOLCAS    ERIS     OPER   

              2       3        0.89       700     1000     2100   
                                         GEOM     BASIS     RHF  

 PROGRAMS   *        TOTAL       RHF       INT
 CPU TIMES  *         8.34      4.15      4.15
 REAL TIME  *         9.59 SEC
 DISK USED  *         1.02 GB      
 GA USED    *         0.01 MB       (max)       0.00 MB       (current)
 **********************************************************************************************************************************


1PROGRAM * CCSD (Closed-shell coupled cluster)     Authors: C. Hampel, H.-J. Werner, 1991, M. Deegan, P.J. Knowles, 1992


 Convergence thresholds:  THRVAR = 1.00D-08  THRDEN = 1.00D-12

 CCSD(T)     terms to be evaluated (factor= 1.000)


 Number of core orbitals:           5 (   5 )
 Number of closed-shell orbitals:  16 (  16 )
 Number of external orbitals:     109 ( 109 )

 Molecular orbitals read from record     2100.2  Type=RHF/CANONICAL (state 1.1)

 Number of N-1 electron functions:              16
 Number of N-2 electron functions:             136
 Number of singly external CSFs:              1744
 Number of doubly external CSFs:           1521640
 Total number of CSFs:                     1523385

 Length of J-op  integral file:               0.00 MB
 Length of K-op  integral file:               1.20 MB
 Length of 3-ext integral record:             0.00 MB

 Memory could be reduced to 28.13 Mwords without degradation in triples

 Integral transformation finished. Total CPU:   1.89 sec, npass=  1  Memory used:  22.98 MW

 Reference energy:                   -196.34771453

 MP2 singlet pair energy:              -0.48845311
 MP2 triplet pair energy:              -0.25007823
 MP2 correlation energy:               -0.73853134
 MP2 total energy:                   -197.08624587

 SCS-MP2 correlation energy:           -0.74174796   (PS=  1.200000  PT=  0.333333)
 SCS-MP2 total energy:               -197.08946249

 ITER.      SQ.NORM     CORR.ENERGY   TOTAL ENERGY   ENERGY CHANGE        DEN1      VAR(S)    VAR(P)  DIIS     TIME
   1      1.28821666    -0.80655629  -197.15427082    -0.06802495    -0.04667730  0.17D-02  0.47D-02  1  1     6.93
   2      1.31152438    -0.81148986  -197.15920439    -0.00493357    -0.02353305  0.47D-04  0.32D-03  2  2    12.04
   3      1.31554197    -0.81163945  -197.15935398    -0.00014958    -0.00244219  0.53D-05  0.22D-04  3  3    17.15
   4      1.31658441    -0.81170184  -197.15941637    -0.00006239    -0.00046224  0.25D-06  0.12D-05  4  4    22.29
   5      1.31671012    -0.81170627  -197.15942080    -0.00000443    -0.00005100  0.15D-07  0.93D-07  5  5    27.41
   6      1.31672266    -0.81170383  -197.15941836     0.00000243    -0.00000853  0.68D-09  0.61D-08  6  6    32.55
   7      1.31672119    -0.81170412  -197.15941864    -0.00000028     0.00000066  0.16D-09  0.52D-09  6  1    37.68
   8      1.31672090    -0.81170426  -197.15941879    -0.00000015     0.00000027  0.78D-11  0.30D-10  6  2    42.80
   9      1.31672061    -0.81170431  -197.15941884    -0.00000005     0.00000025  0.11D-11  0.25D-11  6  3    47.91
  10      1.31672051    -0.81170432  -197.15941885    -0.00000001     0.00000009  0.90D-13  0.22D-12  6  4    53.04
  11      1.31672044    -0.81170432  -197.15941885    -0.00000000     0.00000004  0.96D-14  0.24D-13  6  5    58.17
  12      1.31672041    -0.81170432  -197.15941885    -0.00000000     0.00000002  0.91D-15  0.12D-14  6  1    63.28
  13      1.31672041    -0.81170432  -197.15941885    -0.00000000     0.00000000  0.82D-16  0.70D-16  6  6    68.40
  14      1.31672040    -0.81170432  -197.15941885    -0.00000000     0.00000000  0.16D-16  0.98D-17  6  2    73.53
  15      1.31672040    -0.81170432  -197.15941885    -0.00000000     0.00000000  0.14D-17  0.11D-17  6  3    78.65
  16      1.31672040    -0.81170432  -197.15941885     0.00000000    -0.00000000  0.80D-19  0.96D-19  6  4    83.78
  17      1.31672040    -0.81170432  -197.15941885     0.00000000    -0.00000000  0.52D-20  0.92D-20  6  5    88.90
  18      1.31672040    -0.81170432  -197.15941885     0.00000000    -0.00000000  0.78D-21  0.14D-20  6  1    94.03
  19      1.31672040    -0.81170432  -197.15941885     0.00000000    -0.00000000  0.94D-22  0.18D-21  6  6    99.15

 Norm of t1 vector:      0.05469796      S-energy:    -0.00000000      T1 diagnostic:  0.00683724
                                                                       D1 diagnostic:  0.01261149


 Total CPU time for triples:     80.91 sec


 RESULTS
 =======

  Reference energy                   -196.347714529654
  CCSD singlet pair energy             -0.577587825153
  CCSD triplet pair energy             -0.234116497038
  CCSD correlation energy              -0.811704322192

  Triples (T) contribution             -0.023942541254
  Total correlation energy             -0.835646863447

  CCSD total energy                  -197.159418851846
  CCSD[T] energy                     -197.183820739844
  CCSD-T energy                      -197.183112728179
 !CCSD(T) total energy               -197.183361393100

 Timing summary (sec):

 STEP                 CPU(USER)    SYS     CPU(TOT)    WALL
 Transformation          1.96      0.17      2.13      2.15
 CCSD iterations        97.20      2.13     99.33     99.40
 Triples                80.91      1.57     82.48     82.49

 Program statistics:

 Available memory in ccsd:               999998876
 Min. memory needed in ccsd:               3966807
 Max. memory used in ccsd:                 5311887
 Max. memory used in cckext:               4858018 (19 integral passes)



 **********************************************************************************************************************************
 DATASETS  * FILE   NREC   LENGTH (MB)   RECORD NAMES
              1      20      392.35       500      610      700      900      950      970     1000      129      960     1100   
                                          VAR    BASINP    GEOM    SYMINP    ZMAT    AOBASIS   BASIS     P2S    ABASIS      S 
                                         1400     1410     1200     1210     1080     1600     1650     1300     1700     1380   
                                           T        V       H0       H01     AOSYM     SMH    MOLCAS    ERIS     OPER     JKOP   

              2       3        0.89       700     1000     2100   
                                         GEOM     BASIS     RHF  

 PROGRAMS   *        TOTAL   CCSD(T)       RHF       INT
 CPU TIMES  *       188.43    180.09      4.15      4.15
 REAL TIME  *       193.67 SEC
 DISK USED  *         1.02 GB      
 GA USED    *         0.01 MB       (max)       0.00 MB       (current)
 **********************************************************************************************************************************

        CCSD(T)         RHF-SCF 
   -197.18336139   -196.34771453
 **********************************************************************************************************************************
 Variable memory released
