
 Primary working directories    : /tmp/1011018.353.gen4.q
 Secondary working directories  : /tmp/1011018.353.gen4.q
 Wavefunction directory         : /home/vulcan/mel64643/wfu/
 Main file repository           : /tmp/1011018.353.gen4.q/

 ARCHNAME  : Linux/x86_64
 FC        : /opt/intel/compilers_and_libraries_2016.1.150/linux/bin/intel64/ifort
 FCVERSION : 16.0.1
 BLASLIB   : -mkl
 id        : ccgc

 Nodes     nprocs
 n049         1
 ga_uses_ma=false, calling ma_init with nominal heap.
 GA-space will be limited to   8.0 MW (determined by -G option)

 Using customized tuning parameters: mindgm=10; mindgv=16; mindgc=4; mindgr=1; noblas=0; mincuda=1000; minvec=7
 default implementation of scratch files=df  

 ***,Optimization of ethene_ethyne
 memory,1000,m
 gthresh,energy=1.0d-12,orbital=1.0d-10,oneint=1.0d-16,twoint=1.0d-16,optgrad=1.0d-6,compress=1.0d-13
 geomtyp=xyz
 
 
 
 bohr
 geometry = {
  C   -0.0015284131   -1.2648809110   -3.9678096771
  C   -0.0015284131    1.2648809110   -3.9678096771
  H    1.7463249193   -2.3333222860   -3.9770107673
  H   -1.7493961241   -2.3333222860   -3.9619448029
  H   -1.7493961241    2.3333222860   -3.9619448029
  H    1.7463249193    2.3333222860   -3.9770107673
  C   -0.0042169224   -0.0000000000    5.3943447361
  C    0.0088046294   -0.0000000000    3.1059894093
  H    0.0202726605   -0.0000000000    1.0906435665
  H   -0.0156611317   -0.0000000000    7.4055042337
  X    2.0000000000    0.0000000000    5.4004221540
  X    0.0000000000    2.0000000000    5.4004221540
  X    2.0000000000    0.0000000000    3.1120297780
  X    0.0000000000    2.0000000000    3.1120297780
 }
 
 basis=aug-cc-pvdz, H=cc-pvdz
 {rhf;maxit,200}
 {mp2}

 Variables initialized (661), CPU time= 0.01 sec
 Commands  initialized (458), CPU time= 0.00 sec, 486 directives.
 Default parameters read. Elapsed time= 0.04 sec

 Checking input...
 Passed
1


                                         ***  PROGRAM SYSTEM MOLPRO  ***
                         Copyright, University College Cardiff Consultants Limited, 2008

                                    Version 2010.1 linked May 16 2016 07:17:05


 **********************************************************************************************************************************
 LABEL *   Optimization of ethene_ethyne                                                 
 Linux-4.4.3/n049(x86_64) 64 bit mpp version                                             DATE: 25-Feb-24          TIME: 03:29:37  
 **********************************************************************************************************************************

 SHA1:             9e8077add272b0f3cad6f7df79ec5211205f459d
 **********************************************************************************************************************************

 THRESHOLDS:

 ZERO    =  1.00D-12  ONEINT  =  1.00D-16  TWOINT  =  1.00D-16  PREFAC  =  1.00D-14  LOCALI  =  1.00D-09  EORDER  =  1.00D-04
 ENERGY  =  1.00D-12  ETEST   =  0.00D+00  EDENS   =  0.00D+00  THRDEDEF=  1.00D-06  GRADIENT=  1.00D-02  STEP    =  1.00D-03
 ORBITAL =  1.00D-10  CIVEC   =  1.00D-05  COEFF   =  1.00D-04  PRINTCI =  5.00D-02  PUNCHCI =  9.90D+01  OPTGRAD =  1.00D-06
 OPTENERG=  1.00D-06  OPTSTEP =  3.00D-04  THRGRAD =  1.00D-10  COMPRESS=  1.00D-13  VARMIN  =  1.00D-07  VARMAX  =  1.00D-03
 THRDOUB =  0.00D+00  THRDIV  =  1.00D-05  THRRED  =  1.00D-07  THRPSP  =  1.00D+00  THRDC   =  1.00D-10  THRCS   =  1.00D-10
 THRNRM  =  1.00D-08  THREQ   =  0.00D+00  THRDE   =  1.00D+00  THRREF  =  1.00D-05  SPARFAC =  1.00D+00  THRDLP  =  1.00D-07
 THRDIA  =  1.00D-10  THRDLS  =  1.00D-07  THRGPS  =  0.00D+00  THRKEX  =  0.00D+00  THRDIS  =  2.00D-01  THRVAR  =  1.00D-10
 THRLOC  =  1.00D-06  THRGAP  =  1.00D-06  THRLOCT = -1.00D+00  THRGAPT = -1.00D+00  THRORB  =  1.00D-06  THRMLTP =  0.00D+00
 THRCPQCI=  1.00D-10  KEXTA   =  0.00D+00  THRCOARS=  0.00D+00  SYMTOL  =  1.00D-06  GRADTOL =  1.00D-06  THROVL  =  1.00D-08
 THRORTH =  1.00D-08  GRID    =  1.00D-06  GRIDMAX =  1.00D-03  DTMAX   =  0.00D+00

 SETTING GEOMTYP        =    XYZ
 ZUNIT=BOHR
 

 Variable memory set to 1000000000 words,  buffer space   230000 words

 SETTING BASIS          =    AUG-CC-PVDZ,H=CC-PVDZ


 Recomputing integrals since basis changed


 Using spherical harmonics

 Library entry C      S aug-cc-pVDZ          selected for orbital group  1
 Library entry C      P aug-cc-pVDZ          selected for orbital group  1
 Library entry C      D aug-cc-pVDZ          selected for orbital group  1
 Library entry H      S cc-pVDZ              selected for orbital group  2
 Library entry H      P cc-pVDZ              selected for orbital group  2

1PROGRAM * SEWARD (Integral evaluation for generally contracted gaussian basis sets)     Author: Roland Lindh, 1990

 Geometry written to block  1 of record 700


 Point group  Cs  



 ATOMIC COORDINATES

 NR  ATOM    CHARGE       X              Y              Z

   1  C       6.00   -0.001528413   -1.264880911   -3.967809677
   2  C       6.00   -0.001528413    1.264880911   -3.967809677
   3  H       1.00    1.746324919   -2.333322286   -3.977010767
   4  H       1.00    1.746324919    2.333322286   -3.977010767
   5  H       1.00   -1.749396124   -2.333322286   -3.961944803
   6  H       1.00   -1.749396124    2.333322286   -3.961944803
   7  C       6.00   -0.004216922    0.000000000    5.394344736
   8  C       6.00    0.008804629    0.000000000    3.105989409
   9  H       1.00    0.020272661    0.000000000    1.090643567
  10  H       1.00   -0.015661132    0.000000000    7.405504234

 Bond lengths in Bohr (Angstrom)

 1-2  2.529761822  1-3  2.048570942  1-5  2.048570942  2-4  2.048570942  2-6  2.048570942
     ( 1.338692300)     ( 1.084057053)     ( 1.084057053)     ( 1.084057053)     ( 1.084057053)

  7- 8  2.288392375   7-10  2.011192058   8- 9  2.015378471
       ( 1.210965090)       ( 1.064277000)       ( 1.066492354)

 Bond angles

  1-2-4  121.43658156   1-2-6  121.43658156   2-1-3  121.43658156   2-1-5  121.43658156

  3- 1- 5  117.12675150   4- 2- 6  117.12675150   7- 8- 9  180.00000000   8- 7-10  180.00000000

 NUCLEAR CHARGE:                   30
 NUMBER OF PRIMITIVE AOS:         190
 NUMBER OF SYMMETRY AOS:          182
 NUMBER OF CONTRACTIONS:          122   (  73A'  +  49A"  )
 NUMBER OF CORE ORBITALS:           4   (   3A'  +   1A"  )
 NUMBER OF VALENCE ORBITALS:       22   (  14A'  +   8A"  )


 NUCLEAR REPULSION ENERGY   85.52908655


 Eigenvalues of metric

         1 0.819E-04 0.226E-03 0.290E-02 0.481E-02 0.575E-02 0.665E-02 0.963E-02 0.102E-01
         2 0.172E-03 0.268E-03 0.497E-02 0.682E-02 0.846E-02 0.851E-02 0.112E-01 0.182E-01


 Contracted 2-electron integrals neglected if value below      1.0D-16
 AO integral compression algorithm  1   Integral accuracy      1.0D-16

     114.033 MB (compressed) written to integral file ( 81.2%)

     Node minimum: 114.033 MB, node maximum: 114.033 MB


 NUMBER OF SORTED TWO-ELECTRON INTEGRALS:   14326151.     BUFFER LENGTH:  32768
 NUMBER OF SEGMENTS:   1  SEGMENT LENGTH:   14326151      RECORD LENGTH: 524288

 Memory used in sort:      14.88 MW

 SORT1 READ    17578033. AND WROTE    13715708. INTEGRALS IN     40 RECORDS. CPU TIME:     0.18 SEC, REAL TIME:     0.25 SEC
 SORT2 READ    13715708. AND WROTE    14326151. INTEGRALS IN    435 RECORDS. CPU TIME:     0.17 SEC, REAL TIME:     0.24 SEC

 FILE SIZES:   FILE 1:    99.6 MBYTE,  FILE 4:   167.8 MBYTE,   TOTAL:    267.4 MBYTE

 OPERATOR DM      FOR CENTER  0  COORDINATES:    0.000000    0.000000    0.000000


 **********************************************************************************************************************************
 DATASETS  * FILE   NREC   LENGTH (MB)   RECORD NAMES
              1      19       99.74       500      610      700      900      950      970     1000      129      960     1100   
                                          VAR    BASINP    GEOM    SYMINP    ZMAT    AOBASIS   BASIS     P2S    ABASIS      S 
                                         1400     1410     1200     1210     1080     1600     1650     1300     1700   
                                           T        V       H0       H01     AOSYM     SMH    MOLCAS    ERIS     OPER   

 PROGRAMS   *        TOTAL       INT
 CPU TIMES  *         1.39      1.35
 REAL TIME  *         1.76 SEC
 DISK USED  *       382.41 MB      
 GA USED    *         0.00 MB       (max)       0.00 MB       (current)
 **********************************************************************************************************************************

1PROGRAM * RHF-SCF (CLOSED SHELL)       Authors: W. Meyer, H.-J. Werner


 NUMBER OF ELECTRONS:      15+   15-
 CONVERGENCE THRESHOLDS:    1.00E-10 (Density)    1.00E-13 (Energy)
 MAX. NUMBER OF ITERATIONS:      200
 INTERPOLATION TYPE:            DIIS
 INTERPOLATION STEPS:              2 (START)      1 (STEP)
 LEVEL SHIFTS:                  0.00 (CLOSED)  0.00 (OPEN) 



 Orbital guess generated from atomic densities. Full valence occupancy:   17   9

 Molecular orbital dump at record        2100.2

 Initial alpha occupancy:  11   4
 Initial beta  occupancy:  11   4
 Wave function symmetry:    1

 ITERATION    DDIFF          GRAD             ENERGY        2-EL.EN.            DIPOLE MOMENTS         DIIS
    1      0.000D+00      0.000D+00      -154.83513238    273.450329   -0.00022    0.00000   -0.05948    0
    2      0.000D+00      0.478D-02      -154.86715747    271.102231   -0.00047    0.00000   -0.14707    1
    3      0.118D-01      0.149D-02      -154.87008868    271.998974   -0.00047    0.00000   -0.12287    2
    4      0.292D-02      0.430D-03      -154.87047871    271.787358   -0.00043    0.00000   -0.14278    3
    5      0.123D-02      0.893D-04      -154.87049101    271.804229   -0.00049    0.00000   -0.13545    4
    6      0.216D-03      0.403D-04      -154.87049309    271.804755   -0.00047    0.00000   -0.14050    5
    7      0.690D-04      0.876D-05      -154.87049323    271.804178   -0.00047    0.00000   -0.14022    6
    8      0.215D-04      0.202D-05      -154.87049324    271.804091   -0.00047    0.00000   -0.14043    7
    9      0.546D-05      0.491D-06      -154.87049324    271.804129   -0.00047    0.00000   -0.14047    7
   10      0.169D-05      0.706D-07      -154.87049324    271.804126   -0.00047    0.00000   -0.14048    7
   11      0.299D-06      0.171D-07      -154.87049324    271.804130   -0.00047    0.00000   -0.14048    6
   12      0.600D-07      0.757D-08      -154.87049324    271.804128   -0.00047    0.00000   -0.14048    6
   13      0.227D-07      0.421D-08      -154.87049324    271.804129   -0.00047    0.00000   -0.14048    6
   14      0.185D-07      0.175D-08      -154.87049324    271.804129   -0.00047    0.00000   -0.14048    7
   15      0.784D-08      0.640D-09      -154.87049324    271.804129   -0.00047    0.00000   -0.14048    8
   16      0.220D-08      0.142D-09      -154.87049324    271.804129   -0.00047    0.00000   -0.14048    8
   17      0.374D-09      0.263D-10      -154.87049324    271.804129   -0.00047    0.00000   -0.14048    8
   18      0.906D-10      0.763D-11      -154.87049324    271.804129   -0.00047    0.00000   -0.14048    8
   19      0.261D-10      0.167D-11      -154.87049324    271.804129   -0.00047    0.00000   -0.14048    8
   20      0.643D-11      0.524D-12      -154.87049324    271.804129   -0.00047    0.00000   -0.14048    7
   21      0.266D-11      0.160D-12      -154.87049324    271.804129   -0.00047    0.00000   -0.14048    0

 Final occupancy:  11   4

 !RHF STATE 1.1 Energy               -154.870493241836
 Nuclear energy                        85.52908655
 One-electron energy                 -376.30164413
 Two-electron energy                  135.90206433
 Virial quotient                       -1.00220391
 !RHF STATE 1.1 Dipole moment          -0.00047110     0.00000000    -0.14048124
 Dipole moment /Debye                  -0.00119733     0.00000000    -0.35704431

 Orbital energies:

         1.1          2.1          3.1          4.1          5.1          6.1          7.1          8.1          9.1         10.1
    -11.250411   -11.248260   -11.244613    -1.044577    -1.024260    -0.760404    -0.671716    -0.651450    -0.595093    -0.402018

        11.1         12.1         13.1
     -0.386511     0.065099     0.080468

         1.2          2.2          3.2          4.2          5.2          6.2
    -11.248797    -0.802757    -0.515870    -0.402021     0.065125     0.093737


 **********************************************************************************************************************************
 DATASETS  * FILE   NREC   LENGTH (MB)   RECORD NAMES
              1      19       99.74       500      610      700      900      950      970     1000      129      960     1100   
                                          VAR    BASINP    GEOM    SYMINP    ZMAT    AOBASIS   BASIS     P2S    ABASIS      S 
                                         1400     1410     1200     1210     1080     1600     1650     1300     1700   
                                           T        V       H0       H01     AOSYM     SMH    MOLCAS    ERIS     OPER   

              2       3        0.65       700     1000     2100   
                                         GEOM     BASIS     RHF  

 PROGRAMS   *        TOTAL       RHF       INT
 CPU TIMES  *         3.21      1.82      1.35
 REAL TIME  *         3.81 SEC
 DISK USED  *       382.41 MB      
 GA USED    *         0.00 MB       (max)       0.00 MB       (current)
 **********************************************************************************************************************************


1PROGRAM * MP2 (Closed-shell)     Authors: C. Hampel, H.-J. Werner, 1991, M. Deegan, P.J. Knowles, 1992


 Convergence thresholds:  THRVAR = 1.00D-08  THRDEN = 1.00D-12

 Number of core orbitals:           4 (   3   1 )
 Number of closed-shell orbitals:  11 (   8   3 )
 Number of external orbitals:     107 (  62  45 )

 Molecular orbitals read from record     2100.2  Type=RHF/CANONICAL (state 1.1)

 Number of N-1 electron functions:              11
 Number of N-2 electron functions:              66
 Number of singly external CSFs:               631
 Number of doubly external CSFs:            348727
 Total number of CSFs:                      349359

 Length of J-op  integral file:               0.00 MB
 Length of K-op  integral file:               0.56 MB

 Integral transformation finished. Total CPU:   0.20 sec, npass=  1  Memory used:   0.61 MW

 Memory needed for MP2:                      0.04 MW

 SCS-MP2 correlation energy:           -0.548036759391   (PS=  1.200000  PT=  0.333333)
 SCS-MP2 total energy:               -155.418530001227


  Reference energy                   -154.870493241836
  MP2 singlet pair energy              -0.357835184243
  MP2 triplet pair energy              -0.190662650839
  MP2 correlation energy               -0.548497835082

 !MP2 total energy                   -155.418991076918


 **********************************************************************************************************************************
 DATASETS  * FILE   NREC   LENGTH (MB)   RECORD NAMES
              1      20      105.84       500      610      700      900      950      970     1000      129      960     1100   
                                          VAR    BASINP    GEOM    SYMINP    ZMAT    AOBASIS   BASIS     P2S    ABASIS      S 
                                         1400     1410     1200     1210     1080     1600     1650     1300     1700     1380   
                                           T        V       H0       H01     AOSYM     SMH    MOLCAS    ERIS     OPER     JKOP   

              2       3        0.65       700     1000     2100   
                                         GEOM     BASIS     RHF  

 PROGRAMS   *        TOTAL       MP2       RHF       INT
 CPU TIMES  *         3.44      0.23      1.82      1.35
 REAL TIME  *         4.08 SEC
 DISK USED  *       382.41 MB      
 GA USED    *         0.00 MB       (max)       0.00 MB       (current)
 **********************************************************************************************************************************

        MP2             RHF-SCF 
   -155.41899108   -154.87049324
 **********************************************************************************************************************************
 Variable memory released
