
 Primary working directories    : /tmp/944438.331.gen6.q
 Secondary working directories  : /tmp/944438.331.gen6.q
 Wavefunction directory         : /home/vulcan/mel64643/wfu/
 Main file repository           : /tmp/944438.331.gen6.q/

 ARCHNAME  : Linux/x86_64
 FC        : /opt/intel/compilers_and_libraries_2016.1.150/linux/bin/intel64/ifort
 FCVERSION : 16.0.1
 BLASLIB   : -mkl
 id        : ccgc

 Nodes     nprocs
 n077         1
 ga_uses_ma=false, calling ma_init with nominal heap.
 GA-space will be limited to   8.0 MW (determined by -G option)

 Using customized tuning parameters: mindgm=10; mindgv=16; mindgc=4; mindgr=1; noblas=0; mincuda=1000; minvec=7
 default implementation of scratch files=df  

 ***,Optimization of min3
 memory,1000,m
 gthresh,energy=1.0d-12,orbital=1.0d-10,oneint=1.0d-16,twoint=1.0d-16,optgrad=1.0d-6,compress=1.0d-13
 geomtyp=xyz
 
 
 
  bohr
  geometry = {
  C   -0.2883482830    2.4021824648   -2.1349259653
  C    0.7650973371    0.0020974372   -0.8941725309
  C    0.1922945347    0.0047037524    1.8337318974
  N   -0.2960940551   -0.0152274664    3.9769530641
  H    2.8244889785    0.0017425098   -1.0652333680
  C   -0.2888027471   -2.4001055481   -2.1304331545
  H   -2.3399554072   -2.4504155789   -1.9586413860
  H    0.4787202353   -4.0922284156   -1.2491395310
  H    0.1997112323   -2.4163351004   -4.1301050983
  H   -2.3394913672    2.4532020186   -1.9632291403
  H    0.2001684144    2.4145778201   -4.1346246877
  H    0.4794951571    4.0958061065   -1.2568000119
 }
 
 basis=cc-pvdz
 {rhf;maxit,200}
 {ccsd(t);maxit,200}

 Variables initialized (661), CPU time= 0.01 sec
 Commands  initialized (458), CPU time= 0.00 sec, 486 directives.
 Default parameters read. Elapsed time= 0.04 sec

 Checking input...
 Passed
1


                                         ***  PROGRAM SYSTEM MOLPRO  ***
                         Copyright, University College Cardiff Consultants Limited, 2008

                                    Version 2010.1 linked May 16 2016 07:17:05


 **********************************************************************************************************************************
 LABEL *   Optimization of min3                                                          
 Linux-4.4.3/n077(x86_64) 64 bit mpp version                                             DATE: 27-Oct-23          TIME: 10:51:19  
 **********************************************************************************************************************************

 SHA1:             9e8077add272b0f3cad6f7df79ec5211205f459d
 **********************************************************************************************************************************

 THRESHOLDS:

 ZERO    =  1.00D-12  ONEINT  =  1.00D-16  TWOINT  =  1.00D-16  PREFAC  =  1.00D-14  LOCALI  =  1.00D-09  EORDER  =  1.00D-04
 ENERGY  =  1.00D-12  ETEST   =  0.00D+00  EDENS   =  0.00D+00  THRDEDEF=  1.00D-06  GRADIENT=  1.00D-02  STEP    =  1.00D-03
 ORBITAL =  1.00D-10  CIVEC   =  1.00D-05  COEFF   =  1.00D-04  PRINTCI =  5.00D-02  PUNCHCI =  9.90D+01  OPTGRAD =  1.00D-06
 OPTENERG=  1.00D-06  OPTSTEP =  3.00D-04  THRGRAD =  1.00D-10  COMPRESS=  1.00D-13  VARMIN  =  1.00D-07  VARMAX  =  1.00D-03
 THRDOUB =  0.00D+00  THRDIV  =  1.00D-05  THRRED  =  1.00D-07  THRPSP  =  1.00D+00  THRDC   =  1.00D-10  THRCS   =  1.00D-10
 THRNRM  =  1.00D-08  THREQ   =  0.00D+00  THRDE   =  1.00D+00  THRREF  =  1.00D-05  SPARFAC =  1.00D+00  THRDLP  =  1.00D-07
 THRDIA  =  1.00D-10  THRDLS  =  1.00D-07  THRGPS  =  0.00D+00  THRKEX  =  0.00D+00  THRDIS  =  2.00D-01  THRVAR  =  1.00D-10
 THRLOC  =  1.00D-06  THRGAP  =  1.00D-06  THRLOCT = -1.00D+00  THRGAPT = -1.00D+00  THRORB  =  1.00D-06  THRMLTP =  0.00D+00
 THRCPQCI=  1.00D-10  KEXTA   =  0.00D+00  THRCOARS=  0.00D+00  SYMTOL  =  1.00D-06  GRADTOL =  1.00D-06  THROVL  =  1.00D-08
 THRORTH =  1.00D-08  GRID    =  1.00D-06  GRIDMAX =  1.00D-03  DTMAX   =  0.00D+00

 SETTING GEOMTYP        =    XYZ
 ZUNIT=BOHR
 

 Variable memory set to 1000000000 words,  buffer space   230000 words

 SETTING BASIS          =    CC-PVDZ


 Recomputing integrals since basis changed


 Using spherical harmonics

 Library entry C      S cc-pVDZ              selected for orbital group  1
 Library entry C      P cc-pVDZ              selected for orbital group  1
 Library entry C      D cc-pVDZ              selected for orbital group  1
 Library entry N      S cc-pVDZ              selected for orbital group  2
 Library entry N      P cc-pVDZ              selected for orbital group  2
 Library entry N      D cc-pVDZ              selected for orbital group  2
 Library entry H      S cc-pVDZ              selected for orbital group  3
 Library entry H      P cc-pVDZ              selected for orbital group  3

1PROGRAM * SEWARD (Integral evaluation for generally contracted gaussian basis sets)     Author: Roland Lindh, 1990

 Geometry written to block  1 of record 700


 Point group  C1  



 ATOMIC COORDINATES

 NR  ATOM    CHARGE       X              Y              Z

   1  C       6.00   -0.288348283    2.402182465   -2.134925965
   2  C       6.00    0.765097337    0.002097437   -0.894172531
   3  C       6.00    0.192294535    0.004703752    1.833731897
   4  N       7.00   -0.296094055   -0.015227466    3.976953064
   5  H       1.00    2.824488978    0.001742510   -1.065233368
   6  C       6.00   -0.288802747   -2.400105548   -2.130433154
   7  H       1.00   -2.339955407   -2.450415579   -1.958641386
   8  H       1.00    0.478720235   -4.092228416   -1.249139531
   9  H       1.00    0.199711232   -2.416335100   -4.130105098
  10  H       1.00   -2.339491367    2.453202019   -1.963229140
  11  H       1.00    0.200168414    2.414577820   -4.134624688
  12  H       1.00    0.479495157    4.095806107   -1.256800012

 Bond lengths in Bohr (Angstrom)

  1- 2  2.899935327   1-10  2.058948942   1-11  2.058542491   1-12  2.056465360   2- 3  2.787395274
       ( 1.534579682)       ( 1.089548855)       ( 1.089333770)       ( 1.088234600)       ( 1.475026051)

 2-5  2.066483939  2-6  2.899935327  3-4  2.198253315  6-7  2.058948942  6-8  2.056465360
     ( 1.093536203)     ( 1.534579683)     ( 1.163265554)     ( 1.089548855)     ( 1.088234600)

 6-9  2.058542491
     ( 1.089333770)

 Bond angles

  1- 2- 3  110.07805278   1- 2- 5  109.07122520   1- 2- 6  111.78757148   2- 1-10  110.28665506

  2- 1-11  109.53615357   2- 1-12  111.30134669   2- 3- 4  178.86604886   2- 6- 7  110.28665433

  2-6-8  111.30134484   2-6-9  109.53615612   3-2-5  106.60693491   3-2-6  110.07805277

  5-2-6  109.07122520   7-6-8  108.41810410   7-6-9  108.49789902   8-6-9  108.73761538

 10- 1-11  108.49789535  10- 1-12  108.41810892  11- 1-12  108.73761407

 NUCLEAR CHARGE:                   38
 NUMBER OF PRIMITIVE AOS:         184
 NUMBER OF SYMMETRY AOS:          179
 NUMBER OF CONTRACTIONS:          105   ( 105A   )
 NUMBER OF CORE ORBITALS:           5   (   5A   )
 NUMBER OF VALENCE ORBITALS:       27   (  27A   )


 NUCLEAR REPULSION ENERGY  158.99820020


 Eigenvalues of metric

         1 0.197E-02 0.463E-02 0.573E-02 0.601E-02 0.167E-01 0.195E-01 0.209E-01 0.265E-01


 Contracted 2-electron integrals neglected if value below      1.0D-16
 AO integral compression algorithm  1   Integral accuracy      1.0D-16

     130.286 MB (compressed) written to integral file ( 95.1%)

     Node minimum: 130.286 MB, node maximum: 130.286 MB


 NUMBER OF SORTED TWO-ELECTRON INTEGRALS:   15487395.     BUFFER LENGTH:  32768
 NUMBER OF SEGMENTS:   1  SEGMENT LENGTH:   15487395      RECORD LENGTH: 524288

 Memory used in sort:      16.04 MW

 SORT1 READ    17101285. AND WROTE    15442822. INTEGRALS IN     45 RECORDS. CPU TIME:     0.13 SEC, REAL TIME:     0.22 SEC
 SORT2 READ    15442822. AND WROTE    15487395. INTEGRALS IN    497 RECORDS. CPU TIME:     0.12 SEC, REAL TIME:     0.20 SEC

 FILE SIZES:   FILE 1:   120.9 MBYTE,  FILE 4:   188.8 MBYTE,   TOTAL:    309.7 MBYTE

 OPERATOR DM      FOR CENTER  0  COORDINATES:    0.000000    0.000000    0.000000


 **********************************************************************************************************************************
 DATASETS  * FILE   NREC   LENGTH (MB)   RECORD NAMES
              1      19      121.07       500      610      700      900      950      970     1000      129      960     1100   
                                          VAR    BASINP    GEOM    SYMINP    ZMAT    AOBASIS   BASIS     P2S    ABASIS      S 
                                         1400     1410     1200     1210     1080     1600     1650     1300     1700   
                                           T        V       H0       H01     AOSYM     SMH    MOLCAS    ERIS     OPER   

 PROGRAMS   *        TOTAL       INT
 CPU TIMES  *         1.55      1.50
 REAL TIME  *         1.95 SEC
 DISK USED  *       440.85 MB      
 GA USED    *         0.00 MB       (max)       0.00 MB       (current)
 **********************************************************************************************************************************

1PROGRAM * RHF-SCF (CLOSED SHELL)       Authors: W. Meyer, H.-J. Werner


 NUMBER OF ELECTRONS:      19+   19-    SPACE SYMMETRY=1    SPIN SYMMETRY: Singlet 
 CONVERGENCE THRESHOLDS:    1.00E-10 (Density)    1.00E-13 (Energy)
 MAX. NUMBER OF ITERATIONS:      200
 INTERPOLATION TYPE:            DIIS
 INTERPOLATION STEPS:              2 (START)      1 (STEP)
 LEVEL SHIFTS:                  0.00 (CLOSED)  0.00 (OPEN) 



 Orbital guess generated from atomic densities. Full valence occupancy:   32

 Molecular orbital dump at record        2100.2

 ITERATION    DDIFF          GRAD             ENERGY        2-EL.EN.            DIPOLE MOMENTS         DIIS
    1      0.000D+00      0.000D+00      -209.94367972    457.216219    0.48628    0.01324   -2.25033    0
    2      0.000D+00      0.591D-02      -209.98970264    456.765931    0.15018    0.00019   -1.29488    1
    3      0.124D-01      0.414D-02      -210.01005112    456.451911    0.30640    0.00671   -1.70347    2
    4      0.554D-02      0.106D-02      -210.01230091    456.779286    0.29292    0.00536   -1.61511    3
    5      0.196D-02      0.236D-03      -210.01241985    456.620131    0.28656    0.00540   -1.62656    4
    6      0.427D-03      0.579D-04      -210.01242923    456.638959    0.28678    0.00539   -1.62465    5
    7      0.169D-03      0.160D-04      -210.01242978    456.636950    0.28713    0.00539   -1.62596    6
    8      0.307D-04      0.502D-05      -210.01242984    456.636636    0.28700    0.00539   -1.62608    7
    9      0.110D-04      0.108D-05      -210.01242984    456.636566    0.28702    0.00539   -1.62607    7
   10      0.264D-05      0.386D-06      -210.01242984    456.636665    0.28702    0.00539   -1.62610    7
   11      0.970D-06      0.204D-06      -210.01242984    456.636631    0.28702    0.00539   -1.62609    7
   12      0.696D-06      0.930D-07      -210.01242984    456.636648    0.28702    0.00539   -1.62609    7
   13      0.437D-06      0.239D-07      -210.01242984    456.636642    0.28702    0.00539   -1.62609    8
   14      0.113D-06      0.470D-08      -210.01242984    456.636641    0.28702    0.00539   -1.62609    8
   15      0.146D-07      0.191D-08      -210.01242984    456.636642    0.28702    0.00539   -1.62609    8
   16      0.365D-08      0.541D-09      -210.01242984    456.636642    0.28702    0.00539   -1.62609    8
   17      0.115D-08      0.117D-09      -210.01242984    456.636642    0.28702    0.00539   -1.62609    8
   18      0.262D-09      0.353D-10      -210.01242984    456.636642    0.28702    0.00539   -1.62609    7
   19      0.822D-10      0.127D-10      -210.01242984    456.636642    0.28702    0.00539   -1.62609    7
   20      0.313D-10      0.445D-11      -210.01242984    456.636642    0.28702    0.00539   -1.62609    7
   21      0.115D-10      0.178D-11      -210.01242984    456.636642    0.28702    0.00539   -1.62609    8
   22      0.519D-11      0.843D-12      -210.01242984    456.636642    0.28702    0.00539   -1.62609    8
   23      0.302D-11      0.364D-12      -210.01242984    456.636642    0.28702    0.00539   -1.62609    8
   24      0.167D-11      0.105D-12      -210.01242984    456.636642    0.28702    0.00539   -1.62609    8
   25      0.536D-12      0.502D-13      -210.01242984    456.636642    0.28702    0.00539   -1.62609    9
   26      0.258D-12      0.242D-13      -210.01242984    456.636642    0.28702    0.00539   -1.62609    9
   27      0.110D-12      0.318D-13      -210.01242984    456.636642    0.28702    0.00539   -1.62609    0

 Final occupancy:  19

 !RHF STATE 1.1 Energy               -210.012429842145
 Nuclear energy                       158.99820020
 One-electron energy                 -597.32895081
 Two-electron energy                  228.31832076
 Virial quotient                       -1.00154958
 !RHF STATE 1.1 Dipole moment           0.28702006     0.00539443    -1.62609297
 Dipole moment /Debye                   0.72948445     0.01371038    -4.13284538

 Orbital energies:

         1.1          2.1          3.1          4.1          5.1          6.1          7.1          8.1          9.1         10.1
    -15.572571   -11.290046   -11.274730   -11.249419   -11.249402    -1.212617    -1.107909    -0.961441    -0.876806    -0.704232

        11.1         12.1         13.1         14.1         15.1         16.1         17.1         18.1         19.1         20.1
     -0.643000    -0.597262    -0.572732    -0.564384    -0.530608    -0.523765    -0.520584    -0.447340    -0.447305     0.155381

        21.1
      0.190416


 **********************************************************************************************************************************
 DATASETS  * FILE   NREC   LENGTH (MB)   RECORD NAMES
              1      19      121.07       500      610      700      900      950      970     1000      129      960     1100   
                                          VAR    BASINP    GEOM    SYMINP    ZMAT    AOBASIS   BASIS     P2S    ABASIS      S 
                                         1400     1410     1200     1210     1080     1600     1650     1300     1700   
                                           T        V       H0       H01     AOSYM     SMH    MOLCAS    ERIS     OPER   

              2       3        0.68       700     1000     2100   
                                         GEOM     BASIS     RHF  

 PROGRAMS   *        TOTAL       RHF       INT
 CPU TIMES  *         3.98      2.43      1.50
 REAL TIME  *         4.72 SEC
 DISK USED  *       440.85 MB      
 GA USED    *         0.00 MB       (max)       0.00 MB       (current)
 **********************************************************************************************************************************


1PROGRAM * CCSD (Closed-shell coupled cluster)     Authors: C. Hampel, H.-J. Werner, 1991, M. Deegan, P.J. Knowles, 1992


 Convergence thresholds:  THRVAR = 1.00D-08  THRDEN = 1.00D-12

 CCSD(T)     terms to be evaluated (factor= 1.000)


 Number of core orbitals:           5 (   5 )
 Number of closed-shell orbitals:  14 (  14 )
 Number of external orbitals:      86 (  86 )

 Molecular orbitals read from record     2100.2  Type=RHF/CANONICAL (state 1.1)

 Number of N-1 electron functions:              14
 Number of N-2 electron functions:             105
 Number of singly external CSFs:              1204
 Number of doubly external CSFs:            725410
 Total number of CSFs:                      726615

 Length of J-op  integral file:               0.00 MB
 Length of K-op  integral file:               0.79 MB
 Length of 3-ext integral record:             0.00 MB

 Memory could be reduced to 12.72 Mwords without degradation in triples

 Integral transformation finished. Total CPU:   0.56 sec, npass=  1  Memory used:  10.92 MW

 Reference energy:                   -210.01242984

 MP2 singlet pair energy:              -0.45146896
 MP2 triplet pair energy:              -0.25973587
 MP2 correlation energy:               -0.71120484
 MP2 total energy:                   -210.72363468

 SCS-MP2 correlation energy:           -0.70337619   (PS=  1.200000  PT=  0.333333)
 SCS-MP2 total energy:               -210.71580603

 ITER.      SQ.NORM     CORR.ENERGY   TOTAL ENERGY   ENERGY CHANGE        DEN1      VAR(S)    VAR(P)  DIIS     TIME
   1      1.26990674    -0.75325885  -210.76568869    -0.04205401    -0.01888379  0.35D-02  0.56D-02  1  1     2.12
   2      1.29252179    -0.75690582  -210.76933566    -0.00364697    -0.02201941  0.58D-04  0.75D-03  2  2     3.71
   3      1.29988077    -0.75728081  -210.76971065    -0.00037499    -0.00406546  0.27D-04  0.55D-04  3  3     5.30
   4      1.30244169    -0.75737714  -210.76980698    -0.00009633    -0.00100611  0.13D-05  0.65D-05  4  4     6.90
   5      1.30300867    -0.75738567  -210.76981551    -0.00000853    -0.00016804  0.16D-06  0.78D-06  5  5     8.49
   6      1.30313124    -0.75738012  -210.76980996     0.00000555    -0.00003120  0.97D-08  0.53D-07  6  6    10.08
   7      1.30314936    -0.75738251  -210.76981236    -0.00000240    -0.00000403  0.15D-08  0.48D-08  6  2    11.67
   8      1.30315078    -0.75738244  -210.76981228     0.00000007    -0.00000003  0.14D-09  0.42D-09  6  1    13.27
   9      1.30315113    -0.75738242  -210.76981227     0.00000002     0.00000022  0.17D-10  0.36D-10  6  3    14.86
  10      1.30315140    -0.75738244  -210.76981228    -0.00000001    -0.00000006  0.17D-11  0.33D-11  6  4    16.47
  11      1.30315102    -0.75738246  -210.76981230    -0.00000002     0.00000022  0.35D-12  0.34D-12  6  6    18.07
  12      1.30315095    -0.75738247  -210.76981231    -0.00000001     0.00000004  0.45D-13  0.27D-13  6  5    19.66
  13      1.30315091    -0.75738247  -210.76981231    -0.00000000     0.00000002  0.55D-14  0.45D-14  6  2    21.26
  14      1.30315091    -0.75738247  -210.76981231     0.00000000     0.00000000  0.15D-14  0.67D-15  6  1    22.86
  15      1.30315091    -0.75738247  -210.76981231     0.00000000    -0.00000000  0.11D-15  0.11D-15  6  4    24.46
  16      1.30315091    -0.75738247  -210.76981231     0.00000000    -0.00000000  0.17D-16  0.78D-17  6  3    26.06
  17      1.30315091    -0.75738247  -210.76981231     0.00000000    -0.00000000  0.38D-17  0.17D-17  6  6    27.66
  18      1.30315091    -0.75738247  -210.76981231    -0.00000000    -0.00000000  0.57D-18  0.28D-18  6  5    29.26
  19      1.30315091    -0.75738247  -210.76981231     0.00000000     0.00000000  0.60D-19  0.45D-19  6  2    30.85
  20      1.30315091    -0.75738247  -210.76981231     0.00000000    -0.00000000  0.63D-20  0.40D-20  6  4    32.45

 Norm of t1 vector:      0.07768557      S-energy:    -0.00000000      T1 diagnostic:  0.01038117
                                                                       D1 diagnostic:  0.02936343


 Total CPU time for triples:     19.81 sec


 RESULTS
 =======

  Reference energy                   -210.012429842145
  CCSD singlet pair energy             -0.527082739986
  CCSD triplet pair energy             -0.230299730316
  CCSD correlation energy              -0.757382470303

  Triples (T) contribution             -0.026767290642
  Total correlation energy             -0.784149760945

  CCSD total energy                  -210.769812312448
  CCSD[T] energy                     -210.797587619102
  CCSD-T energy                      -210.796110391180
 !CCSD(T) total energy               -210.796579603090

 Timing summary (sec):

 STEP                 CPU(USER)    SYS     CPU(TOT)    WALL
 Transformation          0.59      0.08      0.67      0.68
 CCSD iterations        31.86      0.92     32.78     32.81
 Triples                19.81      0.48     20.29     20.30

 Program statistics:

 Available memory in ccsd:               999999116
 Min. memory needed in ccsd:               1995783
 Max. memory used in ccsd:                 2628247
 Max. memory used in cckext:               2458865 (20 integral passes)



 **********************************************************************************************************************************
 DATASETS  * FILE   NREC   LENGTH (MB)   RECORD NAMES
              1      20      171.22       500      610      700      900      950      970     1000      129      960     1100   
                                          VAR    BASINP    GEOM    SYMINP    ZMAT    AOBASIS   BASIS     P2S    ABASIS      S 
                                         1400     1410     1200     1210     1080     1600     1650     1300     1700     1380   
                                           T        V       H0       H01     AOSYM     SMH    MOLCAS    ERIS     OPER     JKOP   

              2       3        0.68       700     1000     2100   
                                         GEOM     BASIS     RHF  

 PROGRAMS   *        TOTAL   CCSD(T)       RHF       INT
 CPU TIMES  *        56.26     52.27      2.43      1.50
 REAL TIME  *        58.54 SEC
 DISK USED  *       440.85 MB      
 GA USED    *         0.00 MB       (max)       0.00 MB       (current)
 **********************************************************************************************************************************

        CCSD(T)         RHF-SCF 
   -210.79657960   -210.01242984
 **********************************************************************************************************************************
 Variable memory released
