
 Primary working directories    : /tmp/862144.248.gen4.q
 Secondary working directories  : /tmp/862144.248.gen4.q
 Wavefunction directory         : /home/vulcan/lo21740/wfu/
 Main file repository           : /tmp/862144.248.gen4.q/

 ARCHNAME  : Linux/x86_64
 FC        : /opt/intel/compilers_and_libraries_2016.1.150/linux/bin/intel64/ifort
 FCVERSION : 16.0.1
 BLASLIB   : -mkl
 id        : ccgc

 Nodes     nprocs
 n049         1
 ga_uses_ma=false, calling ma_init with nominal heap.
 GA-space will be limited to   8.0 MW (determined by -G option)

 Using customized tuning parameters: mindgm=10; mindgv=16; mindgc=4; mindgr=1; noblas=0; mincuda=1000; minvec=7
 default implementation of scratch files=df  

 ***,Optimization of formic acid
 memory,1000,m
 gthresh,energy=1.0d-12,orbital=1.0d-10,oneint=1.0d-16,twoint=1.0d-16,optgrad=1.0d-6,compress=1.0d-13
 geomtyp=xyz
 
 bohr
 geometry = {
  C   -3.5018335243   -0.8319512349   -0.0000000000
  O   -3.0916698534    1.6267050022    0.0000000000
  O   -1.8871895063   -2.4767407931   -0.0000000000
  H   -5.5181021590   -1.2788836164   -0.0000000000
  H   -1.2398892577    1.9536445219    0.0000000000
  C    3.4999136870    0.8271542507    0.0000000000
  O    3.0930556661   -1.6239304644    0.0000000000
  O    1.8887898406    2.4791130218    0.0000000000
  H    5.5188867466    1.2800312324    0.0000000000
  H    1.2380383603   -1.9551419202   -0.0000000000
 }
 
 basis=VDZ
 {rhf;maxit,200}
 {ccsd(t);maxit,200}

 Variables initialized (661), CPU time= 0.00 sec
 Commands  initialized (458), CPU time= 0.00 sec, 486 directives.
 Default parameters read. Elapsed time= 0.05 sec

 Checking input...
 Passed
1


                                         ***  PROGRAM SYSTEM MOLPRO  ***
                         Copyright, University College Cardiff Consultants Limited, 2008

                                    Version 2010.1 linked May 16 2016 07:17:05


 **********************************************************************************************************************************
 LABEL *   Optimization of formic acid                                                   
 Linux-4.4.3/n049(x86_64) 64 bit mpp version                                             DATE: 26-Apr-23          TIME: 18:11:06  
 **********************************************************************************************************************************

 SHA1:             9e8077add272b0f3cad6f7df79ec5211205f459d
 **********************************************************************************************************************************

 THRESHOLDS:

 ZERO    =  1.00D-12  ONEINT  =  1.00D-16  TWOINT  =  1.00D-16  PREFAC  =  1.00D-14  LOCALI  =  1.00D-09  EORDER  =  1.00D-04
 ENERGY  =  1.00D-12  ETEST   =  0.00D+00  EDENS   =  0.00D+00  THRDEDEF=  1.00D-06  GRADIENT=  1.00D-02  STEP    =  1.00D-03
 ORBITAL =  1.00D-10  CIVEC   =  1.00D-05  COEFF   =  1.00D-04  PRINTCI =  5.00D-02  PUNCHCI =  9.90D+01  OPTGRAD =  1.00D-06
 OPTENERG=  1.00D-06  OPTSTEP =  3.00D-04  THRGRAD =  1.00D-10  COMPRESS=  1.00D-13  VARMIN  =  1.00D-07  VARMAX  =  1.00D-03
 THRDOUB =  0.00D+00  THRDIV  =  1.00D-05  THRRED  =  1.00D-07  THRPSP  =  1.00D+00  THRDC   =  1.00D-10  THRCS   =  1.00D-10
 THRNRM  =  1.00D-08  THREQ   =  0.00D+00  THRDE   =  1.00D+00  THRREF  =  1.00D-05  SPARFAC =  1.00D+00  THRDLP  =  1.00D-07
 THRDIA  =  1.00D-10  THRDLS  =  1.00D-07  THRGPS  =  0.00D+00  THRKEX  =  0.00D+00  THRDIS  =  2.00D-01  THRVAR  =  1.00D-10
 THRLOC  =  1.00D-06  THRGAP  =  1.00D-06  THRLOCT = -1.00D+00  THRGAPT = -1.00D+00  THRORB  =  1.00D-06  THRMLTP =  0.00D+00
 THRCPQCI=  1.00D-10  KEXTA   =  0.00D+00  THRCOARS=  0.00D+00  SYMTOL  =  1.00D-06  GRADTOL =  1.00D-06  THROVL  =  1.00D-08
 THRORTH =  1.00D-08  GRID    =  1.00D-06  GRIDMAX =  1.00D-03  DTMAX   =  0.00D+00

 SETTING GEOMTYP        =    XYZ
 ZUNIT=BOHR
 

 Variable memory set to 1000000000 words,  buffer space   230000 words

 SETTING BASIS          =    VDZ


 Recomputing integrals since basis changed


 Using spherical harmonics

 Library entry C      S cc-pVDZ              selected for orbital group  1
 Library entry C      P cc-pVDZ              selected for orbital group  1
 Library entry C      D cc-pVDZ              selected for orbital group  1
 Library entry O      S cc-pVDZ              selected for orbital group  2
 Library entry O      P cc-pVDZ              selected for orbital group  2
 Library entry O      D cc-pVDZ              selected for orbital group  2
 Library entry H      S cc-pVDZ              selected for orbital group  3
 Library entry H      P cc-pVDZ              selected for orbital group  3

1PROGRAM * SEWARD (Integral evaluation for generally contracted gaussian basis sets)     Author: Roland Lindh, 1990

 Geometry written to block  1 of record 700


 Point group  Cs  



 ATOMIC COORDINATES

 NR  ATOM    CHARGE       X              Y              Z

   1  C       6.00   -3.501833524   -0.831951235    0.000000000
   2  O       8.00   -3.091669853    1.626705002    0.000000000
   3  O       8.00   -1.887189506   -2.476740793    0.000000000
   4  H       1.00   -5.518102159   -1.278883616    0.000000000
   5  H       1.00   -1.239889258    1.953644522    0.000000000
   6  C       6.00    3.499913687    0.827154251    0.000000000
   7  O       8.00    3.093055666   -1.623930464    0.000000000
   8  O       8.00    1.888789841    2.479113022    0.000000000
   9  H       1.00    5.518886747    1.280031232    0.000000000
  10  H       1.00    1.238038360   -1.955141920    0.000000000

 Bond lengths in Bohr (Angstrom)

 1-2  2.492634095  1-3  2.304866156  1-4  2.065208890  2-5  1.880420385  6-7  2.484622653
     ( 1.319045153)     ( 1.219682639)     ( 1.092861477)     ( 0.995075611)     ( 1.314805681)

  6- 8  2.307528511   6- 9  2.069142280   7-10  1.884354063
       ( 1.221091497)       ( 1.094942937)       ( 0.997157224)

 Bond angles

  1-2-5  109.48373308   2-1-3  126.05878558   2-1-4  111.96938808   3-1-4  121.97182635

  6- 7-10  109.54807737   7- 6- 8  126.29232247   7- 6- 9  112.06743142   8- 6- 9  121.64024611

 NUCLEAR CHARGE:                   48
 NUMBER OF PRIMITIVE AOS:         190
 NUMBER OF SYMMETRY AOS:          184
 NUMBER OF CONTRACTIONS:          104   (  76A'  +  28A"  )
 NUMBER OF CORE ORBITALS:           6   (   6A'  +   0A"  )
 NUMBER OF VALENCE ORBITALS:       28   (  22A'  +   6A"  )


 NUCLEAR REPULSION ENERGY  235.58280411


 Eigenvalues of metric

         1 0.818E-02 0.871E-02 0.138E-01 0.141E-01 0.165E-01 0.166E-01 0.298E-01 0.306E-01
         2 0.115E+00 0.116E+00 0.174E+00 0.175E+00 0.191E+00 0.194E+00 0.419E+00 0.421E+00


 Contracted 2-electron integrals neglected if value below      1.0D-16
 AO integral compression algorithm  1   Integral accuracy      1.0D-16

     61.604 MB (compressed) written to integral file ( 88.7%)

     Node minimum: 61.604 MB, node maximum: 61.604 MB


 NUMBER OF SORTED TWO-ELECTRON INTEGRALS:    7928690.     BUFFER LENGTH:  32768
 NUMBER OF SEGMENTS:   1  SEGMENT LENGTH:    7928690      RECORD LENGTH: 524288

 Memory used in sort:       8.49 MW

 SORT1 READ     8707167. AND WROTE     7786377. INTEGRALS IN     23 RECORDS. CPU TIME:     0.10 SEC, REAL TIME:     0.15 SEC
 SORT2 READ     7786377. AND WROTE     7928690. INTEGRALS IN    235 RECORDS. CPU TIME:     0.10 SEC, REAL TIME:     0.13 SEC

 FILE SIZES:   FILE 1:    59.0 MBYTE,  FILE 4:    96.5 MBYTE,   TOTAL:    155.5 MBYTE

 OPERATOR DM      FOR CENTER  0  COORDINATES:    0.000000    0.000000    0.000000


 **********************************************************************************************************************************
 DATASETS  * FILE   NREC   LENGTH (MB)   RECORD NAMES
              1      19       59.10       500      610      700      900      950      970     1000      129      960     1100   
                                          VAR    BASINP    GEOM    SYMINP    ZMAT    AOBASIS   BASIS     P2S    ABASIS      S 
                                         1400     1410     1200     1210     1080     1600     1650     1300     1700   
                                           T        V       H0       H01     AOSYM     SMH    MOLCAS    ERIS     OPER   

 PROGRAMS   *        TOTAL       INT
 CPU TIMES  *         1.87      1.83
 REAL TIME  *         2.18 SEC
 DISK USED  *       217.92 MB      
 GA USED    *         0.00 MB       (max)       0.00 MB       (current)
 **********************************************************************************************************************************

1PROGRAM * RHF-SCF (CLOSED SHELL)       Authors: W. Meyer, H.-J. Werner


 NUMBER OF ELECTRONS:      24+   24-
 CONVERGENCE THRESHOLDS:    1.00E-10 (Density)    1.00E-13 (Energy)
 MAX. NUMBER OF ITERATIONS:      200
 INTERPOLATION TYPE:            DIIS
 INTERPOLATION STEPS:              2 (START)      1 (STEP)
 LEVEL SHIFTS:                  0.00 (CLOSED)  0.00 (OPEN) 



 Orbital guess generated from atomic densities. Full valence occupancy:   28   6

 Molecular orbital dump at record        2100.2

 Initial alpha occupancy:  20   4
 Initial beta  occupancy:  20   4
 Wave function symmetry:    1

 ITERATION    DDIFF          GRAD             ENERGY        2-EL.EN.            DIPOLE MOMENTS         DIIS
    1      0.000D+00      0.000D+00      -377.45026475    747.166288   -0.00821   -0.02774    0.00000    0
    2      0.000D+00      0.141D-01      -377.53802819    744.313475   -0.00835   -0.01108    0.00000    1
    3      0.278D-01      0.873D-02      -377.58441076    746.561646   -0.00706   -0.01760    0.00000    2
    4      0.101D-01      0.123D-02      -377.58589724    746.281491   -0.00753   -0.01610    0.00000    3
    5      0.198D-02      0.513D-03      -377.58615694    746.307834   -0.00713   -0.01645    0.00000    4
    6      0.812D-03      0.148D-03      -377.58620336    746.351880   -0.00714   -0.01631    0.00000    5
    7      0.283D-03      0.676D-04      -377.58621479    746.336721   -0.00708   -0.01632    0.00000    6
    8      0.170D-03      0.200D-04      -377.58621579    746.341937   -0.00708   -0.01632    0.00000    7
    9      0.528D-04      0.675D-05      -377.58621589    746.340483   -0.00707   -0.01633    0.00000    8
   10      0.182D-04      0.185D-05      -377.58621590    746.340649   -0.00708   -0.01632    0.00000    7
   11      0.511D-05      0.475D-06      -377.58621590    746.340602   -0.00707   -0.01633    0.00000    8
   12      0.118D-05      0.204D-06      -377.58621590    746.340614   -0.00707   -0.01632    0.00000    8
   13      0.362D-06      0.544D-07      -377.58621590    746.340607   -0.00707   -0.01633    0.00000    8
   14      0.105D-06      0.170D-07      -377.58621590    746.340608   -0.00707   -0.01633    0.00000    8
   15      0.375D-07      0.808D-08      -377.58621590    746.340609   -0.00707   -0.01633    0.00000    8
   16      0.143D-07      0.175D-08      -377.58621590    746.340608   -0.00707   -0.01633    0.00000    8
   17      0.308D-08      0.639D-09      -377.58621590    746.340608   -0.00707   -0.01633    0.00000    8
   18      0.123D-08      0.231D-09      -377.58621590    746.340608   -0.00707   -0.01633    0.00000    8
   19      0.444D-09      0.775D-10      -377.58621590    746.340608   -0.00707   -0.01633    0.00000    8
   20      0.177D-09      0.331D-10      -377.58621590    746.340608   -0.00707   -0.01633    0.00000    8
   21      0.715D-10      0.106D-10      -377.58621590    746.340608   -0.00707   -0.01633    0.00000    8
   22      0.244D-10      0.369D-11      -377.58621590    746.340608   -0.00707   -0.01633    0.00000    0

 Final occupancy:  20   4

 !RHF STATE 1.1 Energy               -377.586215903109
 Nuclear energy                       235.58280411
 One-electron energy                 -986.33932405
 Two-electron energy                  373.17030404
 Virial quotient                       -1.00121067
 !RHF STATE 1.1 Dipole moment          -0.00707199    -0.01632678     0.00000000
 Dipole moment /Debye                  -0.01797404    -0.04149582     0.00000000

 Orbital energies:

         1.1          2.1          3.1          4.1          5.1          6.1          7.1          8.1          9.1         10.1
    -20.613921   -20.613073   -20.576222   -20.574988   -11.412116   -11.411579    -1.482132    -1.469319    -1.384072    -1.369999

        11.1         12.1         13.1         14.1         15.1         16.1         17.1         18.1         19.1         20.1
     -0.913942    -0.877790    -0.763657    -0.728176    -0.719384    -0.688919    -0.615245    -0.573644    -0.489498    -0.467804

        21.1         22.1
      0.204183     0.209822

         1.2          2.2          3.2          4.2          5.2          6.2
     -0.638447    -0.628833    -0.498657    -0.487941     0.161193     0.166342


 **********************************************************************************************************************************
 DATASETS  * FILE   NREC   LENGTH (MB)   RECORD NAMES
              1      19       59.10       500      610      700      900      950      970     1000      129      960     1100   
                                          VAR    BASINP    GEOM    SYMINP    ZMAT    AOBASIS   BASIS     P2S    ABASIS      S 
                                         1400     1410     1200     1210     1080     1600     1650     1300     1700   
                                           T        V       H0       H01     AOSYM     SMH    MOLCAS    ERIS     OPER   

              2       3        0.56       700     1000     2100   
                                         GEOM     BASIS     RHF  

 PROGRAMS   *        TOTAL       RHF       INT
 CPU TIMES  *         2.99      1.12      1.83
 REAL TIME  *         3.45 SEC
 DISK USED  *       217.92 MB      
 GA USED    *         0.00 MB       (max)       0.00 MB       (current)
 **********************************************************************************************************************************


1PROGRAM * CCSD (Closed-shell coupled cluster)     Authors: C. Hampel, H.-J. Werner, 1991, M. Deegan, P.J. Knowles, 1992


 Convergence thresholds:  THRVAR = 1.00D-08  THRDEN = 1.00D-12

 CCSD(T)     terms to be evaluated (factor= 1.000)


 Number of core orbitals:           6 (   6   0 )
 Number of closed-shell orbitals:  18 (  14   4 )
 Number of external orbitals:      80 (  56  24 )

 Molecular orbitals read from record     2100.2  Type=RHF/CANONICAL (state 1.1)

 Number of N-1 electron functions:              18
 Number of N-2 electron functions:             171
 Number of singly external CSFs:               880
 Number of doubly external CSFs:            544720
 Total number of CSFs:                      545601

 Length of J-op  integral file:               0.00 MB
 Length of K-op  integral file:               0.49 MB
 Length of 3-ext integral record:             0.00 MB

 Memory could be reduced to 7.20 Mwords without degradation in triples

 Integral transformation finished. Total CPU:   0.34 sec, npass=  1  Memory used:   4.51 MW

 Reference energy:                   -377.58621590

 MP2 singlet pair energy:              -0.59894194
 MP2 triplet pair energy:              -0.40679782
 MP2 correlation energy:               -1.00573976
 MP2 total energy:                   -378.59195566

 SCS-MP2 correlation energy:           -0.97184897   (PS=  1.200000  PT=  0.333333)
 SCS-MP2 total energy:               -378.55806487

 ITER.      SQ.NORM     CORR.ENERGY   TOTAL ENERGY   ENERGY CHANGE        DEN1      VAR(S)    VAR(P)  DIIS     TIME
   1      1.28146085    -1.02602257  -378.61223848    -0.02028282     0.01040973  0.10D-01  0.55D-02  1  1     1.31
   2      1.30509319    -1.02791674  -378.61413264    -0.00189417    -0.02502111  0.25D-03  0.10D-02  2  2     2.32
   3      1.31807351    -1.02886122  -378.61507712    -0.00094448    -0.00594305  0.20D-03  0.42D-04  3  3     3.33
   4      1.32339058    -1.02862948  -378.61484538     0.00023174    -0.00174549  0.17D-04  0.71D-05  4  4     4.35
   5      1.32544258    -1.02854034  -378.61475624     0.00008914    -0.00045612  0.11D-05  0.68D-06  5  5     5.36
   6      1.32578466    -1.02852013  -378.61473604     0.00002020    -0.00001560  0.10D-06  0.60D-07  6  6     6.38
   7      1.32585332    -1.02851251  -378.61472841     0.00000763    -0.00000447  0.86D-08  0.89D-08  6  2     7.41
   8      1.32585668    -1.02851336  -378.61472927    -0.00000086     0.00000204  0.18D-08  0.93D-09  6  1     8.42
   9      1.32585750    -1.02851303  -378.61472894     0.00000033     0.00000091  0.38D-09  0.17D-09  6  4     9.43
  10      1.32585939    -1.02851288  -378.61472878     0.00000016    -0.00000065  0.11D-09  0.29D-10  6  3    10.45
  11      1.32585888    -1.02851301  -378.61472891    -0.00000013     0.00000025  0.23D-10  0.61D-11  6  5    11.46
  12      1.32585853    -1.02851302  -378.61472893    -0.00000001     0.00000005  0.28D-11  0.12D-11  6  6    12.48
  13      1.32585818    -1.02851307  -378.61472897    -0.00000005     0.00000014  0.29D-12  0.22D-12  6  1    13.50
  14      1.32585806    -1.02851307  -378.61472898    -0.00000000     0.00000003  0.30D-13  0.24D-13  6  2    14.51
  15      1.32585802    -1.02851307  -378.61472898    -0.00000000     0.00000001  0.61D-14  0.29D-14  6  4    15.53
  16      1.32585801    -1.02851308  -378.61472898    -0.00000000     0.00000000  0.84D-15  0.61D-15  6  5    16.53
  17      1.32585800    -1.02851308  -378.61472898    -0.00000000    -0.00000000  0.93D-16  0.51D-16  6  3    17.55
  18      1.32585800    -1.02851308  -378.61472898    -0.00000000     0.00000000  0.16D-16  0.85D-17  6  6    18.56
  19      1.32585800    -1.02851308  -378.61472898    -0.00000000     0.00000000  0.40D-17  0.17D-17  6  1    19.57
  20      1.32585800    -1.02851308  -378.61472898     0.00000000    -0.00000000  0.65D-18  0.31D-18  6  5    20.59
  21      1.32585800    -1.02851308  -378.61472898    -0.00000000     0.00000000  0.11D-18  0.57D-19  6  4    21.61
  22      1.32585800    -1.02851308  -378.61472898     0.00000000    -0.00000000  0.89D-20  0.56D-20  6  2    22.62
  23      1.32585800    -1.02851308  -378.61472898     0.00000000     0.00000000  0.15D-20  0.10D-20  6  3    23.64
  24      1.32585800    -1.02851308  -378.61472898    -0.00000000     0.00000000  0.40D-21  0.22D-21  6  6    24.65

 Norm of t1 vector:      0.15213158      S-energy:     0.00000000      T1 diagnostic:  0.01792888
                                                                       D1 diagnostic:  0.06477449

 Singles amplitudes (print threshold =  0.500E-01):

         I         SYM. A    A   T(IA)

        15         2         1      0.05890287
        16         2         2     -0.06072694


 Total CPU time for triples:     12.33 sec


 RESULTS
 =======

  Reference energy                   -377.586215903110
  CCSD singlet pair energy             -0.670764502497
  CCSD triplet pair energy             -0.357748573641
  CCSD correlation energy              -1.028513076135

  Triples (T) contribution             -0.031869773010
  Total correlation energy             -1.060382849145

  CCSD total energy                  -378.614728979245
  CCSD[T] energy                     -378.649868604429
  CCSD-T energy                      -378.645522299214
 !CCSD(T) total energy               -378.646598752255

 Timing summary (sec):

 STEP                 CPU(USER)    SYS     CPU(TOT)    WALL
 Transformation          0.35      0.06      0.41      0.41
 CCSD iterations        24.30      0.78     25.08     25.12
 Triples                12.33      0.33     12.66     12.67

 Program statistics:

 Available memory in ccsd:               999998604
 Min. memory needed in ccsd:               1529844
 Max. memory used in ccsd:                 2011076
 Max. memory used in cckext:               2263698 (24 integral passes)



 **********************************************************************************************************************************
 DATASETS  * FILE   NREC   LENGTH (MB)   RECORD NAMES
              1      20       91.00       500      610      700      900      950      970     1000      129      960     1100   
                                          VAR    BASINP    GEOM    SYMINP    ZMAT    AOBASIS   BASIS     P2S    ABASIS      S 
                                         1400     1410     1200     1210     1080     1600     1650     1300     1700     1380   
                                           T        V       H0       H01     AOSYM     SMH    MOLCAS    ERIS     OPER     JKOP   

              2       3        0.56       700     1000     2100   
                                         GEOM     BASIS     RHF  

 PROGRAMS   *        TOTAL   CCSD(T)       RHF       INT
 CPU TIMES  *        39.98     36.99      1.12      1.83
 REAL TIME  *        41.71 SEC
 DISK USED  *       250.54 MB      
 GA USED    *         0.00 MB       (max)       0.00 MB       (current)
 **********************************************************************************************************************************

        CCSD(T)         RHF-SCF 
   -378.64659875   -377.58621590
 **********************************************************************************************************************************
 Variable memory released
