
 Primary working directories    : /tmp/943419.178.gen6.q
 Secondary working directories  : /tmp/943419.178.gen6.q
 Wavefunction directory         : /home/vulcan/mel64643/wfu/
 Main file repository           : /tmp/943419.178.gen6.q/

 ARCHNAME  : Linux/x86_64
 FC        : /opt/intel/compilers_and_libraries_2016.1.150/linux/bin/intel64/ifort
 FCVERSION : 16.0.1
 BLASLIB   : -mkl
 id        : ccgc

 Nodes     nprocs
 n079         1
 ga_uses_ma=false, calling ma_init with nominal heap.
 GA-space will be limited to   8.0 MW (determined by -G option)

 Using customized tuning parameters: mindgm=10; mindgv=16; mindgc=4; mindgr=1; noblas=0; mincuda=1000; minvec=7
 default implementation of scratch files=df  

 ***,Optimization of nh3_nitrosmethane
 memory,1000,m
 gthresh,energy=1.0d-12,orbital=1.0d-10,oneint=1.0d-16,twoint=1.0d-16,optgrad=1.0d-6,compress=1.0d-13
 geomtyp=xyz
 
 bohr
 geometry = {
  N   -5.2252831448   -0.1829715755    0.0041607755
  H   -6.3017763694    0.2206067014   -1.5316852729
  H   -3.7609475505    1.0600683670   -0.0072575401
  H   -6.2974456409    0.2436914093    1.5367932988
  H   -0.9224043414   -2.4030293759   -0.0075917652
  H    1.8900810214   -3.4335627391   -1.6675178856
  H    1.8802505264   -3.4384835630    1.6658441799
  C    1.1381398683   -2.4721775240   -0.0016170620
  N    2.2674083032    0.0961617096    0.0055047727
  O    0.6960958177    1.7867535991    0.0033664990
 }
 
 basis=aug-cc-pvtz
 {rhf;maxit,200}
 {mp2}

 Variables initialized (661), CPU time= 0.00 sec
 Commands  initialized (458), CPU time= 0.01 sec, 486 directives.
 Default parameters read. Elapsed time= 0.04 sec

 Checking input...
 Passed
1


                                         ***  PROGRAM SYSTEM MOLPRO  ***
                         Copyright, University College Cardiff Consultants Limited, 2008

                                    Version 2010.1 linked May 16 2016 07:17:05


 **********************************************************************************************************************************
 LABEL *   Optimization of nh3_nitrosmethane                                             
 Linux-4.4.3/n079(x86_64) 64 bit mpp version                                             DATE: 25-Oct-23          TIME: 22:02:03  
 **********************************************************************************************************************************

 SHA1:             9e8077add272b0f3cad6f7df79ec5211205f459d
 **********************************************************************************************************************************

 THRESHOLDS:

 ZERO    =  1.00D-12  ONEINT  =  1.00D-16  TWOINT  =  1.00D-16  PREFAC  =  1.00D-14  LOCALI  =  1.00D-09  EORDER  =  1.00D-04
 ENERGY  =  1.00D-12  ETEST   =  0.00D+00  EDENS   =  0.00D+00  THRDEDEF=  1.00D-06  GRADIENT=  1.00D-02  STEP    =  1.00D-03
 ORBITAL =  1.00D-10  CIVEC   =  1.00D-05  COEFF   =  1.00D-04  PRINTCI =  5.00D-02  PUNCHCI =  9.90D+01  OPTGRAD =  1.00D-06
 OPTENERG=  1.00D-06  OPTSTEP =  3.00D-04  THRGRAD =  1.00D-10  COMPRESS=  1.00D-13  VARMIN  =  1.00D-07  VARMAX  =  1.00D-03
 THRDOUB =  0.00D+00  THRDIV  =  1.00D-05  THRRED  =  1.00D-07  THRPSP  =  1.00D+00  THRDC   =  1.00D-10  THRCS   =  1.00D-10
 THRNRM  =  1.00D-08  THREQ   =  0.00D+00  THRDE   =  1.00D+00  THRREF  =  1.00D-05  SPARFAC =  1.00D+00  THRDLP  =  1.00D-07
 THRDIA  =  1.00D-10  THRDLS  =  1.00D-07  THRGPS  =  0.00D+00  THRKEX  =  0.00D+00  THRDIS  =  2.00D-01  THRVAR  =  1.00D-10
 THRLOC  =  1.00D-06  THRGAP  =  1.00D-06  THRLOCT = -1.00D+00  THRGAPT = -1.00D+00  THRORB  =  1.00D-06  THRMLTP =  0.00D+00
 THRCPQCI=  1.00D-10  KEXTA   =  0.00D+00  THRCOARS=  0.00D+00  SYMTOL  =  1.00D-06  GRADTOL =  1.00D-06  THROVL  =  1.00D-08
 THRORTH =  1.00D-08  GRID    =  1.00D-06  GRIDMAX =  1.00D-03  DTMAX   =  0.00D+00

 SETTING GEOMTYP        =    XYZ
 ZUNIT=BOHR
 

 Variable memory set to 1000000000 words,  buffer space   230000 words

 SETTING BASIS          =    AUG-CC-PVTZ


 Recomputing integrals since basis changed


 Using spherical harmonics

 Library entry N      S aug-cc-pVTZ          selected for orbital group  1
 Library entry N      P aug-cc-pVTZ          selected for orbital group  1
 Library entry N      D aug-cc-pVTZ          selected for orbital group  1
 Library entry N      F aug-cc-pVTZ          selected for orbital group  1
 Library entry H      S aug-cc-pVTZ          selected for orbital group  2
 Library entry H      P aug-cc-pVTZ          selected for orbital group  2
 Library entry H      D aug-cc-pVTZ          selected for orbital group  2
 Library entry C      S aug-cc-pVTZ          selected for orbital group  3
 Library entry C      P aug-cc-pVTZ          selected for orbital group  3
 Library entry C      D aug-cc-pVTZ          selected for orbital group  3
 Library entry C      F aug-cc-pVTZ          selected for orbital group  3
 Library entry O      S aug-cc-pVTZ          selected for orbital group  5
 Library entry O      P aug-cc-pVTZ          selected for orbital group  5
 Library entry O      D aug-cc-pVTZ          selected for orbital group  5
 Library entry O      F aug-cc-pVTZ          selected for orbital group  5

1PROGRAM * SEWARD (Integral evaluation for generally contracted gaussian basis sets)     Author: Roland Lindh, 1990

 Geometry written to block  1 of record 700


 Point group  C1  



 ATOMIC COORDINATES

 NR  ATOM    CHARGE       X              Y              Z

   1  N       7.00   -5.225283145   -0.182971576    0.004160775
   2  H       1.00   -6.301776369    0.220606701   -1.531685273
   3  H       1.00   -3.760947551    1.060068367   -0.007257540
   4  H       1.00   -6.297445641    0.243691409    1.536793299
   5  H       1.00   -0.922404341   -2.403029376   -0.007591765
   6  H       1.00    1.890081021   -3.433562739   -1.667517886
   7  H       1.00    1.880250526   -3.438483563    1.665844180
   8  C       6.00    1.138139868   -2.472177524   -0.001617062
   9  N       7.00    2.267408303    0.096161710    0.005504773
  10  O       8.00    0.696095818    1.786753599    0.003366499

 Bond lengths in Bohr (Angstrom)

 1-2  1.918472354  1-3  1.920822066  1-4  1.918472354  5-8  2.061712784  6-8  2.065164057
     ( 1.015211846)     ( 1.016455260)     ( 1.015211846)     ( 1.091011417)     ( 1.092837752)

  7- 8  2.065164057   8- 9  2.805648648   9-10  2.308057286
       ( 1.092837752)       ( 1.484685321)       ( 1.221371313)

 Bond angles

  2-1-3  106.67095326   2-1-4  106.21107515   3-1-4  106.67095331   5-8-6  112.15889799

  5-8-7  112.15889720   5-8-9  111.81278727   6-8-7  107.61735116   6-8-9  106.35838702

  7- 8- 9  106.35838660   8- 9-10  113.35946297

 NUCLEAR CHARGE:                   34
 NUMBER OF PRIMITIVE AOS:         430
 NUMBER OF SYMMETRY AOS:          382
 NUMBER OF CONTRACTIONS:          322   ( 322A   )
 NUMBER OF CORE ORBITALS:           4   (   4A   )
 NUMBER OF VALENCE ORBITALS:       22   (  22A   )


 NUCLEAR REPULSION ENERGY  117.25088532


 Eigenvalues of metric

         1 0.333E-04 0.531E-04 0.822E-04 0.106E-03 0.119E-03 0.170E-03 0.234E-03 0.237E-03


 Contracted 2-electron integrals neglected if value below      1.0D-16
 AO integral compression algorithm  1   Integral accuracy      1.0D-16

     9750.184 MB (compressed) written to integral file ( 80.9%)

     Node minimum: 9750.184 MB, node maximum: 9750.184 MB


 NUMBER OF SORTED TWO-ELECTRON INTEGRALS: 1352182006.     BUFFER LENGTH:  32768
 NUMBER OF SEGMENTS:  43  SEGMENT LENGTH:   31998710      RECORD LENGTH: 524288

 Memory used in sort:      32.56 MW

 SORT1 READ  1506454996. AND WROTE  1291674568. INTEGRALS IN   3717 RECORDS. CPU TIME:    14.95 SEC, REAL TIME:    44.81 SEC
 SORT2 READ  1291674568. AND WROTE  1352182006. INTEGRALS IN  37194 RECORDS. CPU TIME:     8.56 SEC, REAL TIME:    43.22 SEC

 FILE SIZES:   FILE 1:  8853.6 MBYTE,  FILE 4: 15590.3 MBYTE,   TOTAL:  24443.9 MBYTE

 OPERATOR DM      FOR CENTER  0  COORDINATES:    0.000000    0.000000    0.000000


 **********************************************************************************************************************************
 DATASETS  * FILE   NREC   LENGTH (MB)   RECORD NAMES
              1      19     8854.89       500      610      700      900      950      970     1000      129      960     1100   
                                          VAR    BASINP    GEOM    SYMINP    ZMAT    AOBASIS   BASIS     P2S    ABASIS      S 
                                         1400     1410     1200     1210     1080     1600     1650     1300     1700   
                                           T        V       H0       H01     AOSYM     SMH    MOLCAS    ERIS     OPER   

 PROGRAMS   *        TOTAL       INT
 CPU TIMES  *        55.87     55.83
 REAL TIME  *       126.06 SEC
 DISK USED  *        34.19 GB      
 GA USED    *         0.00 MB       (max)       0.00 MB       (current)
 **********************************************************************************************************************************

1PROGRAM * RHF-SCF (CLOSED SHELL)       Authors: W. Meyer, H.-J. Werner


 NUMBER OF ELECTRONS:      17+   17-    SPACE SYMMETRY=1    SPIN SYMMETRY: Singlet 
 CONVERGENCE THRESHOLDS:    1.00E-10 (Density)    1.00E-13 (Energy)
 MAX. NUMBER OF ITERATIONS:      200
 INTERPOLATION TYPE:            DIIS
 INTERPOLATION STEPS:              2 (START)      1 (STEP)
 LEVEL SHIFTS:                  0.00 (CLOSED)  0.00 (OPEN) 



 Orbital guess generated from atomic densities. Full valence occupancy:   26

 Molecular orbital dump at record        2100.2

 ITERATION    DDIFF          GRAD             ENERGY        2-EL.EN.            DIPOLE MOMENTS         DIIS
    1      0.000D+00      0.000D+00      -225.01595795    393.240732    0.08424   -0.62780   -0.00704    0
    2      0.000D+00      0.280D-02      -225.07604565    392.657692   -0.57988   -0.38322   -0.00565    1
    3      0.491D-02      0.205D-02      -225.11271889    393.269976   -0.22642   -0.57288   -0.00548    2
    4      0.207D-02      0.393D-03      -225.11501607    393.127764   -0.30333   -0.47293   -0.00576    3
    5      0.559D-03      0.160D-03      -225.11546441    393.135731   -0.30020   -0.50136   -0.00573    4
    6      0.236D-03      0.391D-04      -225.11551276    393.161473   -0.30613   -0.49760   -0.00575    5
    7      0.836D-04      0.149D-04      -225.11551974    393.145611   -0.30798   -0.49757   -0.00576    6
    8      0.341D-04      0.611D-05      -225.11552090    393.152334   -0.30905   -0.49743   -0.00576    7
    9      0.134D-04      0.273D-05      -225.11552117    393.150844   -0.30938   -0.49709   -0.00576    8
   10      0.754D-05      0.848D-06      -225.11552120    393.150538   -0.30950   -0.49688   -0.00576    8
   11      0.252D-05      0.278D-06      -225.11552120    393.150660   -0.30952   -0.49678   -0.00576    8
   12      0.778D-06      0.893D-07      -225.11552120    393.150609   -0.30952   -0.49675   -0.00576    8
   13      0.303D-06      0.309D-07      -225.11552120    393.150603   -0.30953   -0.49674   -0.00576    8
   14      0.762D-07      0.149D-07      -225.11552120    393.150605   -0.30953   -0.49674   -0.00576    9
   15      0.332D-07      0.198D-08      -225.11552120    393.150606   -0.30953   -0.49674   -0.00576    8
   16      0.510D-08      0.111D-08      -225.11552120    393.150606   -0.30953   -0.49674   -0.00576    7
   17      0.343D-08      0.800D-09      -225.11552120    393.150606   -0.30953   -0.49674   -0.00576    7
   18      0.394D-08      0.515D-09      -225.11552120    393.150606   -0.30953   -0.49674   -0.00576    8
   19      0.466D-08      0.169D-09      -225.11552120    393.150606   -0.30953   -0.49674   -0.00576    9
   20      0.149D-08      0.376D-10      -225.11552120    393.150606   -0.30953   -0.49674   -0.00576    9
   21      0.199D-09      0.123D-10      -225.11552120    393.150606   -0.30953   -0.49674   -0.00576    9
   22      0.370D-10      0.452D-11      -225.11552120    393.150606   -0.30953   -0.49674   -0.00576    9
   23      0.226D-10      0.154D-11      -225.11552120    393.150606   -0.30953   -0.49674   -0.00576    9
   24      0.206D-10      0.579D-12      -225.11552120    393.150606   -0.30953   -0.49674   -0.00576    9
   25      0.967D-11      0.289D-12      -225.11552120    393.150606   -0.30953   -0.49674   -0.00576    9
   26      0.114D-10      0.198D-12      -225.11552120    393.150606   -0.30953   -0.49674   -0.00576    9
   27      0.835D-11      0.140D-12      -225.11552120    393.150606   -0.30953   -0.49674   -0.00576    9
   28      0.449D-11      0.127D-12      -225.11552120    393.150606   -0.30953   -0.49674   -0.00576    9
   29      0.300D-11      0.113D-12      -225.11552120    393.150606   -0.30953   -0.49674   -0.00576    9
   30      0.206D-11      0.156D-12      -225.11552120    393.150606   -0.30953   -0.49674   -0.00576    9
   31      0.832D-12      0.173D-12      -225.11552120    393.150606   -0.30953   -0.49674   -0.00576    9
   32      0.529D-12      0.160D-12      -225.11552120    393.150606   -0.30953   -0.49674   -0.00576    9
   33      0.136D-11      0.121D-12      -225.11552120    393.150606   -0.30953   -0.49674   -0.00576    9
   34      0.993D-12      0.111D-12      -225.11552120    393.150606   -0.30953   -0.49674   -0.00576    9
   35      0.165D-11      0.104D-12      -225.11552120    393.150606   -0.30953   -0.49674   -0.00576    9
   36      0.169D-11      0.134D-12      -225.11552120    393.150606   -0.30953   -0.49674   -0.00576    9
   37      0.130D-11      0.118D-12      -225.11552120    393.150606   -0.30953   -0.49674   -0.00576    9
   38      0.161D-11      0.151D-12      -225.11552120    393.150606   -0.30953   -0.49674   -0.00576    9
   39      0.119D-11      0.113D-12      -225.11552120    393.150606   -0.30953   -0.49674   -0.00576    9
   40      0.105D-11      0.141D-12      -225.11552120    393.150606   -0.30953   -0.49674   -0.00576    9
   41      0.124D-11      0.116D-12      -225.11552120    393.150606   -0.30953   -0.49674   -0.00576    9
   42      0.176D-11      0.133D-12      -225.11552120    393.150606   -0.30953   -0.49674   -0.00576    9
   43      0.138D-11      0.108D-12      -225.11552120    393.150606   -0.30953   -0.49674   -0.00576    9
   44      0.113D-11      0.132D-12      -225.11552120    393.150606   -0.30953   -0.49674   -0.00576    9
   45      0.126D-11      0.117D-12      -225.11552120    393.150606   -0.30953   -0.49674   -0.00576    9
   46      0.506D-12      0.115D-12      -225.11552120    393.150606   -0.30953   -0.49674   -0.00576    9
   47      0.131D-11      0.128D-12      -225.11552120    393.150606   -0.30953   -0.49674   -0.00576    9
   48      0.867D-12      0.129D-12      -225.11552120    393.150606   -0.30953   -0.49674   -0.00576    9
   49      0.171D-11      0.144D-12      -225.11552120    393.150606   -0.30953   -0.49674   -0.00576    9
   50      0.121D-11      0.133D-12      -225.11552120    393.150606   -0.30953   -0.49674   -0.00576    9
   51      0.140D-11      0.138D-12      -225.11552120    393.150606   -0.30953   -0.49674   -0.00576    9
   52      0.236D-11      0.243D-12      -225.11552120    393.150606   -0.30953   -0.49674   -0.00576    0

 Final occupancy:  17

 !RHF STATE 1.1 Energy               -225.115521203141
 Nuclear energy                       117.25088532
 One-electron energy                 -538.94170929
 Two-electron energy                  196.57530277
 Virial quotient                       -1.00211856
 !RHF STATE 1.1 Dipole moment          -0.30952537    -0.49673981    -0.00576232
 Dipole moment /Debye                  -0.78668349    -1.26250397    -0.01464538

 Orbital energies:

         1.1          2.1          3.1          4.1          5.1          6.1          7.1          8.1          9.1         10.1
    -20.631235   -15.707094   -15.538813   -11.264671    -1.505226    -1.138698    -1.074632    -0.861161    -0.689934    -0.674166

        11.1         12.1         13.1         14.1         15.1         16.1         17.1         18.1         19.1
     -0.635127    -0.624211    -0.623643    -0.556221    -0.533392    -0.429185    -0.408144     0.028772     0.038527


 **********************************************************************************************************************************
 DATASETS  * FILE   NREC   LENGTH (MB)   RECORD NAMES
              1      19     8854.89       500      610      700      900      950      970     1000      129      960     1100   
                                          VAR    BASINP    GEOM    SYMINP    ZMAT    AOBASIS   BASIS     P2S    ABASIS      S 
                                         1400     1410     1200     1210     1080     1600     1650     1300     1700   
                                           T        V       H0       H01     AOSYM     SMH    MOLCAS    ERIS     OPER   

              2       3        2.54       700     1000     2100   
                                         GEOM     BASIS     RHF  

 PROGRAMS   *        TOTAL       RHF       INT
 CPU TIMES  *       529.05    473.17     55.83
 REAL TIME  *       639.85 SEC
 DISK USED  *        34.19 GB      
 GA USED    *         0.00 MB       (max)       0.00 MB       (current)
 **********************************************************************************************************************************


1PROGRAM * MP2 (Closed-shell)     Authors: C. Hampel, H.-J. Werner, 1991, M. Deegan, P.J. Knowles, 1992


 Convergence thresholds:  THRVAR = 1.00D-08  THRDEN = 1.00D-12

 Number of core orbitals:           4 (   4 )
 Number of closed-shell orbitals:  13 (  13 )
 Number of external orbitals:     305 ( 305 )

 Molecular orbitals read from record     2100.2  Type=RHF/CANONICAL (state 1.1)

 Number of N-1 electron functions:              13
 Number of N-2 electron functions:              91
 Number of singly external CSFs:              3965
 Number of doubly external CSFs:           7862595
 Total number of CSFs:                     7866561

 Length of J-op  integral file:               0.00 MB
 Length of K-op  integral file:               7.17 MB

 Integral transformation finished. Total CPU:  18.46 sec, npass=  1  Memory used:  17.90 MW

 Memory needed for MP2:                      0.51 MW

 SCS-MP2 correlation energy:           -0.859944545179   (PS=  1.200000  PT=  0.333333)
 SCS-MP2 total energy:               -225.975465748320


  Reference energy                   -225.115521203140
  MP2 singlet pair energy              -0.557648760025
  MP2 triplet pair energy              -0.306588267561
  MP2 correlation energy               -0.864237027586

 !MP2 total energy                   -225.979758230727


 **********************************************************************************************************************************
 DATASETS  * FILE   NREC   LENGTH (MB)   RECORD NAMES
              1      20     8970.13       500      610      700      900      950      970     1000      129      960     1100   
                                          VAR    BASINP    GEOM    SYMINP    ZMAT    AOBASIS   BASIS     P2S    ABASIS      S 
                                         1400     1410     1200     1210     1080     1600     1650     1300     1700     1380   
                                           T        V       H0       H01     AOSYM     SMH    MOLCAS    ERIS     OPER     JKOP   

              2       3        2.54       700     1000     2100   
                                         GEOM     BASIS     RHF  

 PROGRAMS   *        TOTAL       MP2       RHF       INT
 CPU TIMES  *       548.17     19.11    473.17     55.83
 REAL TIME  *       659.99 SEC
 DISK USED  *        34.19 GB      
 GA USED    *         0.00 MB       (max)       0.00 MB       (current)
 **********************************************************************************************************************************

        MP2             RHF-SCF 
   -225.97975823   -225.11552120
 **********************************************************************************************************************************
 Variable memory released
