
 Primary working directories    : /tmp/878919.786.gen6.q
 Secondary working directories  : /tmp/878919.786.gen6.q
 Wavefunction directory         : /home/vulcan/lo21740/wfu/
 Main file repository           : /tmp/878919.786.gen6.q/

 ARCHNAME  : Linux/x86_64
 FC        : /opt/intel/compilers_and_libraries_2016.1.150/linux/bin/intel64/ifort
 FCVERSION : 16.0.1
 BLASLIB   : -mkl
 id        : ccgc

 Nodes     nprocs
 n084         1
 ga_uses_ma=false, calling ma_init with nominal heap.
 GA-space will be limited to   8.0 MW (determined by -G option)

 Using customized tuning parameters: mindgm=10; mindgv=16; mindgc=4; mindgr=1; noblas=0; mincuda=1000; minvec=7
 default implementation of scratch files=df  

 ***,Optimization of formamide
 memory,1000,m
 gthresh,energy=1.0d-12,orbital=1.0d-10,oneint=1.0d-16,twoint=1.0d-16,optgrad=1.0d-6,compress=1.0d-13
 geomtyp=xyz
 
 bohr
 geometry = {
  C   -3.8269648518    0.0894298976   -0.0000000000
  O   -2.7362417794    2.1459320582   -0.0000000000
  N   -2.6810999005   -2.1801579334    0.0000000000
  H   -3.7429896837   -3.7603290213    0.0000000000
  H   -0.7463558922   -2.3075222215    0.0000000000
  H   -5.9008452100   -0.0188085480    0.0000000000
  C    3.8269648518   -0.0894298976    0.0000000000
  O    2.7362417794   -2.1459320582    0.0000000000
  N    2.6810999005    2.1801579334   -0.0000000000
  H    3.7429896837    3.7603290213   -0.0000000000
  H    0.7463558922    2.3075222215   -0.0000000000
  H    5.9008452100    0.0188085480    0.0000000000
 }
 
 basis=VDZ
 {rhf;maxit,200}
 {ccsd(t);maxit,200}

 Variables initialized (661), CPU time= 0.00 sec
 Commands  initialized (458), CPU time= 0.01 sec, 486 directives.
 Default parameters read. Elapsed time= 0.04 sec

 Checking input...
 Passed
1


                                         ***  PROGRAM SYSTEM MOLPRO  ***
                         Copyright, University College Cardiff Consultants Limited, 2008

                                    Version 2010.1 linked May 16 2016 07:17:05


 **********************************************************************************************************************************
 LABEL *   Optimization of formamide                                                     
 Linux-4.4.3/n084(x86_64) 64 bit mpp version                                             DATE: 22-May-23          TIME: 21:37:52  
 **********************************************************************************************************************************

 SHA1:             9e8077add272b0f3cad6f7df79ec5211205f459d
 **********************************************************************************************************************************

 THRESHOLDS:

 ZERO    =  1.00D-12  ONEINT  =  1.00D-16  TWOINT  =  1.00D-16  PREFAC  =  1.00D-14  LOCALI  =  1.00D-09  EORDER  =  1.00D-04
 ENERGY  =  1.00D-12  ETEST   =  0.00D+00  EDENS   =  0.00D+00  THRDEDEF=  1.00D-06  GRADIENT=  1.00D-02  STEP    =  1.00D-03
 ORBITAL =  1.00D-10  CIVEC   =  1.00D-05  COEFF   =  1.00D-04  PRINTCI =  5.00D-02  PUNCHCI =  9.90D+01  OPTGRAD =  1.00D-06
 OPTENERG=  1.00D-06  OPTSTEP =  3.00D-04  THRGRAD =  1.00D-10  COMPRESS=  1.00D-13  VARMIN  =  1.00D-07  VARMAX  =  1.00D-03
 THRDOUB =  0.00D+00  THRDIV  =  1.00D-05  THRRED  =  1.00D-07  THRPSP  =  1.00D+00  THRDC   =  1.00D-10  THRCS   =  1.00D-10
 THRNRM  =  1.00D-08  THREQ   =  0.00D+00  THRDE   =  1.00D+00  THRREF  =  1.00D-05  SPARFAC =  1.00D+00  THRDLP  =  1.00D-07
 THRDIA  =  1.00D-10  THRDLS  =  1.00D-07  THRGPS  =  0.00D+00  THRKEX  =  0.00D+00  THRDIS  =  2.00D-01  THRVAR  =  1.00D-10
 THRLOC  =  1.00D-06  THRGAP  =  1.00D-06  THRLOCT = -1.00D+00  THRGAPT = -1.00D+00  THRORB  =  1.00D-06  THRMLTP =  0.00D+00
 THRCPQCI=  1.00D-10  KEXTA   =  0.00D+00  THRCOARS=  0.00D+00  SYMTOL  =  1.00D-06  GRADTOL =  1.00D-06  THROVL  =  1.00D-08
 THRORTH =  1.00D-08  GRID    =  1.00D-06  GRIDMAX =  1.00D-03  DTMAX   =  0.00D+00

 SETTING GEOMTYP        =    XYZ
 ZUNIT=BOHR
 

 Variable memory set to 1000000000 words,  buffer space   230000 words

 SETTING BASIS          =    VDZ


 Recomputing integrals since basis changed


 Using spherical harmonics

 Library entry C      S cc-pVDZ              selected for orbital group  1
 Library entry C      P cc-pVDZ              selected for orbital group  1
 Library entry C      D cc-pVDZ              selected for orbital group  1
 Library entry O      S cc-pVDZ              selected for orbital group  2
 Library entry O      P cc-pVDZ              selected for orbital group  2
 Library entry O      D cc-pVDZ              selected for orbital group  2
 Library entry N      S cc-pVDZ              selected for orbital group  3
 Library entry N      P cc-pVDZ              selected for orbital group  3
 Library entry N      D cc-pVDZ              selected for orbital group  3
 Library entry H      S cc-pVDZ              selected for orbital group  4
 Library entry H      P cc-pVDZ              selected for orbital group  4

1PROGRAM * SEWARD (Integral evaluation for generally contracted gaussian basis sets)     Author: Roland Lindh, 1990

 Geometry written to block  1 of record 700


 Point group  C2h 



 ATOMIC COORDINATES

 NR  ATOM    CHARGE       X              Y              Z

   1  C       6.00   -3.826964852    0.089429898    0.000000000
   2  C       6.00    3.826964852   -0.089429898    0.000000000
   3  O       8.00   -2.736241779    2.145932058    0.000000000
   4  O       8.00    2.736241779   -2.145932058    0.000000000
   5  N       7.00   -2.681099901   -2.180157933    0.000000000
   6  N       7.00    2.681099901    2.180157933    0.000000000
   7  H       1.00   -3.742989684   -3.760329021    0.000000000
   8  H       1.00    3.742989684    3.760329021    0.000000000
   9  H       1.00   -0.746355892   -2.307522222    0.000000000
  10  H       1.00    0.746355892    2.307522222    0.000000000
  11  H       1.00   -5.900845210   -0.018808548    0.000000000
  12  H       1.00    5.900845210    0.018808548    0.000000000

 Bond lengths in Bohr (Angstrom)

  1- 3  2.327848354   1- 5  2.542446737   1-11  2.076702988   2- 4  2.327848354   2- 6  2.542446737
       ( 1.231844295)       ( 1.345404868)       ( 1.098943891)       ( 1.231844295)       ( 1.345404868)

  2-12  2.076702988   5- 7  1.903825249   5- 9  1.938931675   6- 8  1.903825249   6-10  1.938931675
       ( 1.098943891)       ( 1.007460932)       ( 1.026038452)       ( 1.007460932)       ( 1.026038452)

 Bond angles

  1- 5- 7  119.31032385   1- 5- 9  120.55455490   2- 6- 8  119.31032385   2- 6-10  120.55455490

  3- 1- 5  125.27130862   3- 1-11  120.92811464   4- 2- 6  125.27130862   4- 2-12  120.92811464

  5- 1-11  113.80057675   6- 2-12  113.80057675   7- 5- 9  120.13512125   8- 6-10  120.13512125

 NUCLEAR CHARGE:                   48
 NUMBER OF PRIMITIVE AOS:         204
 NUMBER OF SYMMETRY AOS:          198
 NUMBER OF CONTRACTIONS:          114   (  42Ag  +  15Au  +  42Bu  +  15Bg  )
 NUMBER OF CORE ORBITALS:           6   (   3Ag  +   0Au  +   3Bu  +   0Bg  )
 NUMBER OF VALENCE ORBITALS:       30   (  12Ag  +   3Au  +  12Bu  +   3Bg  )


 NUCLEAR REPULSION ENERGY  230.25604181


 Eigenvalues of metric

         1 0.557E-02 0.108E-01 0.153E-01 0.239E-01 0.306E-01 0.408E-01 0.420E-01 0.489E-01
         2 0.106E+00 0.169E+00 0.196E+00 0.401E+00 0.437E+00 0.497E+00 0.533E+00 0.602E+00
         3 0.573E-02 0.113E-01 0.154E-01 0.242E-01 0.281E-01 0.400E-01 0.413E-01 0.434E-01
         4 0.105E+00 0.173E+00 0.192E+00 0.409E+00 0.438E+00 0.502E+00 0.526E+00 0.591E+00


 Contracted 2-electron integrals neglected if value below      1.0D-16
 AO integral compression algorithm  1   Integral accuracy      1.0D-16

     56.361 MB (compressed) written to integral file (100.0%)

     Node minimum: 56.361 MB, node maximum: 56.361 MB


 NUMBER OF SORTED TWO-ELECTRON INTEGRALS:    5811279.     BUFFER LENGTH:  32768
 NUMBER OF SEGMENTS:   1  SEGMENT LENGTH:    5811279      RECORD LENGTH: 524288

 Memory used in sort:       6.37 MW

 SORT1 READ     6960680. AND WROTE     5811277. INTEGRALS IN     17 RECORDS. CPU TIME:     0.11 SEC, REAL TIME:     0.14 SEC
 SORT2 READ     5811277. AND WROTE     5811279. INTEGRALS IN    215 RECORDS. CPU TIME:     0.08 SEC, REAL TIME:     0.12 SEC

 FILE SIZES:   FILE 1:    50.0 MBYTE,  FILE 4:    71.3 MBYTE,   TOTAL:    121.3 MBYTE

 OPERATOR DM      FOR CENTER  0  COORDINATES:    0.000000    0.000000    0.000000


 **********************************************************************************************************************************
 DATASETS  * FILE   NREC   LENGTH (MB)   RECORD NAMES
              1      19       50.04       500      610      700      900      950      970     1000      129      960     1100   
                                          VAR    BASINP    GEOM    SYMINP    ZMAT    AOBASIS   BASIS     P2S    ABASIS      S 
                                         1400     1410     1200     1210     1080     1600     1650     1300     1700   
                                           T        V       H0       H01     AOSYM     SMH    MOLCAS    ERIS     OPER   

 PROGRAMS   *        TOTAL       INT
 CPU TIMES  *         1.32      1.28
 REAL TIME  *         1.61 SEC
 DISK USED  *       178.55 MB      
 GA USED    *         0.00 MB       (max)       0.00 MB       (current)
 **********************************************************************************************************************************

1PROGRAM * RHF-SCF (CLOSED SHELL)       Authors: W. Meyer, H.-J. Werner


 NUMBER OF ELECTRONS:      24+   24-
 CONVERGENCE THRESHOLDS:    1.00E-10 (Density)    1.00E-13 (Energy)
 MAX. NUMBER OF ITERATIONS:      200
 INTERPOLATION TYPE:            DIIS
 INTERPOLATION STEPS:              2 (START)      1 (STEP)
 LEVEL SHIFTS:                  0.00 (CLOSED)  0.00 (OPEN) 



 Orbital guess generated from atomic densities. Full valence occupancy:   15   3  15   3

 Molecular orbital dump at record        2100.2

 Initial alpha occupancy:  10   2  10   2
 Initial beta  occupancy:  10   2  10   2
 Wave function symmetry:    1

 ITERATION    DDIFF          GRAD             ENERGY        2-EL.EN.            DIPOLE MOMENTS         DIIS
    1      0.000D+00      0.000D+00      -337.77877679    704.907763    0.00000    0.00000    0.00000    0
    2      0.000D+00      0.170D-01      -337.85722039    699.743148    0.00000    0.00000    0.00000    1
    3      0.340D-01      0.121D-01      -337.91305858    702.208895    0.00000    0.00000    0.00000    2
    4      0.131D-01      0.160D-02      -337.91517386    702.194681    0.00000    0.00000    0.00000    3
    5      0.288D-02      0.564D-03      -337.91544418    702.123092    0.00000    0.00000    0.00000    4
    6      0.104D-02      0.189D-03      -337.91551307    702.142449    0.00000    0.00000    0.00000    5
    7      0.484D-03      0.844D-04      -337.91552460    702.137761    0.00000    0.00000    0.00000    6
    8      0.245D-03      0.222D-04      -337.91552532    702.138364    0.00000    0.00000    0.00000    7
    9      0.627D-04      0.569D-05      -337.91552537    702.137879    0.00000    0.00000    0.00000    7
   10      0.176D-04      0.128D-05      -337.91552537    702.138171    0.00000    0.00000    0.00000    7
   11      0.349D-05      0.350D-06      -337.91552537    702.138066    0.00000    0.00000    0.00000    8
   12      0.836D-06      0.664D-07      -337.91552537    702.138079    0.00000    0.00000    0.00000    7
   13      0.154D-06      0.210D-07      -337.91552537    702.138080    0.00000    0.00000    0.00000    7
   14      0.615D-07      0.513D-08      -337.91552537    702.138080    0.00000    0.00000    0.00000    7
   15      0.120D-07      0.157D-08      -337.91552537    702.138080    0.00000    0.00000    0.00000    7
   16      0.374D-08      0.387D-09      -337.91552537    702.138080    0.00000    0.00000    0.00000    7
   17      0.936D-09      0.175D-09      -337.91552537    702.138080    0.00000    0.00000    0.00000    7
   18      0.477D-09      0.324D-10      -337.91552537    702.138080    0.00000    0.00000    0.00000    7
   19      0.775D-10      0.119D-10      -337.91552537    702.138080    0.00000    0.00000    0.00000    7
   20      0.232D-10      0.261D-11      -337.91552537    702.138080    0.00000    0.00000    0.00000    7
   21      0.659D-11      0.752D-12      -337.91552537    702.138080    0.00000    0.00000    0.00000    7
   22      0.184D-11      0.172D-12      -337.91552537    702.138080    0.00000    0.00000    0.00000    7
   23      0.469D-12      0.650D-13      -337.91552537    702.138080    0.00000    0.00000    0.00000    7
   24      0.187D-12      0.296D-13      -337.91552537    702.138080    0.00000    0.00000    0.00000    7
   25      0.918D-13      0.237D-13      -337.91552537    702.138080    0.00000    0.00000    0.00000    8
   26      0.553D-13      0.185D-13      -337.91552537    702.138080    0.00000    0.00000    0.00000    0

 Final occupancy:  10   2  10   2

 !RHF STATE 1.1 Energy               -337.915525370883
 Nuclear energy                       230.25604181
 One-electron energy                 -919.24060704
 Two-electron energy                  351.06903986
 Virial quotient                       -1.00154238
 !RHF STATE 1.1 Dipole moment           0.00000000     0.00000000     0.00000000
 Dipole moment /Debye                   0.00000000     0.00000000     0.00000000

 Orbital energies:

         1.1          2.1          3.1          4.1          5.1          6.1          7.1          8.1          9.1         10.1
    -20.525820   -15.577869   -11.359596    -1.377660    -1.201100    -0.851600    -0.739199    -0.633758    -0.609984    -0.443728

        11.1         12.1
      0.185869     0.231582

         1.2          2.2          3.2          4.2
     -0.564552    -0.401034     0.193952     0.673912

         1.3          2.3          3.3          4.3          5.3          6.3          7.3          8.3          9.3         10.3
    -20.525819   -15.577867   -11.359597    -1.372979    -1.207186    -0.826587    -0.730238    -0.695147    -0.583664    -0.418633

        11.3         12.3
      0.187835     0.241661

         1.4          2.4          3.4          4.4
     -0.557118    -0.410531     0.200775     0.689811


 **********************************************************************************************************************************
 DATASETS  * FILE   NREC   LENGTH (MB)   RECORD NAMES
              1      19       50.04       500      610      700      900      950      970     1000      129      960     1100   
                                          VAR    BASINP    GEOM    SYMINP    ZMAT    AOBASIS   BASIS     P2S    ABASIS      S 
                                         1400     1410     1200     1210     1080     1600     1650     1300     1700   
                                           T        V       H0       H01     AOSYM     SMH    MOLCAS    ERIS     OPER   

              2       3        0.54       700     1000     2100   
                                         GEOM     BASIS     RHF  

 PROGRAMS   *        TOTAL       RHF       INT
 CPU TIMES  *         1.74      0.42      1.28
 REAL TIME  *         2.18 SEC
 DISK USED  *       178.55 MB      
 GA USED    *         0.00 MB       (max)       0.00 MB       (current)
 **********************************************************************************************************************************


1PROGRAM * CCSD (Closed-shell coupled cluster)     Authors: C. Hampel, H.-J. Werner, 1991, M. Deegan, P.J. Knowles, 1992


 Convergence thresholds:  THRVAR = 1.00D-08  THRDEN = 1.00D-12

 CCSD(T)     terms to be evaluated (factor= 1.000)


 Number of core orbitals:           6 (   3   0   3   0 )
 Number of closed-shell orbitals:  18 (   7   2   7   2 )
 Number of external orbitals:      90 (  32  13  32  13 )

 Molecular orbitals read from record     2100.2  Type=RHF/CANONICAL (state 1.1)

 Number of N-1 electron functions:              18
 Number of N-2 electron functions:             171
 Number of singly external CSFs:               500
 Number of doubly external CSFs:            346910
 Total number of CSFs:                      347411

 Length of J-op  integral file:               0.00 MB
 Length of K-op  integral file:               0.31 MB
 Length of 3-ext integral record:             0.00 MB

 Memory could be reduced to 5.11 Mwords without degradation in triples

 Integral transformation finished. Total CPU:   0.13 sec, npass=  1  Memory used:   2.18 MW

 Reference energy:                   -337.91552537

 MP2 singlet pair energy:              -0.58998268
 MP2 triplet pair energy:              -0.38329413
 MP2 correlation energy:               -0.97327681
 MP2 total energy:                   -338.88880218

 SCS-MP2 correlation energy:           -0.94647334   (PS=  1.200000  PT=  0.333333)
 SCS-MP2 total energy:               -338.86199871

 ITER.      SQ.NORM     CORR.ENERGY   TOTAL ENERGY   ENERGY CHANGE        DEN1      VAR(S)    VAR(P)  DIIS     TIME
   1      1.29810525    -1.00520002  -338.92072539    -0.03192321    -0.00217157  0.97D-02  0.55D-02  1  1     0.49
   2      1.32309074    -1.00783977  -338.92336514    -0.00263975    -0.02521083  0.23D-03  0.11D-02  2  2     0.86
   3      1.33583173    -1.00882259  -338.92434796    -0.00098283    -0.00563649  0.22D-03  0.47D-04  3  3     1.23
   4      1.34123908    -1.00859305  -338.92411842     0.00022954    -0.00170704  0.20D-04  0.81D-05  4  4     1.60
   5      1.34337270    -1.00852880  -338.92405417     0.00006425    -0.00043927  0.19D-05  0.11D-05  5  5     1.98
   6      1.34384617    -1.00849779  -338.92402316     0.00003100    -0.00004193  0.15D-06  0.13D-06  6  6     2.36
   7      1.34395297    -1.00848799  -338.92401336     0.00000980    -0.00000539  0.15D-07  0.15D-07  6  2     2.74
   8      1.34397120    -1.00848809  -338.92401346    -0.00000009    -0.00000000  0.18D-08  0.18D-08  6  1     3.11
   9      1.34397272    -1.00848778  -338.92401315     0.00000031     0.00000152  0.31D-09  0.22D-09  6  4     3.49
  10      1.34397580    -1.00848774  -338.92401311     0.00000004    -0.00000044  0.79D-10  0.21D-10  6  3     3.86
  11      1.34397570    -1.00848781  -338.92401318    -0.00000007     0.00000017  0.16D-10  0.52D-11  6  5     4.24
  12      1.34397551    -1.00848783  -338.92401320    -0.00000002     0.00000008  0.34D-11  0.13D-11  6  6     4.62
  13      1.34397526    -1.00848787  -338.92401324    -0.00000003     0.00000010  0.44D-12  0.21D-12  6  2     5.00
  14      1.34397515    -1.00848787  -338.92401324    -0.00000001     0.00000003  0.96D-13  0.33D-13  6  1     5.38
  15      1.34397512    -1.00848788  -338.92401325    -0.00000000     0.00000000  0.14D-13  0.85D-14  6  4     5.76
  16      1.34397511    -1.00848788  -338.92401325    -0.00000000    -0.00000000  0.37D-14  0.14D-14  6  3     6.14
  17      1.34397511    -1.00848788  -338.92401325    -0.00000000    -0.00000000  0.88D-15  0.21D-15  6  5     6.52
  18      1.34397511    -1.00848788  -338.92401325    -0.00000000     0.00000000  0.63D-16  0.61D-16  6  6     6.90
  19      1.34397511    -1.00848788  -338.92401325    -0.00000000     0.00000000  0.19D-16  0.69D-17  6  2     7.27
  20      1.34397511    -1.00848788  -338.92401325    -0.00000000     0.00000000  0.24D-17  0.11D-17  6  1     7.65
  21      1.34397511    -1.00848788  -338.92401325    -0.00000000     0.00000000  0.26D-18  0.26D-18  6  4     8.02
  22      1.34397511    -1.00848788  -338.92401325     0.00000000     0.00000000  0.94D-19  0.30D-19  6  3     8.39
  23      1.34397511    -1.00848788  -338.92401325    -0.00000000     0.00000000  0.80D-20  0.47D-20  6  5     8.77
  24      1.34397511    -1.00848788  -338.92401325     0.00000000    -0.00000000  0.14D-20  0.98D-21  6  6     9.15
  25      1.34397511    -1.00848788  -338.92401325     0.00000000    -0.00000000  0.37D-21  0.13D-21  6  2     9.52

 Norm of t1 vector:      0.14953245      S-energy:     0.00000000      T1 diagnostic:  0.01762257
                                                                       D1 diagnostic:  0.06248948

 Singles amplitudes (print threshold =  0.500E-01):

         I         SYM. A    A   T(IA)

         8         2         1      0.05799235
        17         4         1      0.05893209


 Total CPU time for triples:      5.88 sec


 RESULTS
 =======

  Reference energy                   -337.915525370883
  CCSD singlet pair energy             -0.668342306987
  CCSD triplet pair energy             -0.340145570031
  CCSD correlation energy              -1.008487877018

  Triples (T) contribution             -0.032329650988
  Total correlation energy             -1.040817528006

  CCSD total energy                  -338.924013247901
  CCSD[T] energy                     -338.959355977417
  CCSD-T energy                      -338.955359539588
 !CCSD(T) total energy               -338.956342898889

 Timing summary (sec):

 STEP                 CPU(USER)    SYS     CPU(TOT)    WALL
 Transformation          0.14      0.04      0.18      0.18
 CCSD iterations         9.38      0.47      9.85      9.91
 Triples                 5.88      0.16      6.04      6.04

 Program statistics:

 Available memory in ccsd:               999998604
 Min. memory needed in ccsd:                956954
 Max. memory used in ccsd:                 1266776
 Max. memory used in cckext:               1354904 (25 integral passes)



 **********************************************************************************************************************************
 DATASETS  * FILE   NREC   LENGTH (MB)   RECORD NAMES
              1      20       71.47       500      610      700      900      950      970     1000      129      960     1100   
                                          VAR    BASINP    GEOM    SYMINP    ZMAT    AOBASIS   BASIS     P2S    ABASIS      S 
                                         1400     1410     1200     1210     1080     1600     1650     1300     1700     1380   
                                           T        V       H0       H01     AOSYM     SMH    MOLCAS    ERIS     OPER     JKOP   

              2       3        0.54       700     1000     2100   
                                         GEOM     BASIS     RHF  

 PROGRAMS   *        TOTAL   CCSD(T)       RHF       INT
 CPU TIMES  *        17.16     15.42      0.42      1.28
 REAL TIME  *        18.35 SEC
 DISK USED  *       190.21 MB      
 GA USED    *         0.00 MB       (max)       0.00 MB       (current)
 **********************************************************************************************************************************

        CCSD(T)         RHF-SCF 
   -338.95634290   -337.91552537
 **********************************************************************************************************************************
 Variable memory released
