
 Primary working directories    : /tmp/1003441.27.gen6.q
 Secondary working directories  : /tmp/1003441.27.gen6.q
 Wavefunction directory         : /home/vulcan/jj04645/wfu/
 Main file repository           : /tmp/1003441.27.gen6.q/

 ARCHNAME  : Linux/x86_64
 FC        : /opt/intel/compilers_and_libraries_2016.1.150/linux/bin/intel64/ifort
 FCVERSION : 16.0.1
 BLASLIB   : -mkl
 id        : ccgc

 Nodes     nprocs
 n074         1
 ga_uses_ma=false, calling ma_init with nominal heap.
 GA-space will be limited to   8.0 MW (determined by -G option)

 Using customized tuning parameters: mindgm=10; mindgv=16; mindgc=4; mindgr=1; noblas=0; mincuda=1000; minvec=7
 default implementation of scratch files=df  

 ***,Optimization of acetyl acetylene
 memory,1000,m
 gthresh,energy=1.0d-12,orbital=1.0d-10,oneint=1.0d-16,twoint=1.0d-16,optgrad=1.0d-6,compress=1.0d-13
 geomtyp=xyz
 
 bohr
 geometry = {
  H    3.3553320181   -1.7605355600   -1.6667129072
  C    2.2709155943   -2.3085249413    0.0019040403
  H    1.9248072441   -4.3352888097   -0.0038659109
  C   -0.2082822490   -0.9182095737    0.0019040403
  H    3.3792632983   -1.7740907655    1.6591545761
  O   -2.2538284361   -1.9617820762    0.0019040403
  C   -0.0148901309    1.8485684099    0.0019040403
  C    0.2099103215    4.1300960686    0.0019040403
  H    0.3578975190    6.1353320850    0.0019040403
 }
 
 basis=VDZ
 {rhf;maxit,200}
 {ccsd(t);maxit,200}

 Variables initialized (661), CPU time= 0.00 sec
 Commands  initialized (458), CPU time= 0.01 sec, 486 directives.
 Default parameters read. Elapsed time= 0.04 sec

 Checking input...
 Passed
1


                                         ***  PROGRAM SYSTEM MOLPRO  ***
                         Copyright, University College Cardiff Consultants Limited, 2008

                                    Version 2010.1 linked May 16 2016 07:17:05


 **********************************************************************************************************************************
 LABEL *   Optimization of acetyl acetylene                                              
 Linux-4.4.3/n074(x86_64) 64 bit mpp version                                             DATE: 15-Feb-24          TIME: 13:09:36  
 **********************************************************************************************************************************

 SHA1:             9e8077add272b0f3cad6f7df79ec5211205f459d
 **********************************************************************************************************************************

 THRESHOLDS:

 ZERO    =  1.00D-12  ONEINT  =  1.00D-16  TWOINT  =  1.00D-16  PREFAC  =  1.00D-14  LOCALI  =  1.00D-09  EORDER  =  1.00D-04
 ENERGY  =  1.00D-12  ETEST   =  0.00D+00  EDENS   =  0.00D+00  THRDEDEF=  1.00D-06  GRADIENT=  1.00D-02  STEP    =  1.00D-03
 ORBITAL =  1.00D-10  CIVEC   =  1.00D-05  COEFF   =  1.00D-04  PRINTCI =  5.00D-02  PUNCHCI =  9.90D+01  OPTGRAD =  1.00D-06
 OPTENERG=  1.00D-06  OPTSTEP =  3.00D-04  THRGRAD =  1.00D-10  COMPRESS=  1.00D-13  VARMIN  =  1.00D-07  VARMAX  =  1.00D-03
 THRDOUB =  0.00D+00  THRDIV  =  1.00D-05  THRRED  =  1.00D-07  THRPSP  =  1.00D+00  THRDC   =  1.00D-10  THRCS   =  1.00D-10
 THRNRM  =  1.00D-08  THREQ   =  0.00D+00  THRDE   =  1.00D+00  THRREF  =  1.00D-05  SPARFAC =  1.00D+00  THRDLP  =  1.00D-07
 THRDIA  =  1.00D-10  THRDLS  =  1.00D-07  THRGPS  =  0.00D+00  THRKEX  =  0.00D+00  THRDIS  =  2.00D-01  THRVAR  =  1.00D-10
 THRLOC  =  1.00D-06  THRGAP  =  1.00D-06  THRLOCT = -1.00D+00  THRGAPT = -1.00D+00  THRORB  =  1.00D-06  THRMLTP =  0.00D+00
 THRCPQCI=  1.00D-10  KEXTA   =  0.00D+00  THRCOARS=  0.00D+00  SYMTOL  =  1.00D-06  GRADTOL =  1.00D-06  THROVL  =  1.00D-08
 THRORTH =  1.00D-08  GRID    =  1.00D-06  GRIDMAX =  1.00D-03  DTMAX   =  0.00D+00

 SETTING GEOMTYP        =    XYZ
 ZUNIT=BOHR
 

 Variable memory set to 1000000000 words,  buffer space   230000 words

 SETTING BASIS          =    VDZ


 Recomputing integrals since basis changed


 Using spherical harmonics

 Library entry H      S cc-pVDZ              selected for orbital group  1
 Library entry H      P cc-pVDZ              selected for orbital group  1
 Library entry C      S cc-pVDZ              selected for orbital group  2
 Library entry C      P cc-pVDZ              selected for orbital group  2
 Library entry C      D cc-pVDZ              selected for orbital group  2
 Library entry O      S cc-pVDZ              selected for orbital group  6
 Library entry O      P cc-pVDZ              selected for orbital group  6
 Library entry O      D cc-pVDZ              selected for orbital group  6

1PROGRAM * SEWARD (Integral evaluation for generally contracted gaussian basis sets)     Author: Roland Lindh, 1990

 Geometry written to block  1 of record 700


 Point group  C1  



 ATOMIC COORDINATES

 NR  ATOM    CHARGE       X              Y              Z

   1  H       1.00    3.355332018   -1.760535560   -1.666712907
   2  C       6.00    2.270915594   -2.308524941    0.001904040
   3  H       1.00    1.924807244   -4.335288810   -0.003865911
   4  C       6.00   -0.208282249   -0.918209574    0.001904040
   5  H       1.00    3.379263298   -1.774090765    1.659154576
   6  O       8.00   -2.253828436   -1.961782076    0.001904040
   7  C       6.00   -0.014890131    1.848568410    0.001904040
   8  C       6.00    0.209910321    4.130096069    0.001904040
   9  H       1.00    0.357897519    6.135332085    0.001904040

 Bond lengths in Bohr (Angstrom)

 1-2  2.064106068  2-3  2.056111879  2-4  2.842428322  2-5  2.064106068  4-6  2.296367299
     ( 1.092277888)     ( 1.088047546)     ( 1.504148286)     ( 1.092277888)     ( 1.215185238)

 4-7  2.773528605  7-8  2.292575779  8-9  2.010689357
     ( 1.467688126)     ( 1.213178852)     ( 1.064010982)

 Bond angles

  1-2-3  110.35667325   1-2-4  109.17022103   1-2-5  107.35023345   2-4-6  123.68739543

  2-4-7  115.28502354   3-2-4  109.59243750   3-2-5  110.35666905   4-2-5  109.98050357

  4-7-8  178.37112628   6-4-7  121.02758103   7-8-9  178.59357076

 NUCLEAR CHARGE:                   36
 NUMBER OF PRIMITIVE AOS:         163
 NUMBER OF SYMMETRY AOS:          158
 NUMBER OF CONTRACTIONS:           90   (  90A   )
 NUMBER OF CORE ORBITALS:           5   (   5A   )
 NUMBER OF VALENCE ORBITALS:       24   (  24A   )


 NUCLEAR REPULSION ENERGY  142.33963391


 Eigenvalues of metric

         1 0.304E-03 0.211E-02 0.373E-02 0.952E-02 0.161E-01 0.176E-01 0.219E-01 0.327E-01


 Contracted 2-electron integrals neglected if value below      1.0D-16
 AO integral compression algorithm  1   Integral accuracy      1.0D-16

     54.002 MB (compressed) written to integral file ( 70.8%)

     Node minimum: 54.002 MB, node maximum: 54.002 MB


 NUMBER OF SORTED TWO-ELECTRON INTEGRALS:    8386560.     BUFFER LENGTH:  32768
 NUMBER OF SEGMENTS:   1  SEGMENT LENGTH:    8386560      RECORD LENGTH: 524288

 Memory used in sort:       8.94 MW

 SORT1 READ     9559587. AND WROTE     6361098. INTEGRALS IN     19 RECORDS. CPU TIME:     0.07 SEC, REAL TIME:     0.12 SEC
 SORT2 READ     6361098. AND WROTE     8386560. INTEGRALS IN    206 RECORDS. CPU TIME:     0.09 SEC, REAL TIME:     0.12 SEC

 FILE SIZES:   FILE 1:    50.3 MBYTE,  FILE 4:    79.7 MBYTE,   TOTAL:    130.1 MBYTE

 OPERATOR DM      FOR CENTER  0  COORDINATES:    0.000000    0.000000    0.000000


 **********************************************************************************************************************************
 DATASETS  * FILE   NREC   LENGTH (MB)   RECORD NAMES
              1      19       50.45       500      610      700      900      950      970     1000      129      960     1100   
                                          VAR    BASINP    GEOM    SYMINP    ZMAT    AOBASIS   BASIS     P2S    ABASIS      S 
                                         1400     1410     1200     1210     1080     1600     1650     1300     1700   
                                           T        V       H0       H01     AOSYM     SMH    MOLCAS    ERIS     OPER   

 PROGRAMS   *        TOTAL       INT
 CPU TIMES  *         0.92      0.88
 REAL TIME  *         1.20 SEC
 DISK USED  *       184.82 MB      
 GA USED    *         0.00 MB       (max)       0.00 MB       (current)
 **********************************************************************************************************************************

1PROGRAM * RHF-SCF (CLOSED SHELL)       Authors: W. Meyer, H.-J. Werner


 NUMBER OF ELECTRONS:      18+   18-    SPACE SYMMETRY=1    SPIN SYMMETRY: Singlet 
 CONVERGENCE THRESHOLDS:    1.00E-10 (Density)    1.00E-13 (Energy)
 MAX. NUMBER OF ITERATIONS:      200
 INTERPOLATION TYPE:            DIIS
 INTERPOLATION STEPS:              2 (START)      1 (STEP)
 LEVEL SHIFTS:                  0.00 (CLOSED)  0.00 (OPEN) 



 Orbital guess generated from atomic densities. Full valence occupancy:   29

 Molecular orbital dump at record        2100.2

 ITERATION    DDIFF          GRAD             ENERGY        2-EL.EN.            DIPOLE MOMENTS         DIIS
    1      0.000D+00      0.000D+00      -228.51852666    442.702419    1.92862    1.01122   -0.00368    0
    2      0.000D+00      0.890D-02      -228.57157391    440.835028    0.82880    0.44279    0.00015    1
    3      0.212D-01      0.652D-02      -228.60356264    441.394442    1.22705    0.61399   -0.00057    2
    4      0.782D-02      0.106D-02      -228.60541608    441.527448    1.16892    0.62442   -0.00058    3
    5      0.237D-02      0.400D-03      -228.60567782    441.419807    1.16456    0.58260   -0.00046    4
    6      0.831D-03      0.148D-03      -228.60571474    441.452347    1.16554    0.59287   -0.00044    5
    7      0.320D-03      0.623D-04      -228.60572361    441.442330    1.16201    0.58539   -0.00045    6
    8      0.164D-03      0.257D-04      -228.60572519    441.445350    1.16174    0.58471   -0.00046    7
    9      0.772D-04      0.708D-05      -228.60572535    441.444085    1.16120    0.58422   -0.00046    8
   10      0.281D-04      0.160D-05      -228.60572536    441.444522    1.16111    0.58421   -0.00046    7
   11      0.541D-05      0.738D-06      -228.60572537    441.444292    1.16107    0.58421   -0.00046    8
   12      0.234D-05      0.400D-06      -228.60572537    441.444331    1.16106    0.58420   -0.00046    8
   13      0.187D-05      0.191D-06      -228.60572537    441.444320    1.16105    0.58420   -0.00046    9
   14      0.854D-06      0.648D-07      -228.60572537    441.444322    1.16106    0.58419   -0.00046    9
   15      0.275D-06      0.132D-07      -228.60572537    441.444323    1.16106    0.58419   -0.00046    8
   16      0.465D-07      0.424D-08      -228.60572537    441.444323    1.16106    0.58419   -0.00046    8
   17      0.898D-08      0.194D-08      -228.60572537    441.444323    1.16106    0.58419   -0.00046    9
   18      0.423D-08      0.602D-09      -228.60572537    441.444323    1.16106    0.58419   -0.00046    9
   19      0.146D-08      0.200D-09      -228.60572537    441.444323    1.16106    0.58419   -0.00046    9
   20      0.539D-09      0.405D-10      -228.60572537    441.444323    1.16106    0.58419   -0.00046    7
   21      0.117D-09      0.121D-10      -228.60572537    441.444323    1.16106    0.58419   -0.00046    7
   22      0.285D-10      0.662D-11      -228.60572537    441.444323    1.16106    0.58419   -0.00046    8
   23      0.190D-10      0.327D-11      -228.60572537    441.444323    1.16106    0.58419   -0.00046    8
   24      0.117D-10      0.151D-11      -228.60572537    441.444323    1.16106    0.58419   -0.00046    8
   25      0.678D-11      0.619D-12      -228.60572537    441.444323    1.16106    0.58419   -0.00046    8
   26      0.265D-11      0.214D-12      -228.60572537    441.444323    1.16106    0.58419   -0.00046    9
   27      0.958D-12      0.612D-13      -228.60572537    441.444323    1.16106    0.58419   -0.00046    0

 Final occupancy:  18

 !RHF STATE 1.1 Energy               -228.605725368463
 Nuclear energy                       142.33963391
 One-electron energy                 -591.66752082
 Two-electron energy                  220.72216154
 Virial quotient                       -1.00142840
 !RHF STATE 1.1 Dipole moment           1.16105723     0.58419031    -0.00045561
 Dipole moment /Debye                   2.95091985     1.48476640    -0.00115797

 Orbital energies:

         1.1          2.1          3.1          4.1          5.1          6.1          7.1          8.1          9.1         10.1
    -20.568082   -11.368217   -11.272611   -11.261466   -11.252188    -1.403866    -1.071142    -1.016645    -0.860187    -0.733024

        11.1         12.1         13.1         14.1         15.1         16.1         17.1         18.1         19.1         20.1
     -0.685210    -0.637593    -0.614888    -0.571365    -0.517324    -0.445846    -0.417630    -0.414313     0.094294     0.180376


 **********************************************************************************************************************************
 DATASETS  * FILE   NREC   LENGTH (MB)   RECORD NAMES
              1      19       50.45       500      610      700      900      950      970     1000      129      960     1100   
                                          VAR    BASINP    GEOM    SYMINP    ZMAT    AOBASIS   BASIS     P2S    ABASIS      S 
                                         1400     1410     1200     1210     1080     1600     1650     1300     1700   
                                           T        V       H0       H01     AOSYM     SMH    MOLCAS    ERIS     OPER   

              2       3        0.57       700     1000     2100   
                                         GEOM     BASIS     RHF  

 PROGRAMS   *        TOTAL       RHF       INT
 CPU TIMES  *         2.49      1.57      0.88
 REAL TIME  *         2.91 SEC
 DISK USED  *       184.82 MB      
 GA USED    *         0.00 MB       (max)       0.00 MB       (current)
 **********************************************************************************************************************************


1PROGRAM * CCSD (Closed-shell coupled cluster)     Authors: C. Hampel, H.-J. Werner, 1991, M. Deegan, P.J. Knowles, 1992


 Convergence thresholds:  THRVAR = 1.00D-08  THRDEN = 1.00D-12

 CCSD(T)     terms to be evaluated (factor= 1.000)


 Number of core orbitals:           5 (   5 )
 Number of closed-shell orbitals:  13 (  13 )
 Number of external orbitals:      72 (  72 )

 Molecular orbitals read from record     2100.2  Type=RHF/CANONICAL (state 1.1)

 Number of N-1 electron functions:              13
 Number of N-2 electron functions:              91
 Number of singly external CSFs:               936
 Number of doubly external CSFs:            438516
 Total number of CSFs:                      439453

 Length of J-op  integral file:               0.00 MB
 Length of K-op  integral file:               0.59 MB
 Length of 3-ext integral record:             0.00 MB

 Memory could be reduced to 7.27 Mwords without degradation in triples

 Integral transformation finished. Total CPU:   0.31 sec, npass=  1  Memory used:   6.58 MW

 Reference energy:                   -228.60572537

 MP2 singlet pair energy:              -0.43043157
 MP2 triplet pair energy:              -0.26905245
 MP2 correlation energy:               -0.69948402
 MP2 total energy:                   -229.30520939

 SCS-MP2 correlation energy:           -0.68392830   (PS=  1.200000  PT=  0.333333)
 SCS-MP2 total energy:               -229.28965366

 ITER.      SQ.NORM     CORR.ENERGY   TOTAL ENERGY   ENERGY CHANGE        DEN1      VAR(S)    VAR(P)  DIIS     TIME
   1      1.25712767    -0.72713259  -229.33285795    -0.02764857    -0.00370720  0.60D-02  0.55D-02  1  1     1.13
   2      1.27985344    -0.72990312  -229.33562849    -0.00277053    -0.02079032  0.12D-03  0.98D-03  2  2     1.96
   3      1.29049473    -0.73067682  -229.33640218    -0.00077370    -0.00475418  0.11D-03  0.92D-04  3  3     2.79
   4      1.29477240    -0.73064193  -229.33636730     0.00003488    -0.00140559  0.80D-05  0.18D-04  4  4     3.62
   5      1.29663010    -0.73066295  -229.33638832    -0.00002101    -0.00044390  0.16D-05  0.20D-05  5  5     4.45
   6      1.29705508    -0.73065890  -229.33638427     0.00000404    -0.00006259  0.28D-06  0.26D-06  6  6     5.29
   7      1.29714268    -0.73065471  -229.33638008     0.00000419    -0.00000184  0.56D-07  0.30D-07  6  1     6.11
   8      1.29718071    -0.73065568  -229.33638105    -0.00000096    -0.00000947  0.11D-07  0.48D-08  6  2     6.95
   9      1.29718289    -0.73065578  -229.33638114    -0.00000010     0.00000297  0.17D-08  0.83D-09  6  3     7.78
  10      1.29718564    -0.73065550  -229.33638086     0.00000028    -0.00000057  0.32D-09  0.16D-09  6  4     8.62
  11      1.29718546    -0.73065575  -229.33638112    -0.00000025     0.00000057  0.42D-10  0.32D-10  6  5     9.45
  12      1.29718517    -0.73065570  -229.33638107     0.00000004     0.00000015  0.83D-11  0.62D-11  6  6    10.29
  13      1.29718482    -0.73065573  -229.33638110    -0.00000003     0.00000015  0.95D-12  0.16D-11  6  1    11.13
  14      1.29718459    -0.73065574  -229.33638110    -0.00000000     0.00000006  0.28D-12  0.23D-12  6  2    11.97
  15      1.29718448    -0.73065574  -229.33638110    -0.00000000     0.00000003  0.45D-13  0.50D-13  6  3    12.81
  16      1.29718444    -0.73065574  -229.33638111    -0.00000000     0.00000001  0.90D-14  0.10D-13  6  4    13.64
  17      1.29718442    -0.73065574  -229.33638111    -0.00000000     0.00000000  0.29D-14  0.13D-14  6  5    14.47
  18      1.29718441    -0.73065574  -229.33638111    -0.00000000    -0.00000000  0.57D-15  0.27D-15  6  6    15.31
  19      1.29718441    -0.73065574  -229.33638111    -0.00000000    -0.00000000  0.20D-15  0.62D-16  6  1    16.15
  20      1.29718441    -0.73065574  -229.33638111    -0.00000000    -0.00000000  0.84D-16  0.18D-16  6  4    16.98
  21      1.29718441    -0.73065574  -229.33638111    -0.00000000     0.00000000  0.30D-16  0.62D-17  6  2    17.83
  22      1.29718441    -0.73065574  -229.33638111    -0.00000000    -0.00000000  0.54D-17  0.15D-17  6  6    18.67
  23      1.29718441    -0.73065574  -229.33638111     0.00000000     0.00000000  0.14D-17  0.39D-18  6  3    19.50
  24      1.29718441    -0.73065574  -229.33638111    -0.00000000     0.00000000  0.41D-18  0.11D-18  6  5    20.34
  25      1.29718441    -0.73065574  -229.33638111     0.00000000     0.00000000  0.42D-19  0.22D-19  6  4    21.18
  26      1.29718441    -0.73065574  -229.33638111    -0.00000000     0.00000000  0.96D-20  0.41D-20  6  1    22.01
  27      1.29718441    -0.73065574  -229.33638111     0.00000000    -0.00000000  0.10D-20  0.60D-21  6  2    22.86

 Norm of t1 vector:      0.10826211      S-energy:    -0.00000000      T1 diagnostic:  0.01501325
                                                                       D1 diagnostic:  0.05037320

 Doubles amplitudes (print threshold =  0.500E-01):

         I         J         SYM. A    SYM. B    A         B      T(IJ, AB)

        10        10         1         1         1         1     -0.05810987
        12        12         1         1         2         2     -0.06461573
        13        13         1         1         1         1     -0.07371899


 Total CPU time for triples:      7.58 sec


 RESULTS
 =======

  Reference energy                   -228.605725368463
  CCSD singlet pair energy             -0.496499944846
  CCSD triplet pair energy             -0.234155794326
  CCSD correlation energy              -0.730655739172

  Triples (T) contribution             -0.028458140238
  Total correlation energy             -0.759113879410

  CCSD total energy                  -229.336381107635
  CCSD[T] energy                     -229.366692289523
  CCSD-T energy                      -229.364137601449
 !CCSD(T) total energy               -229.364839247873

 Timing summary (sec):

 STEP                 CPU(USER)    SYS     CPU(TOT)    WALL
 Transformation          0.32      0.05      0.37      0.36
 CCSD iterations        22.54      0.64     23.18     23.24
 Triples                 7.58      0.21      7.79      7.80

 Program statistics:

 Available memory in ccsd:               999999224
 Min. memory needed in ccsd:               1253983
 Max. memory used in ccsd:                 1626745
 Max. memory used in cckext:               1605212 (27 integral passes)



 **********************************************************************************************************************************
 DATASETS  * FILE   NREC   LENGTH (MB)   RECORD NAMES
              1      20       79.20       500      610      700      900      950      970     1000      129      960     1100   
                                          VAR    BASINP    GEOM    SYMINP    ZMAT    AOBASIS   BASIS     P2S    ABASIS      S 
                                         1400     1410     1200     1210     1080     1600     1650     1300     1700     1380   
                                           T        V       H0       H01     AOSYM     SMH    MOLCAS    ERIS     OPER     JKOP   

              2       3        0.57       700     1000     2100   
                                         GEOM     BASIS     RHF  

 PROGRAMS   *        TOTAL   CCSD(T)       RHF       INT
 CPU TIMES  *        32.94     30.45      1.57      0.88
 REAL TIME  *        34.34 SEC
 DISK USED  *       211.94 MB      
 GA USED    *         0.00 MB       (max)       0.00 MB       (current)
 **********************************************************************************************************************************

        CCSD(T)         RHF-SCF 
   -229.36483925   -228.60572537
 **********************************************************************************************************************************
 Variable memory released
