
 Primary working directories    : /tmp/943186.26.gen6.q
 Secondary working directories  : /tmp/943186.26.gen6.q
 Wavefunction directory         : /home/vulcan/mel64643/wfu/
 Main file repository           : /tmp/943186.26.gen6.q/

 ARCHNAME  : Linux/x86_64
 FC        : /opt/intel/compilers_and_libraries_2016.1.150/linux/bin/intel64/ifort
 FCVERSION : 16.0.1
 BLASLIB   : -mkl
 id        : ccgc

 Nodes     nprocs
 n091         1
 ga_uses_ma=false, calling ma_init with nominal heap.
 GA-space will be limited to   8.0 MW (determined by -G option)

 Using customized tuning parameters: mindgm=10; mindgv=16; mindgc=4; mindgr=1; noblas=0; mincuda=1000; minvec=7
 default implementation of scratch files=df  

 ***,Optimization of h2o_2
 memory,1000,m
 gthresh,energy=1.0d-12,orbital=1.0d-10,oneint=1.0d-16,twoint=1.0d-16,optgrad=1.0d-6,compress=1.0d-13
 geomtyp=xyz
 
 bohr
 geometry = {
  C   -0.0002151218   -3.4203572410    0.0011122159
  H   -0.9790007018   -2.7562392758   -1.6914022617
  H   -0.9863803897   -2.7293007867    1.6784906321
  H    1.9405520550   -2.7153732211   -0.0087023399
  H    0.0142749752   -5.4851023639    0.0092088611
  C    0.0021538478    3.4231403354    0.0022588916
  H    0.0022045072    5.4829521636    0.0026044991
  H    0.9714221048    2.7336860620   -1.6794745999
  H    0.9738163223    2.7331219309    1.6823786263
  H   -1.9388275990    2.7334723966    0.0035254754
 }
 
 basis=VDZ
 {rhf;maxit,200}
 {ccsd(t);maxit,200}

 Variables initialized (661), CPU time= 0.01 sec
 Commands  initialized (458), CPU time= 0.00 sec, 486 directives.
 Default parameters read. Elapsed time= 0.04 sec

 Checking input...
 Passed
1


                                         ***  PROGRAM SYSTEM MOLPRO  ***
                         Copyright, University College Cardiff Consultants Limited, 2008

                                    Version 2010.1 linked May 16 2016 07:17:05


 **********************************************************************************************************************************
 LABEL *   Optimization of h2o_2                                                         
 Linux-4.4.3/n091(x86_64) 64 bit mpp version                                             DATE: 23-Oct-23          TIME: 12:27:48  
 **********************************************************************************************************************************

 SHA1:             9e8077add272b0f3cad6f7df79ec5211205f459d
 **********************************************************************************************************************************

 THRESHOLDS:

 ZERO    =  1.00D-12  ONEINT  =  1.00D-16  TWOINT  =  1.00D-16  PREFAC  =  1.00D-14  LOCALI  =  1.00D-09  EORDER  =  1.00D-04
 ENERGY  =  1.00D-12  ETEST   =  0.00D+00  EDENS   =  0.00D+00  THRDEDEF=  1.00D-06  GRADIENT=  1.00D-02  STEP    =  1.00D-03
 ORBITAL =  1.00D-10  CIVEC   =  1.00D-05  COEFF   =  1.00D-04  PRINTCI =  5.00D-02  PUNCHCI =  9.90D+01  OPTGRAD =  1.00D-06
 OPTENERG=  1.00D-06  OPTSTEP =  3.00D-04  THRGRAD =  1.00D-10  COMPRESS=  1.00D-13  VARMIN  =  1.00D-07  VARMAX  =  1.00D-03
 THRDOUB =  0.00D+00  THRDIV  =  1.00D-05  THRRED  =  1.00D-07  THRPSP  =  1.00D+00  THRDC   =  1.00D-10  THRCS   =  1.00D-10
 THRNRM  =  1.00D-08  THREQ   =  0.00D+00  THRDE   =  1.00D+00  THRREF  =  1.00D-05  SPARFAC =  1.00D+00  THRDLP  =  1.00D-07
 THRDIA  =  1.00D-10  THRDLS  =  1.00D-07  THRGPS  =  0.00D+00  THRKEX  =  0.00D+00  THRDIS  =  2.00D-01  THRVAR  =  1.00D-10
 THRLOC  =  1.00D-06  THRGAP  =  1.00D-06  THRLOCT = -1.00D+00  THRGAPT = -1.00D+00  THRORB  =  1.00D-06  THRMLTP =  0.00D+00
 THRCPQCI=  1.00D-10  KEXTA   =  0.00D+00  THRCOARS=  0.00D+00  SYMTOL  =  1.00D-06  GRADTOL =  1.00D-06  THROVL  =  1.00D-08
 THRORTH =  1.00D-08  GRID    =  1.00D-06  GRIDMAX =  1.00D-03  DTMAX   =  0.00D+00

 SETTING GEOMTYP        =    XYZ
 ZUNIT=BOHR
 

 Variable memory set to 1000000000 words,  buffer space   230000 words

 SETTING BASIS          =    VDZ


 Recomputing integrals since basis changed


 Using spherical harmonics

 Library entry C      S cc-pVDZ              selected for orbital group  1
 Library entry C      P cc-pVDZ              selected for orbital group  1
 Library entry C      D cc-pVDZ              selected for orbital group  1
 Library entry H      S cc-pVDZ              selected for orbital group  2
 Library entry H      P cc-pVDZ              selected for orbital group  2

1PROGRAM * SEWARD (Integral evaluation for generally contracted gaussian basis sets)     Author: Roland Lindh, 1990

 Geometry written to block  1 of record 700


 Point group  C1  



 ATOMIC COORDINATES

 NR  ATOM    CHARGE       X              Y              Z

   1  C       6.00   -0.000215122   -3.420357241    0.001112216
   2  H       1.00   -0.979000702   -2.756239276   -1.691402262
   3  H       1.00   -0.986380390   -2.729300787    1.678490632
   4  H       1.00    1.940552055   -2.715373221   -0.008702340
   5  H       1.00    0.014274975   -5.485102364    0.009208861
   6  C       6.00    0.002153848    3.423140335    0.002258892
   7  H       1.00    0.002204507    5.482952164    0.002604499
   8  H       1.00    0.971422105    2.733686062   -1.679474600
   9  H       1.00    0.973816322    2.733121931    1.682378626
  10  H       1.00   -1.938827599    2.733472397    0.003525475

 Bond lengths in Bohr (Angstrom)

 1-2  2.064867826  1-3  2.064867867  1-4  2.064867073  1-5  2.064811842  6-7  2.059811858
     ( 1.092680993)     ( 1.092681015)     ( 1.092680595)     ( 1.092651367)     ( 1.090005490)

  6- 8  2.059867881   6- 9  2.059867881   6-10  2.059867094
       ( 1.090035136)       ( 1.090035136)       ( 1.090034720)

 Bond angles

  2-1-3  109.37964779   2-1-4  109.37953008   2-1-5  109.15698653   3-1-4  109.78467340

  3-1-5  109.56212833   4-1-5  109.56222089   7-6-8  109.56240830   7-6-9  109.56240832

  7- 6-10  109.56250040   8- 6- 9  109.37992579   8- 6-10  109.37980975   9- 6-10  109.37980974

 NUCLEAR CHARGE:                   20
 NUMBER OF PRIMITIVE AOS:         110
 NUMBER OF SYMMETRY AOS:          108
 NUMBER OF CONTRACTIONS:           68   (  68A   )
 NUMBER OF CORE ORBITALS:           2   (   2A   )
 NUMBER OF VALENCE ORBITALS:       16   (  16A   )


 NUCLEAR REPULSION ENERGY   41.30551781


 Eigenvalues of metric

         1 0.113E-01 0.127E-01 0.349E-01 0.350E-01 0.357E-01 0.376E-01 0.385E-01 0.385E-01


 Contracted 2-electron integrals neglected if value below      1.0D-16
 AO integral compression algorithm  1   Integral accuracy      1.0D-16

     21.758 MB (compressed) written to integral file ( 87.3%)

     Node minimum: 21.758 MB, node maximum: 21.758 MB


 NUMBER OF SORTED TWO-ELECTRON INTEGRALS:    2753031.     BUFFER LENGTH:  32768
 NUMBER OF SEGMENTS:   1  SEGMENT LENGTH:    2753031      RECORD LENGTH: 524288

 Memory used in sort:       3.31 MW

 SORT1 READ     3104305. AND WROTE     2689469. INTEGRALS IN      8 RECORDS. CPU TIME:     0.03 SEC, REAL TIME:     0.05 SEC
 SORT2 READ     2689469. AND WROTE     2753031. INTEGRALS IN     83 RECORDS. CPU TIME:     0.04 SEC, REAL TIME:     0.05 SEC

 FILE SIZES:   FILE 1:    21.6 MBYTE,  FILE 4:    33.6 MBYTE,   TOTAL:     55.2 MBYTE

 OPERATOR DM      FOR CENTER  0  COORDINATES:    0.000000    0.000000    0.000000


 **********************************************************************************************************************************
 DATASETS  * FILE   NREC   LENGTH (MB)   RECORD NAMES
              1      19       21.63       500      610      700      900      950      970     1000      129      960     1100   
                                          VAR    BASINP    GEOM    SYMINP    ZMAT    AOBASIS   BASIS     P2S    ABASIS      S 
                                         1400     1410     1200     1210     1080     1600     1650     1300     1700   
                                           T        V       H0       H01     AOSYM     SMH    MOLCAS    ERIS     OPER   

 PROGRAMS   *        TOTAL       INT
 CPU TIMES  *         0.40      0.36
 REAL TIME  *         0.62 SEC
 DISK USED  *        77.69 MB      
 GA USED    *         0.00 MB       (max)       0.00 MB       (current)
 **********************************************************************************************************************************

1PROGRAM * RHF-SCF (CLOSED SHELL)       Authors: W. Meyer, H.-J. Werner


 NUMBER OF ELECTRONS:      10+   10-    SPACE SYMMETRY=1    SPIN SYMMETRY: Singlet 
 CONVERGENCE THRESHOLDS:    1.00E-10 (Density)    1.00E-13 (Energy)
 MAX. NUMBER OF ITERATIONS:      200
 INTERPOLATION TYPE:            DIIS
 INTERPOLATION STEPS:              2 (START)      1 (STEP)
 LEVEL SHIFTS:                  0.00 (CLOSED)  0.00 (OPEN) 



 Orbital guess generated from atomic densities. Full valence occupancy:   18

 Molecular orbital dump at record        2100.2

 ITERATION    DDIFF          GRAD             ENERGY        2-EL.EN.            DIPOLE MOMENTS         DIIS
    1      0.000D+00      0.000D+00       -80.35974080    134.758794   -0.00162   -0.00247   -0.00279    0
    2      0.000D+00      0.635D-02       -80.39229703    132.486678   -0.00060   -0.00106   -0.00098    1
    3      0.132D-01      0.234D-02       -80.39614782    133.286984   -0.00070   -0.00117   -0.00120    2
    4      0.460D-02      0.630D-03       -80.39667598    133.149683   -0.00059   -0.00100   -0.00101    3
    5      0.165D-02      0.664D-04       -80.39668050    133.155724   -0.00057   -0.00098   -0.00099    4
    6      0.233D-03      0.397D-05       -80.39668052    133.155589   -0.00057   -0.00098   -0.00099    5
    7      0.204D-04      0.470D-06       -80.39668052    133.155588   -0.00057   -0.00098   -0.00099    5
    8      0.119D-05      0.164D-06       -80.39668052    133.155587   -0.00057   -0.00098   -0.00099    5
    9      0.317D-06      0.198D-07       -80.39668052    133.155588   -0.00057   -0.00098   -0.00099    5
   10      0.593D-07      0.469D-08       -80.39668052    133.155588   -0.00057   -0.00098   -0.00099    5
   11      0.167D-07      0.697D-09       -80.39668052    133.155588   -0.00057   -0.00098   -0.00099    6
   12      0.206D-08      0.134D-09       -80.39668052    133.155588   -0.00057   -0.00098   -0.00099    6
   13      0.362D-09      0.420D-10       -80.39668052    133.155588   -0.00057   -0.00098   -0.00099    6
   14      0.907D-10      0.105D-10       -80.39668052    133.155588   -0.00057   -0.00098   -0.00099    6
   15      0.294D-10      0.157D-11       -80.39668052    133.155588   -0.00057   -0.00098   -0.00099    0

 Final occupancy:  10

 !RHF STATE 1.1 Energy                -80.396680521053
 Nuclear energy                        41.30551781
 One-electron energy                 -188.27999241
 Two-electron energy                   66.57779408
 Virial quotient                       -1.00248393
 !RHF STATE 1.1 Dipole moment          -0.00057062    -0.00097875    -0.00099291
 Dipole moment /Debye                  -0.00145028    -0.00248756    -0.00252356

 Orbital energies:

         1.1          2.1          3.1          4.1          5.1          6.1          7.1          8.1          9.1         10.1
    -11.216530   -11.215260    -0.943738    -0.937781    -0.549133    -0.545432    -0.544856    -0.538051    -0.537557    -0.533865

        11.1         12.1
      0.172315     0.229033


 **********************************************************************************************************************************
 DATASETS  * FILE   NREC   LENGTH (MB)   RECORD NAMES
              1      19       21.63       500      610      700      900      950      970     1000      129      960     1100   
                                          VAR    BASINP    GEOM    SYMINP    ZMAT    AOBASIS   BASIS     P2S    ABASIS      S 
                                         1400     1410     1200     1210     1080     1600     1650     1300     1700   
                                           T        V       H0       H01     AOSYM     SMH    MOLCAS    ERIS     OPER   

              2       3        0.51       700     1000     2100   
                                         GEOM     BASIS     RHF  

 PROGRAMS   *        TOTAL       RHF       INT
 CPU TIMES  *         0.68      0.28      0.36
 REAL TIME  *         0.94 SEC
 DISK USED  *        77.69 MB      
 GA USED    *         0.00 MB       (max)       0.00 MB       (current)
 **********************************************************************************************************************************


1PROGRAM * CCSD (Closed-shell coupled cluster)     Authors: C. Hampel, H.-J. Werner, 1991, M. Deegan, P.J. Knowles, 1992


 Convergence thresholds:  THRVAR = 1.00D-08  THRDEN = 1.00D-12

 CCSD(T)     terms to be evaluated (factor= 1.000)


 Number of core orbitals:           2 (   2 )
 Number of closed-shell orbitals:   8 (   8 )
 Number of external orbitals:      58 (  58 )

 Molecular orbitals read from record     2100.2  Type=RHF/CANONICAL (state 1.1)

 Number of N-1 electron functions:               8
 Number of N-2 electron functions:              36
 Number of singly external CSFs:               464
 Number of doubly external CSFs:            107880
 Total number of CSFs:                      108345

 Length of J-op  integral file:               0.00 MB
 Length of K-op  integral file:               0.35 MB
 Length of 3-ext integral record:             0.00 MB

 Memory could be reduced to 2.66 Mwords without degradation in triples

 Integral transformation finished. Total CPU:   0.07 sec, npass=  1  Memory used:   1.86 MW

 Reference energy:                    -80.39668052

 MP2 singlet pair energy:              -0.23220418
 MP2 triplet pair energy:              -0.09154562
 MP2 correlation energy:               -0.32374979
 MP2 total energy:                    -80.72043032

 SCS-MP2 correlation energy:           -0.33560673   (PS=  1.200000  PT=  0.333333)
 SCS-MP2 total energy:                -80.73228725

 ITER.      SQ.NORM     CORR.ENERGY   TOTAL ENERGY   ENERGY CHANGE        DEN1      VAR(S)    VAR(P)  DIIS     TIME
   1      1.13440860    -0.36768099   -80.76436151    -0.04393120    -0.03298621  0.50D-03  0.24D-02  1  1     0.18
   2      1.14706464    -0.37048859   -80.76716911    -0.00280760    -0.01279137  0.15D-04  0.97D-04  2  2     0.31
   3      1.14886889    -0.37066140   -80.76734192    -0.00017281    -0.00096051  0.18D-05  0.56D-05  3  3     0.43
   4      1.14924025    -0.37068174   -80.76736226    -0.00002034    -0.00016731  0.25D-07  0.36D-06  4  4     0.56
   5      1.14928666    -0.37067926   -80.76735978     0.00000249    -0.00002411  0.19D-08  0.18D-07  5  5     0.68
   6      1.14928798    -0.37067920   -80.76735972     0.00000006    -0.00000011  0.20D-09  0.12D-08  6  6     0.80
   7      1.14928808    -0.37067946   -80.76735998    -0.00000026     0.00000013  0.13D-10  0.72D-10  6  1     0.93
   8      1.14928826    -0.37067946   -80.76735998     0.00000001    -0.00000013  0.15D-11  0.42D-11  6  2     1.05
   9      1.14928828    -0.37067944   -80.76735996     0.00000001    -0.00000003  0.15D-12  0.26D-12  6  3     1.18
  10      1.14928828    -0.37067944   -80.76735996     0.00000000     0.00000001  0.12D-13  0.24D-13  6  4     1.30
  11      1.14928827    -0.37067944   -80.76735996    -0.00000000     0.00000001  0.82D-15  0.20D-14  6  5     1.43
  12      1.14928826    -0.37067944   -80.76735996    -0.00000000     0.00000000  0.44D-16  0.23D-15  6  6     1.56
  13      1.14928826    -0.37067944   -80.76735996    -0.00000000     0.00000000  0.35D-17  0.28D-16  6  1     1.68
  14      1.14928826    -0.37067944   -80.76735996     0.00000000     0.00000000  0.61D-18  0.38D-17  6  2     1.81
  15      1.14928826    -0.37067944   -80.76735996     0.00000000     0.00000000  0.74D-19  0.38D-18  6  3     1.93
  16      1.14928826    -0.37067944   -80.76735996    -0.00000000     0.00000000  0.16D-20  0.21D-19  6  5     2.06
  17      1.14928826    -0.37067944   -80.76735996    -0.00000000     0.00000000  0.19D-21  0.58D-21  6  4     2.18
  18      1.14928826    -0.37067944   -80.76735996     0.00000000    -0.00000000  0.47D-22  0.53D-22  6  6     2.30

 Norm of t1 vector:      0.03068007      S-energy:    -0.00000000      T1 diagnostic:  0.00542352
                                                                       D1 diagnostic:  0.00880946


 Total CPU time for triples:      0.84 sec


 RESULTS
 =======

  Reference energy                    -80.396680521053
  CCSD singlet pair energy             -0.282038860401
  CCSD triplet pair energy             -0.088640582111
  CCSD correlation energy              -0.370679442512

  Triples (T) contribution             -0.007549920406
  Total correlation energy             -0.378229362919

  CCSD total energy                   -80.767359963566
  CCSD[T] energy                      -80.775087192278
  CCSD-T energy                       -80.774814921620
 !CCSD(T) total energy                -80.774909883972

 Timing summary (sec):

 STEP                 CPU(USER)    SYS     CPU(TOT)    WALL
 Transformation          0.07      0.01      0.08      0.08
 CCSD iterations         2.24      0.11      2.35      2.38
 Triples                 0.84      0.02      0.86      0.86

 Program statistics:

 Available memory in ccsd:               999999644
 Min. memory needed in ccsd:                356281
 Max. memory used in ccsd:                  442401
 Max. memory used in cckext:                403930 (18 integral passes)



 **********************************************************************************************************************************
 DATASETS  * FILE   NREC   LENGTH (MB)   RECORD NAMES
              1      20       30.09       500      610      700      900      950      970     1000      129      960     1100   
                                          VAR    BASINP    GEOM    SYMINP    ZMAT    AOBASIS   BASIS     P2S    ABASIS      S 
                                         1400     1410     1200     1210     1080     1600     1650     1300     1700     1380   
                                           T        V       H0       H01     AOSYM     SMH    MOLCAS    ERIS     OPER     JKOP   

              2       3        0.51       700     1000     2100   
                                         GEOM     BASIS     RHF  

 PROGRAMS   *        TOTAL   CCSD(T)       RHF       INT
 CPU TIMES  *         3.84      3.16      0.28      0.36
 REAL TIME  *         4.29 SEC
 DISK USED  *        77.69 MB      
 GA USED    *         0.00 MB       (max)       0.00 MB       (current)
 **********************************************************************************************************************************

        CCSD(T)         RHF-SCF 
    -80.77490988    -80.39668052
 **********************************************************************************************************************************
 Variable memory released
