
 Primary working directories    : /tmp/662446.180.gen6.q
 Secondary working directories  : /tmp/662446.180.gen6.q
 Wavefunction directory         : /home/vulcan/mel64643/wfu/
 Main file repository           : /tmp/662446.180.gen6.q/

 ARCHNAME  : Linux/x86_64
 FC        : /opt/intel/compilers_and_libraries_2016.1.150/linux/bin/intel64/ifort
 FCVERSION : 16.0.1
 BLASLIB   : -mkl
 id        : ccgc

 Nodes     nprocs
 n084         1
 ga_uses_ma=false, calling ma_init with nominal heap.
 GA-space will be limited to   8.0 MW (determined by -G option)

 Using customized tuning parameters: mindgm=10; mindgv=16; mindgc=4; mindgr=1; noblas=0; mincuda=1000; minvec=7
 default implementation of scratch files=df  

 ***,Optimization of min3
 memory,1000,m
 gthresh,energy=1.0d-12,orbital=1.0d-10,oneint=1.0d-16,twoint=1.0d-16,optgrad=1.0d-6,compress=1.0d-13
 geomtyp=xyz
 
 
 
  bohr
  geometry = {
  C    0.0000000000   -0.0000000000    1.6755777654
  H   -0.0023969763   -1.7267222778    2.7875443270
  H    0.0023969763    1.7267222778    2.7875443270
  C    1.2350336787   -0.0040530571   -0.9110960533
  C   -1.2350336787    0.0040530571   -0.9110960533
  H    2.9944086891    0.0030586350   -1.9251191214
  H   -2.9944086891   -0.0030586350   -1.9251191214
 }
 
 basis=cc-pvdz
 {rhf;maxit,200}
 {ccsd(t);maxit,200}

 Variables initialized (661), CPU time= 0.00 sec
 Commands  initialized (458), CPU time= 0.00 sec, 486 directives.
 Default parameters read. Elapsed time= 0.04 sec

 Checking input...
 Passed
1


                                         ***  PROGRAM SYSTEM MOLPRO  ***
                         Copyright, University College Cardiff Consultants Limited, 2008

                                    Version 2010.1 linked May 16 2016 07:17:05


 **********************************************************************************************************************************
 LABEL *   Optimization of min3                                                          
 Linux-4.4.3/n084(x86_64) 64 bit mpp version                                             DATE: 18-Mar-22          TIME: 17:56:01  
 **********************************************************************************************************************************

 SHA1:             9e8077add272b0f3cad6f7df79ec5211205f459d
 **********************************************************************************************************************************

 THRESHOLDS:

 ZERO    =  1.00D-12  ONEINT  =  1.00D-16  TWOINT  =  1.00D-16  PREFAC  =  1.00D-14  LOCALI  =  1.00D-09  EORDER  =  1.00D-04
 ENERGY  =  1.00D-12  ETEST   =  0.00D+00  EDENS   =  0.00D+00  THRDEDEF=  1.00D-06  GRADIENT=  1.00D-02  STEP    =  1.00D-03
 ORBITAL =  1.00D-10  CIVEC   =  1.00D-05  COEFF   =  1.00D-04  PRINTCI =  5.00D-02  PUNCHCI =  9.90D+01  OPTGRAD =  1.00D-06
 OPTENERG=  1.00D-06  OPTSTEP =  3.00D-04  THRGRAD =  1.00D-10  COMPRESS=  1.00D-13  VARMIN  =  1.00D-07  VARMAX  =  1.00D-03
 THRDOUB =  0.00D+00  THRDIV  =  1.00D-05  THRRED  =  1.00D-07  THRPSP  =  1.00D+00  THRDC   =  1.00D-10  THRCS   =  1.00D-10
 THRNRM  =  1.00D-08  THREQ   =  0.00D+00  THRDE   =  1.00D+00  THRREF  =  1.00D-05  SPARFAC =  1.00D+00  THRDLP  =  1.00D-07
 THRDIA  =  1.00D-10  THRDLS  =  1.00D-07  THRGPS  =  0.00D+00  THRKEX  =  0.00D+00  THRDIS  =  2.00D-01  THRVAR  =  1.00D-10
 THRLOC  =  1.00D-06  THRGAP  =  1.00D-06  THRLOCT = -1.00D+00  THRGAPT = -1.00D+00  THRORB  =  1.00D-06  THRMLTP =  0.00D+00
 THRCPQCI=  1.00D-10  KEXTA   =  0.00D+00  THRCOARS=  0.00D+00  SYMTOL  =  1.00D-06  GRADTOL =  1.00D-06  THROVL  =  1.00D-08
 THRORTH =  1.00D-08  GRID    =  1.00D-06  GRIDMAX =  1.00D-03  DTMAX   =  0.00D+00

 SETTING GEOMTYP        =    XYZ
 ZUNIT=BOHR
 

 Variable memory set to 1000000000 words,  buffer space   230000 words

 SETTING BASIS          =    CC-PVDZ


 Recomputing integrals since basis changed


 Using spherical harmonics

 Library entry C      S cc-pVDZ              selected for orbital group  1
 Library entry C      P cc-pVDZ              selected for orbital group  1
 Library entry C      D cc-pVDZ              selected for orbital group  1
 Library entry H      S cc-pVDZ              selected for orbital group  2
 Library entry H      P cc-pVDZ              selected for orbital group  2

1PROGRAM * SEWARD (Integral evaluation for generally contracted gaussian basis sets)     Author: Roland Lindh, 1990

 Geometry written to block  1 of record 700


 Point group  C2  



 ATOMIC COORDINATES

 NR  ATOM    CHARGE       X              Y              Z

   1  C       6.00    0.000000000    0.000000000    1.675577765
   2  H       1.00   -0.002396976   -1.726722278    2.787544327
   3  H       1.00    0.002396976    1.726722278    2.787544327
   4  C       6.00    1.235033679   -0.004053057   -0.911096053
   5  C       6.00   -1.235033679    0.004053057   -0.911096053
   6  H       1.00    2.994408689    0.003058635   -1.925119121
   7  H       1.00   -2.994408689   -0.003058635   -1.925119121

 Bond lengths in Bohr (Angstrom)

 1-2  2.053788013  1-3  2.053788013  1-4  2.866392517  1-5  2.866392517  4-5  2.470080658
     ( 1.086817809)     ( 1.086817809)     ( 1.516829592)     ( 1.516829592)     ( 1.307110389)

 4-6  2.030688008  5-7  2.030688008
     ( 1.074593812)     ( 1.074593812)

 Bond angles

  1-4-5   64.47726385   1-4-6  145.47869738   1-5-4   64.47726385   1-5-7  145.47869738

  2-1-3  114.43897743   2-1-4  119.20273246   2-1-5  119.29282146   3-1-4  119.29282146

  3-1-5  119.20273246   4-1-5   51.04547231   4-5-7  150.04036049   5-4-6  150.04036049

 NUCLEAR CHARGE:                   22
 NUMBER OF PRIMITIVE AOS:         109
 NUMBER OF SYMMETRY AOS:          106
 NUMBER OF CONTRACTIONS:           62   (  32A   +  30B   )
 NUMBER OF CORE ORBITALS:           3   (   2A   +   1B   )
 NUMBER OF VALENCE ORBITALS:       16   (   8A   +   8B   )


 NUCLEAR REPULSION ENERGY   63.53543616


 Eigenvalues of metric

         1 0.416E-02 0.174E-01 0.239E-01 0.395E-01 0.465E-01 0.523E-01 0.102E+00 0.117E+00
         2 0.174E-02 0.196E-01 0.255E-01 0.333E-01 0.366E-01 0.485E-01 0.657E-01 0.119E+00


 Contracted 2-electron integrals neglected if value below      1.0D-16
 AO integral compression algorithm  1   Integral accuracy      1.0D-16

     10.486 MB (compressed) written to integral file ( 98.5%)

     Node minimum: 10.486 MB, node maximum: 10.486 MB


 NUMBER OF SORTED TWO-ELECTRON INTEGRALS:     984561.     BUFFER LENGTH:  32768
 NUMBER OF SEGMENTS:   1  SEGMENT LENGTH:     984561      RECORD LENGTH: 524288

 Memory used in sort:       1.54 MW

 SORT1 READ     1346430. AND WROTE      960798. INTEGRALS IN      3 RECORDS. CPU TIME:     0.01 SEC, REAL TIME:     0.02 SEC
 SORT2 READ      960798. AND WROTE      984561. INTEGRALS IN     40 RECORDS. CPU TIME:     0.03 SEC, REAL TIME:     0.02 SEC

 FILE SIZES:   FILE 1:    10.4 MBYTE,  FILE 4:    12.6 MBYTE,   TOTAL:     23.1 MBYTE

 OPERATOR DM      FOR CENTER  0  COORDINATES:    0.000000    0.000000    0.000000


 **********************************************************************************************************************************
 DATASETS  * FILE   NREC   LENGTH (MB)   RECORD NAMES
              1      19       10.47       500      610      700      900      950      970     1000      129      960     1100   
                                          VAR    BASINP    GEOM    SYMINP    ZMAT    AOBASIS   BASIS     P2S    ABASIS      S 
                                         1400     1410     1200     1210     1080     1600     1650     1300     1700   
                                           T        V       H0       H01     AOSYM     SMH    MOLCAS    ERIS     OPER   

 PROGRAMS   *        TOTAL       INT
 CPU TIMES  *         0.26      0.22
 REAL TIME  *         0.47 SEC
 DISK USED  *        34.22 MB      
 GA USED    *         0.00 MB       (max)       0.00 MB       (current)
 **********************************************************************************************************************************

1PROGRAM * RHF-SCF (CLOSED SHELL)       Authors: W. Meyer, H.-J. Werner


 NUMBER OF ELECTRONS:      11+   11-
 CONVERGENCE THRESHOLDS:    1.00E-10 (Density)    1.00E-13 (Energy)
 MAX. NUMBER OF ITERATIONS:      200
 INTERPOLATION TYPE:            DIIS
 INTERPOLATION STEPS:              2 (START)      1 (STEP)
 LEVEL SHIFTS:                  0.00 (CLOSED)  0.00 (OPEN) 



 Orbital guess generated from atomic densities. Full valence occupancy:   10   9

 Molecular orbital dump at record        2100.2

 Initial alpha occupancy:   6   5
 Initial beta  occupancy:   6   5
 Wave function symmetry:    1

 ITERATION    DDIFF          GRAD             ENERGY        2-EL.EN.            DIPOLE MOMENTS         DIIS
    1      0.000D+00      0.000D+00      -115.81192849    203.292130    0.00000    0.00000   -0.29701    0
    2      0.000D+00      0.708D-02      -115.83002138    202.232168    0.00000    0.00000   -0.19600    1
    3      0.148D-01      0.222D-02      -115.83164323    202.832606    0.00000    0.00000   -0.21835    2
    4      0.492D-02      0.838D-03      -115.83189885    202.662034    0.00000    0.00000   -0.19346    3
    5      0.159D-02      0.127D-03      -115.83190782    202.664512    0.00000    0.00000   -0.19354    4
    6      0.395D-03      0.335D-04      -115.83190852    202.668753    0.00000    0.00000   -0.19159    5
    7      0.101D-03      0.122D-04      -115.83190860    202.667358    0.00000    0.00000   -0.19148    6
    8      0.335D-04      0.238D-05      -115.83190861    202.667442    0.00000    0.00000   -0.19138    7
    9      0.821D-05      0.414D-06      -115.83190861    202.667444    0.00000    0.00000   -0.19137    7
   10      0.140D-05      0.880D-07      -115.83190861    202.667446    0.00000    0.00000   -0.19136    6
   11      0.380D-06      0.198D-07      -115.83190861    202.667447    0.00000    0.00000   -0.19136    6
   12      0.700D-07      0.701D-08      -115.83190861    202.667447    0.00000    0.00000   -0.19136    6
   13      0.188D-07      0.276D-08      -115.83190861    202.667447    0.00000    0.00000   -0.19136    6
   14      0.877D-08      0.853D-09      -115.83190861    202.667447    0.00000    0.00000   -0.19136    7
   15      0.235D-08      0.148D-09      -115.83190861    202.667447    0.00000    0.00000   -0.19136    7
   16      0.415D-09      0.429D-10      -115.83190861    202.667447    0.00000    0.00000   -0.19136    7
   17      0.122D-09      0.182D-10      -115.83190861    202.667447    0.00000    0.00000   -0.19136    7
   18      0.426D-10      0.265D-11      -115.83190861    202.667447    0.00000    0.00000   -0.19136    0

 Final occupancy:   6   5

 !RHF STATE 1.1 Energy               -115.831908605318
 Nuclear energy                        63.53543616
 One-electron energy                 -280.70106816
 Two-electron energy                  101.33372340
 Virial quotient                       -1.00201431
 !RHF STATE 1.1 Dipole moment           0.00000000     0.00000000    -0.19136190
 Dipole moment /Debye                   0.00000000     0.00000000    -0.48636158

 Orbital energies:

         1.1          2.1          3.1          4.1          5.1          6.1          7.1          8.1
    -11.251758   -11.245326    -1.150710    -0.822655    -0.677027    -0.486601     0.165759     0.220372

         1.2          2.2          3.2          4.2          5.2          6.2          7.2
    -11.249785    -0.766734    -0.594349    -0.417965    -0.353901     0.215372     0.270206


 **********************************************************************************************************************************
 DATASETS  * FILE   NREC   LENGTH (MB)   RECORD NAMES
              1      19       10.47       500      610      700      900      950      970     1000      129      960     1100   
                                          VAR    BASINP    GEOM    SYMINP    ZMAT    AOBASIS   BASIS     P2S    ABASIS      S 
                                         1400     1410     1200     1210     1080     1600     1650     1300     1700   
                                           T        V       H0       H01     AOSYM     SMH    MOLCAS    ERIS     OPER   

              2       3        0.40       700     1000     2100   
                                         GEOM     BASIS     RHF  

 PROGRAMS   *        TOTAL       RHF       INT
 CPU TIMES  *         0.33      0.06      0.22
 REAL TIME  *         0.58 SEC
 DISK USED  *        34.22 MB      
 GA USED    *         0.00 MB       (max)       0.00 MB       (current)
 **********************************************************************************************************************************


1PROGRAM * CCSD (Closed-shell coupled cluster)     Authors: C. Hampel, H.-J. Werner, 1991, M. Deegan, P.J. Knowles, 1992


 Convergence thresholds:  THRVAR = 1.00D-08  THRDEN = 1.00D-12

 CCSD(T)     terms to be evaluated (factor= 1.000)


 Number of core orbitals:           3 (   2   1 )
 Number of closed-shell orbitals:   8 (   4   4 )
 Number of external orbitals:      51 (  26  25 )

 Molecular orbitals read from record     2100.2  Type=RHF/CANONICAL (state 1.1)

 Number of N-1 electron functions:               8
 Number of N-2 electron functions:              36
 Number of singly external CSFs:               204
 Number of doubly external CSFs:             41820
 Total number of CSFs:                       42025

 Length of J-op  integral file:               0.00 MB
 Length of K-op  integral file:               0.17 MB
 Length of 3-ext integral record:             0.00 MB

 Memory could be reduced to 1.10 Mwords without degradation in triples

 Integral transformation finished. Total CPU:   0.02 sec, npass=  1  Memory used:   0.56 MW

 Reference energy:                   -115.83190861

 MP2 singlet pair energy:              -0.25619490
 MP2 triplet pair energy:              -0.14584174
 MP2 correlation energy:               -0.40203664
 MP2 total energy:                   -116.23394524

 SCS-MP2 correlation energy:           -0.39817985   (PS=  1.200000  PT=  0.333333)
 SCS-MP2 total energy:               -116.23008845

 ITER.      SQ.NORM     CORR.ENERGY   TOTAL ENERGY   ENERGY CHANGE        DEN1      VAR(S)    VAR(P)  DIIS     TIME
   1      1.16442620    -0.42823222  -116.26014082    -0.02619558    -0.01434650  0.14D-02  0.29D-02  1  1     0.05
   2      1.17931687    -0.43143399  -116.26334260    -0.00320178    -0.01251217  0.30D-04  0.37D-03  2  2     0.08
   3      1.18389782    -0.43162473  -116.26353334    -0.00019074    -0.00212733  0.71D-05  0.37D-04  3  3     0.11
   4      1.18584558    -0.43170627  -116.26361487    -0.00008153    -0.00058627  0.37D-06  0.34D-05  4  4     0.14
   5      1.18627693    -0.43171235  -116.26362096    -0.00000609    -0.00009202  0.36D-07  0.30D-06  5  5     0.17
   6      1.18634612    -0.43170934  -116.26361795     0.00000301    -0.00000939  0.40D-08  0.18D-07  6  6     0.19
   7      1.18635479    -0.43170962  -116.26361822    -0.00000027     0.00000077  0.46D-09  0.13D-08  6  2     0.23
   8      1.18635617    -0.43170949  -116.26361809     0.00000013    -0.00000002  0.34D-10  0.10D-09  6  1     0.25
   9      1.18635647    -0.43170946  -116.26361806     0.00000003    -0.00000010  0.65D-11  0.83D-11  6  3     0.28
  10      1.18635635    -0.43170947  -116.26361807    -0.00000001     0.00000010  0.41D-12  0.67D-12  6  4     0.31
  11      1.18635626    -0.43170947  -116.26361808    -0.00000001     0.00000005  0.77D-13  0.79D-13  6  5     0.34
  12      1.18635620    -0.43170948  -116.26361808    -0.00000000     0.00000002  0.65D-14  0.15D-13  6  6     0.37
  13      1.18635617    -0.43170948  -116.26361808    -0.00000000     0.00000001  0.66D-15  0.27D-14  6  2     0.40
  14      1.18635615    -0.43170948  -116.26361808    -0.00000000     0.00000000  0.60D-16  0.32D-15  6  1     0.43
  15      1.18635615    -0.43170948  -116.26361808    -0.00000000     0.00000000  0.17D-16  0.34D-16  6  3     0.46
  16      1.18635615    -0.43170948  -116.26361808    -0.00000000     0.00000000  0.31D-17  0.41D-17  6  4     0.49
  17      1.18635615    -0.43170948  -116.26361808    -0.00000000     0.00000000  0.65D-18  0.49D-18  6  5     0.52
  18      1.18635615    -0.43170948  -116.26361808    -0.00000000     0.00000000  0.74D-19  0.53D-19  6  6     0.55
  19      1.18635615    -0.43170948  -116.26361808     0.00000000    -0.00000000  0.14D-19  0.61D-20  6  2     0.58
  20      1.18635615    -0.43170948  -116.26361808     0.00000000    -0.00000000  0.19D-20  0.11D-20  6  1     0.61

 Norm of t1 vector:      0.05202475      S-energy:    -0.00000000      T1 diagnostic:  0.00919676
                                                                       D1 diagnostic:  0.02756066

 Doubles amplitudes (print threshold =  0.500E-01):

         I         J         SYM. A    SYM. B    A         B      T(IJ, AB)

         8         8         1         1         1         1     -0.10859327


 Total CPU time for triples:      0.21 sec


 RESULTS
 =======

  Reference energy                   -115.831908605318
  CCSD singlet pair energy             -0.301705170247
  CCSD triplet pair energy             -0.130004307391
  CCSD correlation energy              -0.431709477638

  Triples (T) contribution             -0.016337279118
  Total correlation energy             -0.448046756755

  CCSD total energy                  -116.263618082956
  CCSD[T] energy                     -116.280317489702
  CCSD-T energy                      -116.279777932335
 !CCSD(T) total energy               -116.279955362073

 Timing summary (sec):

 STEP                 CPU(USER)    SYS     CPU(TOT)    WALL
 Transformation          0.02      0.01      0.03      0.03
 CCSD iterations         0.59      0.04      0.63      0.65
 Triples                 0.21      0.00      0.21      0.22

 Program statistics:

 Available memory in ccsd:               999999644
 Min. memory needed in ccsd:                142235
 Max. memory used in ccsd:                  174307
 Max. memory used in cckext:                219012 (20 integral passes)



 **********************************************************************************************************************************
 DATASETS  * FILE   NREC   LENGTH (MB)   RECORD NAMES
              1      20       13.53       500      610      700      900      950      970     1000      129      960     1100   
                                          VAR    BASINP    GEOM    SYMINP    ZMAT    AOBASIS   BASIS     P2S    ABASIS      S 
                                         1400     1410     1200     1210     1080     1600     1650     1300     1700     1380   
                                           T        V       H0       H01     AOSYM     SMH    MOLCAS    ERIS     OPER     JKOP   

              2       3        0.40       700     1000     2100   
                                         GEOM     BASIS     RHF  

 PROGRAMS   *        TOTAL   CCSD(T)       RHF       INT
 CPU TIMES  *         1.16      0.83      0.06      0.22
 REAL TIME  *         1.50 SEC
 DISK USED  *        34.22 MB      
 GA USED    *         0.00 MB       (max)       0.00 MB       (current)
 **********************************************************************************************************************************

        CCSD(T)         RHF-SCF 
   -116.27995536   -115.83190861
 **********************************************************************************************************************************
 Variable memory released
