
 Primary working directories    : /tmp/1049502.990.gen6.q
 Secondary working directories  : /tmp/1049502.990.gen6.q
 Wavefunction directory         : /home/vulcan/jj04645/wfu/
 Main file repository           : /tmp/1049502.990.gen6.q/

 ARCHNAME  : Linux/x86_64
 FC        : /opt/intel/compilers_and_libraries_2016.1.150/linux/bin/intel64/ifort
 FCVERSION : 16.0.1
 BLASLIB   : -mkl
 id        : ccgc

 Nodes     nprocs
 n092         1
 ga_uses_ma=false, calling ma_init with nominal heap.
 GA-space will be limited to   8.0 MW (determined by -G option)

 Using customized tuning parameters: mindgm=10; mindgv=16; mindgc=4; mindgr=1; noblas=0; mincuda=1000; minvec=7
 default implementation of scratch files=df  

 ***,Optimization of neopentane
 memory,1000,m
 gthresh,energy=1.0d-12,orbital=1.0d-10,oneint=1.0d-16,twoint=1.0d-16,optgrad=1.0d-6,compress=1.0d-13
 geomtyp=xyz
 
 bohr
 geometry = {
  C    0.0000000000    0.0000000000    0.0015031405
  C    2.3654414763    0.0013596448   -1.6711168442
  C    0.0013596448   -2.3654414763    1.6741231252
  C   -0.0013596448    2.3654414763    1.6741231252
  C   -2.3654414763   -0.0013596448   -1.6711168442
  H    2.4063898094    1.6727432203   -2.8868307319
  H   -1.6729791621   -2.4113180539    2.8855871068
  H    1.6729791621    2.4113180539    2.8855871068
  H   -2.4063898094   -1.6727432203   -2.8868307319
  H    4.0887222327    0.0008370681   -0.5230346231
  H    0.0008483662   -4.0805610795    0.5138843093
  H   -0.0008483662    4.0805610795    0.5138843093
  H   -4.0887222327   -0.0008370681   -0.5230346231
  H    2.4026761620   -1.6701154922   -2.8808027451
  H    1.6698845649   -2.4148896196    2.8874388328
  H   -1.6698845649    2.4148896196    2.8874388328
  H   -2.4026761620    1.6701154922   -2.8808027451
 }
 
 basis=VDZ
 {rhf;maxit,200}
 {ccsd(t);maxit,200}

 Variables initialized (661), CPU time= 0.00 sec
 Commands  initialized (458), CPU time= 0.00 sec, 486 directives.
 Default parameters read. Elapsed time= 0.04 sec

 Checking input...
 Passed
1


                                         ***  PROGRAM SYSTEM MOLPRO  ***
                         Copyright, University College Cardiff Consultants Limited, 2008

                                    Version 2010.1 linked May 16 2016 07:17:05


 **********************************************************************************************************************************
 LABEL *   Optimization of neopentane                                                    
 Linux-4.4.3/n092(x86_64) 64 bit mpp version                                             DATE: 30-Mar-24          TIME: 23:04:36  
 **********************************************************************************************************************************

 SHA1:             9e8077add272b0f3cad6f7df79ec5211205f459d
 **********************************************************************************************************************************

 THRESHOLDS:

 ZERO    =  1.00D-12  ONEINT  =  1.00D-16  TWOINT  =  1.00D-16  PREFAC  =  1.00D-14  LOCALI  =  1.00D-09  EORDER  =  1.00D-04
 ENERGY  =  1.00D-12  ETEST   =  0.00D+00  EDENS   =  0.00D+00  THRDEDEF=  1.00D-06  GRADIENT=  1.00D-02  STEP    =  1.00D-03
 ORBITAL =  1.00D-10  CIVEC   =  1.00D-05  COEFF   =  1.00D-04  PRINTCI =  5.00D-02  PUNCHCI =  9.90D+01  OPTGRAD =  1.00D-06
 OPTENERG=  1.00D-06  OPTSTEP =  3.00D-04  THRGRAD =  1.00D-10  COMPRESS=  1.00D-13  VARMIN  =  1.00D-07  VARMAX  =  1.00D-03
 THRDOUB =  0.00D+00  THRDIV  =  1.00D-05  THRRED  =  1.00D-07  THRPSP  =  1.00D+00  THRDC   =  1.00D-10  THRCS   =  1.00D-10
 THRNRM  =  1.00D-08  THREQ   =  0.00D+00  THRDE   =  1.00D+00  THRREF  =  1.00D-05  SPARFAC =  1.00D+00  THRDLP  =  1.00D-07
 THRDIA  =  1.00D-10  THRDLS  =  1.00D-07  THRGPS  =  0.00D+00  THRKEX  =  0.00D+00  THRDIS  =  2.00D-01  THRVAR  =  1.00D-10
 THRLOC  =  1.00D-06  THRGAP  =  1.00D-06  THRLOCT = -1.00D+00  THRGAPT = -1.00D+00  THRORB  =  1.00D-06  THRMLTP =  0.00D+00
 THRCPQCI=  1.00D-10  KEXTA   =  0.00D+00  THRCOARS=  0.00D+00  SYMTOL  =  1.00D-06  GRADTOL =  1.00D-06  THROVL  =  1.00D-08
 THRORTH =  1.00D-08  GRID    =  1.00D-06  GRIDMAX =  1.00D-03  DTMAX   =  0.00D+00

 SETTING GEOMTYP        =    XYZ
 ZUNIT=BOHR
 

 Variable memory set to 1000000000 words,  buffer space   230000 words

 SETTING BASIS          =    VDZ


 Recomputing integrals since basis changed


 Using spherical harmonics

 Library entry C      S cc-pVDZ              selected for orbital group  1
 Library entry C      P cc-pVDZ              selected for orbital group  1
 Library entry C      D cc-pVDZ              selected for orbital group  1
 Library entry H      S cc-pVDZ              selected for orbital group  2
 Library entry H      P cc-pVDZ              selected for orbital group  2

1PROGRAM * SEWARD (Integral evaluation for generally contracted gaussian basis sets)     Author: Roland Lindh, 1990

 Geometry written to block  1 of record 700


 Point group  C2  



 ATOMIC COORDINATES

 NR  ATOM    CHARGE       X              Y              Z

   1  C       6.00    0.000000000    0.000000000    0.001503140
   2  C       6.00    2.365441476    0.001359645   -1.671116844
   3  C       6.00   -2.365441476   -0.001359645   -1.671116844
   4  C       6.00    0.001359645   -2.365441476    1.674123125
   5  C       6.00   -0.001359645    2.365441476    1.674123125
   6  H       1.00    2.406389809    1.672743220   -2.886830732
   7  H       1.00   -2.406389809   -1.672743220   -2.886830732
   8  H       1.00   -1.672979162   -2.411318054    2.885587107
   9  H       1.00    1.672979162    2.411318054    2.885587107
  10  H       1.00    4.088722233    0.000837068   -0.523034623
  11  H       1.00   -4.088722233   -0.000837068   -0.523034623
  12  H       1.00    0.000848366   -4.080561079    0.513884309
  13  H       1.00   -0.000848366    4.080561079    0.513884309
  14  H       1.00    2.402676162   -1.670115492   -2.880802745
  15  H       1.00   -2.402676162    1.670115492   -2.880802745
  16  H       1.00    1.669884565   -2.414889620    2.887438833
  17  H       1.00   -1.669884565    2.414889620    2.887438833

 Bond lengths in Bohr (Angstrom)

 1-2  2.897062795  1-3  2.897062795  1-4  2.897062795  1-5  2.897062795  2-6  2.067162325
     ( 1.533059604)     ( 1.533059604)     ( 1.533059604)     ( 1.533059604)     ( 1.093895190)

  2-10  2.070697859   2-14  2.063626791   3- 7  2.067162325   3-11  2.070697859   3-15  2.063626791
       ( 1.095766114)       ( 1.092024266)       ( 1.093895190)       ( 1.095766114)       ( 1.092024266)

  4- 8  2.067162325   4-12  2.070697859   4-16  2.063626791   5- 9  2.067162325   5-13  2.070697859
       ( 1.093895190)       ( 1.095766114)       ( 1.092024266)       ( 1.093895190)       ( 1.095766114)

  5-17  2.063626791
       ( 1.092024266)

 Bond angles

  1- 2- 6  110.86072213   1- 2-10  111.06329259   1- 2-14  110.65815180   1- 3- 7  110.86072213

  1- 3-11  111.06329259   1- 3-15  110.65815180   1- 4- 8  110.86072215   1- 4-12  110.65815180

  1- 4-16  111.06329257   1- 5- 9  110.86072215   1- 5-13  110.65815180   1- 5-17  111.06329257

  2-1-3  109.47122063   2-1-4  109.47122063   2-1-5  109.47122063   3-1-4  109.47122063

  3- 1- 5  109.47122063   4- 1- 5  109.47122063   6- 2-10  108.04659063   6- 2-14  108.04659359

  7- 3-11  108.04659063   7- 3-15  108.04659359   8- 4-12  108.04659362   8- 4-16  108.04659064

  9- 5-13  108.04659362   9- 5-17  108.04659064  10- 2-14  108.04659224  11- 3-15  108.04659224

 12- 4-16  108.04659219  13- 5-17  108.04659219

 NUCLEAR CHARGE:                   42
 NUMBER OF PRIMITIVE AOS:         219
 NUMBER OF SYMMETRY AOS:          214
 NUMBER OF CONTRACTIONS:          130   (  66A   +  64B   )
 NUMBER OF CORE ORBITALS:           5   (   3A   +   2B   )
 NUMBER OF VALENCE ORBITALS:       32   (  16A   +  16B   )


 NUCLEAR REPULSION ENERGY  198.59923438


 Eigenvalues of metric

         1 0.280E-02 0.503E-02 0.171E-01 0.189E-01 0.236E-01 0.319E-01 0.336E-01 0.338E-01
         2 0.504E-02 0.504E-02 0.189E-01 0.189E-01 0.237E-01 0.237E-01 0.319E-01 0.320E-01


 Contracted 2-electron integrals neglected if value below      1.0D-16
 AO integral compression algorithm  1   Integral accuracy      1.0D-16

     165.937 MB (compressed) written to integral file ( 98.1%)

     Node minimum: 165.937 MB, node maximum: 165.937 MB


 NUMBER OF SORTED TWO-ELECTRON INTEGRALS:   18406246.     BUFFER LENGTH:  32768
 NUMBER OF SEGMENTS:   2  SEGMENT LENGTH:   15998467      RECORD LENGTH: 524288

 Memory used in sort:      16.56 MW

 SORT1 READ    21105840. AND WROTE    18337689. INTEGRALS IN     53 RECORDS. CPU TIME:     0.24 SEC, REAL TIME:     0.34 SEC
 SORT2 READ    18337689. AND WROTE    18406246. INTEGRALS IN    633 RECORDS. CPU TIME:     0.23 SEC, REAL TIME:     0.29 SEC

 FILE SIZES:   FILE 1:   149.8 MBYTE,  FILE 4:   222.3 MBYTE,   TOTAL:    372.1 MBYTE

 OPERATOR DM      FOR CENTER  0  COORDINATES:    0.000000    0.000000    0.000000


 **********************************************************************************************************************************
 DATASETS  * FILE   NREC   LENGTH (MB)   RECORD NAMES
              1      19      149.90       500      610      700      900      950      970     1000      129      960     1100   
                                          VAR    BASINP    GEOM    SYMINP    ZMAT    AOBASIS   BASIS     P2S    ABASIS      S 
                                         1400     1410     1200     1210     1080     1600     1650     1300     1700   
                                           T        V       H0       H01     AOSYM     SMH    MOLCAS    ERIS     OPER   

 PROGRAMS   *        TOTAL       INT
 CPU TIMES  *         2.73      2.69
 REAL TIME  *         3.13 SEC
 DISK USED  *       539.10 MB      
 GA USED    *         0.00 MB       (max)       0.00 MB       (current)
 **********************************************************************************************************************************

1PROGRAM * RHF-SCF (CLOSED SHELL)       Authors: W. Meyer, H.-J. Werner


 NUMBER OF ELECTRONS:      21+   21-
 CONVERGENCE THRESHOLDS:    1.00E-10 (Density)    1.00E-13 (Energy)
 MAX. NUMBER OF ITERATIONS:      200
 INTERPOLATION TYPE:            DIIS
 INTERPOLATION STEPS:              2 (START)      1 (STEP)
 LEVEL SHIFTS:                  0.00 (CLOSED)  0.00 (OPEN) 



 Orbital guess generated from atomic densities. Full valence occupancy:   19  18

 Molecular orbital dump at record        2100.2

 Initial alpha occupancy:  11  10
 Initial beta  occupancy:  11  10
 Wave function symmetry:    1

 ITERATION    DDIFF          GRAD             ENERGY        2-EL.EN.            DIPOLE MOMENTS         DIIS
    1      0.000D+00      0.000D+00      -196.27087931    527.677343    0.00000    0.00000   -0.00364    0
    2      0.000D+00      0.657D-02      -196.33873853    521.943893    0.00000    0.00000    0.00028    1
    3      0.131D-01      0.249D-02      -196.34652899    524.513970    0.00000    0.00000   -0.00079    2
    4      0.488D-02      0.804D-03      -196.34767575    523.812640    0.00000    0.00000   -0.00048    3
    5      0.161D-02      0.166D-03      -196.34771033    523.879155    0.00000    0.00000   -0.00046    4
    6      0.279D-03      0.335D-04      -196.34771200    523.875396    0.00000    0.00000   -0.00049    5
    7      0.929D-04      0.319D-05      -196.34771203    523.875162    0.00000    0.00000   -0.00048    6
    8      0.964D-05      0.688D-06      -196.34771203    523.875120    0.00000    0.00000   -0.00049    6
    9      0.193D-05      0.101D-06      -196.34771203    523.875112    0.00000    0.00000   -0.00049    5
   10      0.343D-06      0.188D-07      -196.34771203    523.875120    0.00000    0.00000   -0.00049    5
   11      0.503D-07      0.687D-08      -196.34771203    523.875118    0.00000    0.00000   -0.00049    6
   12      0.136D-07      0.718D-09      -196.34771203    523.875118    0.00000    0.00000   -0.00049    6
   13      0.190D-08      0.168D-09      -196.34771203    523.875118    0.00000    0.00000   -0.00049    6
   14      0.403D-09      0.507D-10      -196.34771203    523.875118    0.00000    0.00000   -0.00049    6
   15      0.135D-09      0.129D-10      -196.34771203    523.875118    0.00000    0.00000   -0.00049    6
   16      0.443D-10      0.204D-11      -196.34771203    523.875118    0.00000    0.00000   -0.00049    6
   17      0.594D-11      0.538D-12      -196.34771203    523.875118    0.00000    0.00000   -0.00049    6
   18      0.138D-11      0.188D-12      -196.34771203    523.875118    0.00000    0.00000   -0.00049    0

 Final occupancy:  11  10

 !RHF STATE 1.1 Energy               -196.347712029787
 Nuclear energy                       198.59923438
 One-electron energy                 -656.88450545
 Two-electron energy                  261.93755903
 Virial quotient                       -1.00118106
 !RHF STATE 1.1 Dipole moment           0.00000000     0.00000000    -0.00048883
 Dipole moment /Debye                   0.00000000     0.00000000    -0.00124240

 Orbital energies:

         1.1          2.1          3.1          4.1          5.1          6.1          7.1          8.1          9.1         10.1
    -11.230716   -11.214154   -11.214005    -1.103749    -0.927664    -0.728614    -0.608583    -0.550838    -0.550133    -0.508122

        11.1         12.1         13.1
     -0.450372     0.170676     0.231226

         1.2          2.2          3.2          4.2          5.2          6.2          7.2          8.2          9.2         10.2
    -11.214174   -11.214033    -0.927564    -0.927459    -0.609674    -0.608971    -0.507807    -0.507441    -0.450604    -0.450016

        11.2         12.2
      0.231168     0.231202


 **********************************************************************************************************************************
 DATASETS  * FILE   NREC   LENGTH (MB)   RECORD NAMES
              1      19      149.90       500      610      700      900      950      970     1000      129      960     1100   
                                          VAR    BASINP    GEOM    SYMINP    ZMAT    AOBASIS   BASIS     P2S    ABASIS      S 
                                         1400     1410     1200     1210     1080     1600     1650     1300     1700   
                                           T        V       H0       H01     AOSYM     SMH    MOLCAS    ERIS     OPER   

              2       3        0.72       700     1000     2100   
                                         GEOM     BASIS     RHF  

 PROGRAMS   *        TOTAL       RHF       INT
 CPU TIMES  *         4.09      1.36      2.69
 REAL TIME  *         4.77 SEC
 DISK USED  *       539.10 MB      
 GA USED    *         0.00 MB       (max)       0.00 MB       (current)
 **********************************************************************************************************************************


1PROGRAM * CCSD (Closed-shell coupled cluster)     Authors: C. Hampel, H.-J. Werner, 1991, M. Deegan, P.J. Knowles, 1992


 Convergence thresholds:  THRVAR = 1.00D-08  THRDEN = 1.00D-12

 CCSD(T)     terms to be evaluated (factor= 1.000)


 Number of core orbitals:           5 (   3   2 )
 Number of closed-shell orbitals:  16 (   8   8 )
 Number of external orbitals:     109 (  55  54 )

 Molecular orbitals read from record     2100.2  Type=RHF/CANONICAL (state 1.1)

 Number of N-1 electron functions:              16
 Number of N-2 electron functions:             136
 Number of singly external CSFs:               872
 Number of doubly external CSFs:            761256
 Total number of CSFs:                      762129

 Length of J-op  integral file:               0.00 MB
 Length of K-op  integral file:               0.62 MB
 Length of 3-ext integral record:             0.00 MB

 Memory could be reduced to 14.22 Mwords without degradation in triples

 Integral transformation finished. Total CPU:   0.63 sec, npass=  1  Memory used:   8.40 MW

 Reference energy:                   -196.34771203

 MP2 singlet pair energy:              -0.48845284
 MP2 triplet pair energy:              -0.25007764
 MP2 correlation energy:               -0.73853048
 MP2 total energy:                   -197.08624251

 SCS-MP2 correlation energy:           -0.74174728   (PS=  1.200000  PT=  0.333333)
 SCS-MP2 total energy:               -197.08945931

 ITER.      SQ.NORM     CORR.ENERGY   TOTAL ENERGY   ENERGY CHANGE        DEN1      VAR(S)    VAR(P)  DIIS     TIME
   1      1.28821658    -0.80655578  -197.15426781    -0.06802530    -0.04667765  0.17D-02  0.47D-02  1  1     1.69
   2      1.31151700    -0.81148953  -197.15920156    -0.00493375    -0.02352598  0.47D-04  0.32D-03  2  2     2.81
   3      1.31554419    -0.81163882  -197.15935085    -0.00014929    -0.00245118  0.53D-05  0.22D-04  3  3     3.94
   4      1.31658505    -0.81170126  -197.15941329    -0.00006244    -0.00046105  0.25D-06  0.12D-05  4  4     5.07
   5      1.31670988    -0.81170583  -197.15941786    -0.00000457    -0.00005011  0.15D-07  0.93D-07  5  5     6.20
   6      1.31672265    -0.81170337  -197.15941540     0.00000246    -0.00000872  0.68D-09  0.61D-08  6  6     7.34
   7      1.31672121    -0.81170366  -197.15941569    -0.00000028     0.00000065  0.16D-09  0.52D-09  6  1     8.47
   8      1.31672094    -0.81170380  -197.15941583    -0.00000015     0.00000026  0.78D-11  0.30D-10  6  2     9.60
   9      1.31672065    -0.81170385  -197.15941588    -0.00000005     0.00000025  0.11D-11  0.25D-11  6  3    10.75
  10      1.31672054    -0.81170386  -197.15941589    -0.00000001     0.00000009  0.89D-13  0.22D-12  6  4    11.88
  11      1.31672048    -0.81170386  -197.15941589    -0.00000000     0.00000004  0.94D-14  0.24D-13  6  5    13.01
  12      1.31672044    -0.81170386  -197.15941589    -0.00000000     0.00000002  0.89D-15  0.12D-14  6  1    14.14
  13      1.31672044    -0.81170386  -197.15941589    -0.00000000     0.00000000  0.79D-16  0.70D-16  6  6    15.27
  14      1.31672044    -0.81170386  -197.15941589    -0.00000000     0.00000000  0.15D-16  0.96D-17  6  2    16.40
  15      1.31672044    -0.81170386  -197.15941589    -0.00000000     0.00000000  0.13D-17  0.11D-17  6  3    17.53
  16      1.31672044    -0.81170386  -197.15941589     0.00000000    -0.00000000  0.70D-19  0.92D-19  6  4    18.66
  17      1.31672044    -0.81170386  -197.15941589     0.00000000    -0.00000000  0.34D-20  0.85D-20  6  5    19.78
  18      1.31672044    -0.81170386  -197.15941589     0.00000000    -0.00000000  0.38D-21  0.12D-20  6  1    20.92
  19      1.31672044    -0.81170386  -197.15941589     0.00000000    -0.00000000  0.31D-22  0.16D-21  6  6    22.06

 Norm of t1 vector:      0.05469821      S-energy:    -0.00000000      T1 diagnostic:  0.00683728
                                                                       D1 diagnostic:  0.01261384


 Total CPU time for triples:     22.07 sec


 RESULTS
 =======

  Reference energy                   -196.347712029787
  CCSD singlet pair energy             -0.577587743716
  CCSD triplet pair energy             -0.234116119582
  CCSD correlation energy              -0.811703863298

  Triples (T) contribution             -0.023942439186
  Total correlation energy             -0.835646302484

  CCSD total energy                  -197.159415893084
  CCSD[T] energy                     -197.183817677124
  CCSD-T energy                      -197.183109669104
 !CCSD(T) total energy               -197.183358332270

 Timing summary (sec):

 STEP                 CPU(USER)    SYS     CPU(TOT)    WALL
 Transformation          0.65      0.09      0.74      0.74
 CCSD iterations        21.41      0.87     22.28     22.32
 Triples                22.07      0.71     22.78     22.79

 Program statistics:

 Available memory in ccsd:               999998876
 Min. memory needed in ccsd:               2001507
 Max. memory used in ccsd:                 2680419
 Max. memory used in cckext:               2701130 (19 integral passes)



 **********************************************************************************************************************************
 DATASETS  * FILE   NREC   LENGTH (MB)   RECORD NAMES
              1      20      206.25       500      610      700      900      950      970     1000      129      960     1100   
                                          VAR    BASINP    GEOM    SYMINP    ZMAT    AOBASIS   BASIS     P2S    ABASIS      S 
                                         1400     1410     1200     1210     1080     1600     1650     1300     1700     1380   
                                           T        V       H0       H01     AOSYM     SMH    MOLCAS    ERIS     OPER     JKOP   

              2       3        0.72       700     1000     2100   
                                         GEOM     BASIS     RHF  

 PROGRAMS   *        TOTAL   CCSD(T)       RHF       INT
 CPU TIMES  *        48.23     44.14      1.36      2.69
 REAL TIME  *        50.65 SEC
 DISK USED  *       539.10 MB      
 GA USED    *         0.00 MB       (max)       0.00 MB       (current)
 **********************************************************************************************************************************

        CCSD(T)         RHF-SCF 
   -197.18335833   -196.34771203
 **********************************************************************************************************************************
 Variable memory released
