
    -----------------------------------------------------------------------
          Psi4: An Open-Source Ab Initio Electronic Structure Package
                               Psi4 1.4a2.dev629 

                         Git: Rev {master} 2938fc2 dirty


    D. G. A. Smith, L. A. Burns, A. C. Simmonett, R. M. Parrish,
    M. C. Schieber, R. Galvelis, P. Kraus, H. Kruse, R. Di Remigio,
    A. Alenaizan, A. M. James, S. Lehtola, J. P. Misiewicz, M. Scheurer,
    R. A. Shaw, J. B. Schriber, Y. Xie, Z. L. Glick, D. A. Sirianni,
    J. S. O'Brien, J. M. Waldrop, A. Kumar, E. G. Hohenstein,
    B. P. Pritchard, B. R. Brooks, H. F. Schaefer III, A. Yu. Sokolov,
    K. Patkowski, A. E. DePrince III, U. Bozkaya, R. A. King,
    F. A. Evangelista, J. M. Turney, T. D. Crawford, C. D. Sherrill,
    J. Chem. Phys. 152(18) 184108 (2020). https://doi.org/10.1063/5.0006002

                            Additional Code Authors
    E. T. Seidl, C. L. Janssen, E. F. Valeev, M. L. Leininger,
    J. F. Gonthier, R. M. Richard, H. R. McAlexander, M. Saitow, X. Wang,
    P. Verma, and M. H. Lechner

             Previous Authors, Complete List of Code Contributors,
                       and Citations for Specific Modules
    https://github.com/psi4/psi4/blob/master/codemeta.json
    https://github.com/psi4/psi4/graphs/contributors
    http://psicode.org/psi4manual/master/introduction.html#citing-psifour

    -----------------------------------------------------------------------


    Psi4 started on: Tuesday, 16 November 2021 03:58PM

    Process ID: 12133
    Host:       n083
    PSIDATADIR: /opt/psi/4/master/share/psi4
    Memory:     500.0 MiB
    Threads:    4
    
  ==> Input File <==

--------------------------------------------------------------------------
import os
memory 14 GB 
 
molecule {
 S   -0.7954087593   -0.2906364301   -0.0004740343
 O    0.7024705779   -2.6672789474    0.0000450216
 C    0.4277228184    1.6587322750    2.5315307341
 C    0.4268439232    1.6574891246   -2.5281740906
 H   -0.1304006877    0.7681053864    4.3018826735
 H   -0.3994987510    3.5402550377    2.3959747578
 H    2.4836059989    1.7283616692    2.3960963251
 H   -0.1300027685    0.7687181623   -4.3025606866
 H    2.4837360893    1.7286695919   -2.3972386429
 H   -0.3992217613    3.5405101504   -2.3970820576
units bohr
}

basis {

assign 6-31g_2dfp_

[ 6-31g_2dfp_ ]

spherical

!----------------------------------------------------------------------
! Basis Set Exchange
! Version v0.8.13
! https://www.basissetexchange.org
!----------------------------------------------------------------------
!   Basis set: 6-31G(2df,p)
! Description: 6-31G(2df,p)
!        Role: orbital
!     Version: 0  (Data from the original Basis Set Exchange)
!----------------------------------------------------------------------


****
H     0
S    3   1.00
     18.7311370              0.03349460
      2.8253937              0.23472695
      0.6401217              0.81375733
S    1   1.00
      0.1612778              1.00000000
P    1   1.00
      1.5000000              1.0000000
P    1   1.00
      0.3750000              1.0000000
****
B     0
S    6   1.00
   2068.8823000              0.0018663
    310.6495700              0.0142515
     70.6830330              0.0695516
     19.8610800              0.2325729
      6.2993048              0.4670787
      2.1270270              0.3634314
SP   3   1.00
      4.7279710             -0.1303938              0.0745976
      1.1903377             -0.1307889              0.3078467
      0.3594117              1.1309444              0.7434568
SP   1   1.00
      0.1267512              1.0000000              1.0000000
D    1   1.00
      0.8020000              1.0000000
D    1   1.00
      0.2005000              1.0000000
F    1   1.00
      0.5000000              1.0000000
****
C     0
S    6   1.00
   3047.5249000              0.0018347
    457.3695100              0.0140373
    103.9486900              0.0688426
     29.2101550              0.2321844
      9.2866630              0.4679413
      3.1639270              0.3623120
SP   3   1.00
      7.8682724             -0.1193324              0.0689991
      1.8812885             -0.1608542              0.3164240
      0.5442493              1.1434564              0.7443083
SP   1   1.00
      0.1687144              1.0000000              1.0000000
D    1   1.00
      1.2520000              1.0000000
D    1   1.00
      0.3130000              1.0000000
F    1   1.00
      0.8000000              1.0000000
****
N     0
S    6   1.00
   4173.5110000              0.0018348
    627.4579000              0.0139950
    142.9021000              0.0685870
     40.2343300              0.2322410
     12.8202100              0.4690700
      4.3904370              0.3604550
SP   3   1.00
     11.6263580             -0.1149610              0.0675800
      2.7162800             -0.1691180              0.3239070
      0.7722180              1.1458520              0.7408950
SP   1   1.00
      0.2120313              1.0000000              1.0000000
D    1   1.00
      1.8260000              1.0000000
D    1   1.00
      0.4565000              1.0000000
F    1   1.00
      1.0000000              1.0000000
****
O     0
S    6   1.00
   5484.6717000              0.0018311
    825.2349500              0.0139501
    188.0469600              0.0684451
     52.9645000              0.2327143
     16.8975700              0.4701930
      5.7996353              0.3585209
SP   3   1.00
     15.5396160             -0.1107775              0.0708743
      3.5999336             -0.1480263              0.3397528
      1.0137618              1.1307670              0.7271586
SP   1   1.00
      0.2700058              1.0000000              1.0000000
D    1   1.00
      2.5840000              1.0000000
D    1   1.00
      0.6460000              1.0000000
F    1   1.00
      1.4000000              1.0000000
****
F     0
S    6   1.00
   7001.7130900              0.0018196169
   1051.3660900              0.0139160796
    239.2856900              0.0684053245
     67.3974453              0.233185760
     21.5199573              0.471267439
      7.40310130             0.356618546
SP   3   1.00
     20.8479528             -0.108506975            0.0716287243
      4.80830834            -0.146451658            0.3459121030
      1.34406986             1.128688580            0.7224699570
SP   1   1.00
      0.358151393            1.0000000              1.0000000
D    1   1.00
      3.5000000              1.0000000
D    1   1.00
      0.8750000              1.0000000
F    1   1.00
      1.8500000              1.0000000
****
Al     0
S    6   1.00
  13983.1000000              0.00194267
   2098.7500000              0.0148599
    477.7050000              0.0728494
    134.3600000              0.2468300
     42.8709000              0.4872580
     14.5189000              0.3234960
SP   6   1.00
    239.6680000             -0.00292619             0.00460285
     57.4419000             -0.0374080              0.0331990
     18.2859000             -0.1144870              0.1362820
      6.5991400              0.1156350              0.3304760
      2.4904900              0.6125950              0.4491460
      0.9445400              0.3937990              0.2657040
SP   3   1.00
      1.2779000             -0.2276060             -0.0175130
      0.3975900              0.00144583             0.2445330
      0.1600950              1.0927900              0.8049340
SP   1   1.00
      0.0556577              1.0000000              1.0000000
D    1   1.00
      0.6500000              1.0000000
D    1   1.00
      0.1625000              1.0000000
F    1   1.00
      0.2500000              1.0000000
****
Si     0
S    6   1.00
  16115.9000000              0.00195948
   2425.5800000              0.01492880
    553.8670000              0.07284780
    156.3400000              0.24613000
     50.0683000              0.48591400
     17.0178000              0.32500200
SP   6   1.00
    292.7180000             -0.00278094             0.00443826
     69.8731000             -0.03571460             0.03266790
     22.3363000             -0.11498500             0.13472100
      8.1503900              0.09356340             0.32867800
      3.1345800              0.60301700             0.44964000
      1.2254300              0.41895900             0.26137200
SP   3   1.00
      1.7273800             -0.24463000            -0.01779510
      0.5729220              0.00431572             0.25353900
      0.2221920              1.09818000             0.80066900
SP   1   1.00
      0.0778369              1.00000000             1.00000000
D    1   1.00
      0.9000000              1.0000000
D    1   1.00
      0.2250000              1.0000000
F    1   1.00
      0.3200000              1.0000000
****
P     0
S    6   1.00
  19413.3000000              0.0018516
   2909.4200000              0.0142062
    661.3640000              0.0699995
    185.7590000              0.2400790
     59.1943000              0.4847620
     20.0310000              0.3352000
SP   6   1.00
    339.4780000             -0.00278217             0.00456462
     81.0101000             -0.0360499              0.03369360
     25.8780000             -0.1166310              0.13975500
      9.4522100              0.0968328              0.33936200
      3.6656600              0.6144180              0.45092100
      1.4674600              0.4037980              0.23858600
SP   3   1.00
      2.1562300             -0.2529230             -0.01776530
      0.7489970              0.0328517              0.27405800
      0.2831450              1.0812500              0.78542100
SP   1   1.00
      0.0998317              1.0000000              1.00000000
D    1   1.00
      1.1000000              1.0000000
D    1   1.00
      0.2750000              1.0000000
F    1   1.00
      0.4500000              1.0000000
****
S     0
S    6   1.00
  21917.1000000              0.0018690
   3301.4900000              0.0142300
    754.1460000              0.0696960
    212.7110000              0.2384870
     67.9896000              0.4833070
     23.0515000              0.3380740
SP   6   1.00
    423.7350000             -0.0023767              0.0040610
    100.7100000             -0.0316930              0.0306810
     32.1599000             -0.1133170              0.1304520
     11.8079000              0.0560900              0.3272050
      4.6311000              0.5922550              0.4528510
      1.8702500              0.4550060              0.2560420
SP   3   1.00
      2.6158400             -0.2503740             -0.0145110
      0.9221670              0.0669570              0.3102630
      0.3412870              1.0545100              0.7544830
SP   1   1.00
      0.1171670              1.0000000              1.0000000
D    1   1.00
      1.3000000              1.0000000
D    1   1.00
      0.3250000              1.0000000
F    1   1.00
      0.5500000              1.0000000
****
Cl     0
S    6   1.00
  25180.1000000              0.0018330
   3780.3500000              0.0140340
    860.4740000              0.0690970
    242.1450000              0.2374520
     77.3349000              0.4830340
     26.2470000              0.3398560
SP   6   1.00
    491.7650000             -0.0022974              0.0039894
    116.9840000             -0.0307140              0.0303180
     37.4153000             -0.1125280              0.1298800
     13.7834000              0.0450160              0.3279510
      5.4521500              0.5893530              0.4535270
      2.2258800              0.4652060              0.2521540
SP   3   1.00
      3.1864900             -0.2518300             -0.0142990
      1.1442700              0.0615890              0.3235720
      0.4203770              1.0601800              0.7435070
SP   1   1.00
      0.1426570              1.0000000              1.0000000
D    1   1.00
      1.5000000              1.0000000
D    1   1.00
      0.3750000              1.0000000
F    1   1.00
      0.7000000              1.0000000
****
}


set {
reference rhf                          
freeze_core true
e_convergence 10                       
d_convergence 10                      
dft_spherical_points 1202
dft_radial_points 99
}

e = energy('b3lyp')

print_out('Grab this energy {0}'.format(e))
--------------------------------------------------------------------------

  Memory set to  13.039 GiB by Python driver.

Scratch directory: /tmp/

*** tstart() called on n083
*** at Tue Nov 16 15:58:17 2021

   => Loading Basis Set <=

    Name: ANONYMOUSBD7D8175
    Role: ORBITAL
    Keyword: BASIS
    atoms 1    entry S          line   216 inputblock 6-31g_2dfp_ 
    atoms 2    entry O          line    90 inputblock 6-31g_2dfp_ 
    atoms 3-4  entry C          line    48 inputblock 6-31g_2dfp_ 
    atoms 5-10 entry H          line    15 inputblock 6-31g_2dfp_ 


         ---------------------------------------------------------
                                   SCF
               by Justin Turney, Rob Parrish, Andy Simmonett
                          and Daniel G. A. Smith
                              RKS Reference
                        4 Threads,  13351 MiB Core
         ---------------------------------------------------------

  ==> Geometry <==

    Molecular point group: c1
    Full point group: C1

    Geometry (in Bohr), charge = 0, multiplicity = 1:

       Center              X                  Y                   Z               Mass       
    ------------   -----------------  -----------------  -----------------  -----------------
         S           -0.795391998228    -0.290746838893    -0.000767487521    31.972071174400
         O            0.702487338972    -2.667389356193    -0.000248431621    15.994914619570
         C            0.427739579472     1.658621866207     2.531237280879    12.000000000000
         C            0.426860684272     1.657378715807    -2.528467543821    12.000000000000
         H           -0.130383926628     0.767994977607     4.301589220279     1.007825032230
         H           -0.399481989928     3.540144628907     2.395681304579     1.007825032230
         H            2.483622759972     1.728251260407     2.395802871879     1.007825032230
         H           -0.129986007428     0.768607753507    -4.302854139821     1.007825032230
         H            2.483752850372     1.728559183107    -2.397532096121     1.007825032230
         H           -0.399205000228     3.540399741607    -2.397375510821     1.007825032230

  Running in c1 symmetry.

  Rotational constants: A =      0.23212  B =      0.23131  C =      0.14032 [cm^-1]
  Rotational constants: A =   6958.76858  B =   6934.43021  C =   4206.64158 [MHz]
  Nuclear repulsion =  184.364435347779107

  Charge       = 0
  Multiplicity = 1
  Electrons    = 42
  Nalpha       = 21
  Nbeta        = 21

  ==> Algorithm <==

  SCF Algorithm Type is DF.
  DIIS enabled.
  MOM disabled.
  Fractional occupation disabled.
  Guess Type is SAD.
  Energy threshold   = 1.00e-10
  Density threshold  = 1.00e-10
  Integral threshold = 0.00e+00

  ==> Primary Basis <==

  Basis Set: ANONYMOUSBD7D8175
    Blend: 6-31G_2DFP_
    Number of shells: 58
    Number of basis function: 156
    Number of Cartesian functions: 176
    Spherical Harmonics?: true
    Max angular momentum: 3

  ==> DFT Potential <==

   => Composite Functional: B3LYP <= 

    B3LYP Hyb-GGA Exchange-Correlation Functional

    P. J. Stephens, F. J. Devlin, C. F. Chabalowski, and M. J. Frisch, J. Phys. Chem. 98, 11623 (1994)

    Deriv               =              1
    GGA                 =           TRUE
    Meta                =          FALSE

    Exchange Hybrid     =           TRUE
    MP2 Hybrid          =          FALSE

   => Exchange Functionals <=

    0.0800   Slater exchange
    0.7200         Becke 88

   => Exact (HF) Exchange <=

    0.2000               HF 

   => Correlation Functionals <=

    0.1900   Vosko, Wilk & Nusair (VWN5_RPA)
    0.8100   Lee, Yang & Parr

   => Molecular Quadrature <=

    Radial Scheme          =       TREUTLER
    Pruning Scheme         =           NONE
    Nuclear Scheme         =       TREUTLER

    BS radius alpha        =              1
    Pruning alpha          =              1
    Radial Points          =             99
    Spherical Points       =           1202
    Total Points           =        1116318
    Total Blocks           =           7505
    Max Points             =            256
    Max Functions          =            155
    Weights Tolerance      =       1.00E-15

   => Loading Basis Set <=

    Name: (ANONYMOUSBD7D8175 AUX)
    Role: JKFIT
    Keyword: DF_BASIS_SCF
    atoms 1    entry S          line   903 file /opt/psi/4/master/share/psi4/basis/def2-universal-jkfit.gbs 
    atoms 2    entry O          line   318 file /opt/psi/4/master/share/psi4/basis/def2-universal-jkfit.gbs 
    atoms 3-4  entry C          line   198 file /opt/psi/4/master/share/psi4/basis/def2-universal-jkfit.gbs 
    atoms 5-10 entry H          line    18 file /opt/psi/4/master/share/psi4/basis/def2-universal-jkfit.gbs 

  ==> Integral Setup <==

  DFHelper Memory: AOs need 0.090 GiB; user supplied 5.944 GiB. Using in-core AOs.

  ==> MemDFJK: Density-Fitted J/K Matrices <==

    J tasked:                   Yes
    K tasked:                   Yes
    wK tasked:                   No
    OpenMP threads:               4
    Memory [MiB]:              6086
    Algorithm:                 Core
    Schwarz Cutoff:           1E-12
    Mask sparsity (%):       1.3396
    Fitting Condition:        1E-10

   => Auxiliary Basis Set <=

  Basis Set: (ANONYMOUSBD7D8175 AUX)
    Blend: DEF2-UNIVERSAL-JKFIT
    Number of shells: 149
    Number of basis function: 463
    Number of Cartesian functions: 546
    Spherical Harmonics?: true
    Max angular momentum: 4

  Cached 100.0% of DFT collocation blocks in 3.835 [GiB].

  Minimum eigenvalue in the overlap matrix is 2.9818266771E-03.
  Reciprocal condition number of the overlap matrix is 5.3562325457E-04.
    Using symmetric orthogonalization.

  ==> Pre-Iterations <==

  SCF Guess: Superposition of Atomic Densities via on-the-fly atomic UHF (no occupation information).

   -------------------------
    Irrep   Nso     Nmo    
   -------------------------
     A        156     156 
   -------------------------
    Total     156     156
   -------------------------

  ==> Iterations <==

                           Total Energy        Delta E     RMS |[F,P]|

   @DF-RKS iter SAD:  -552.83220125371315   -5.52832e+02   0.00000e+00 
   @DF-RKS iter   1:  -552.84690515272973   -1.47039e-02   5.76802e-03 DIIS
   @DF-RKS iter   2:  -552.26378381942231    5.83121e-01   9.39198e-03 DIIS
   @DF-RKS iter   3:  -553.14347393544904   -8.79690e-01   2.49594e-03 DIIS
   @DF-RKS iter   4:  -553.21211366438877   -6.86397e-02   4.30610e-04 DIIS
   @DF-RKS iter   5:  -553.21401029949948   -1.89664e-03   1.40241e-04 DIIS
   @DF-RKS iter   6:  -553.21427134293060   -2.61043e-04   2.40278e-05 DIIS
   @DF-RKS iter   7:  -553.21427880613055   -7.46320e-06   6.16933e-06 DIIS
   @DF-RKS iter   8:  -553.21427925286923   -4.46739e-07   1.03876e-06 DIIS
   @DF-RKS iter   9:  -553.21427926684703   -1.39778e-08   2.51043e-07 DIIS
   @DF-RKS iter  10:  -553.21427926751380   -6.66773e-10   9.01990e-08 DIIS
   @DF-RKS iter  11:  -553.21427926761271   -9.89075e-11   2.48452e-08 DIIS
   @DF-RKS iter  12:  -553.21427926762135   -8.64020e-12   3.78541e-09 DIIS
   @DF-RKS iter  13:  -553.21427926762158   -2.27374e-13   6.14855e-10 DIIS
   @DF-RKS iter  14:  -553.21427926762135    2.27374e-13   2.35097e-10 DIIS
   @DF-RKS iter  15:  -553.21427926762192   -5.68434e-13   5.23784e-11 DIIS
  Energy and wave function converged.


  ==> Post-Iterations <==

    Orbital Energies [Eh]
    ---------------------

    Doubly Occupied:                                                      

       1A    -88.969881     2A    -19.093588     3A    -10.204920  
       4A    -10.204804     5A     -8.021271     6A     -5.984946  
       7A     -5.984771     8A     -5.979056     9A     -1.003694  
      10A     -0.789274    11A     -0.719253    12A     -0.597263  
      13A     -0.466659    14A     -0.457502    15A     -0.453805  
      16A     -0.423431    17A     -0.396593    18A     -0.388868  
      19A     -0.350024    20A     -0.263394    21A     -0.223385  

    Virtual:                                                              

      22A      0.047845    23A      0.048838    24A      0.068645  
      25A      0.108493    26A      0.114257    27A      0.135618  
      28A      0.137697    29A      0.159340    30A      0.169005  
      31A      0.294841    32A      0.316380    33A      0.329949  
      34A      0.346555    35A      0.359714    36A      0.411252  
      37A      0.432665    38A      0.459972    39A      0.461221  
      40A      0.489039    41A      0.495014    42A      0.506800  
      43A      0.523619    44A      0.580228    45A      0.602842  
      46A      0.613296    47A      0.613625    48A      0.626596  
      49A      0.645008    50A      0.718771    51A      0.729336  
      52A      0.758403    53A      0.762988    54A      0.773716  
      55A      0.827195    56A      0.837901    57A      0.897261  
      58A      0.957046    59A      0.986359    60A      0.987279  
      61A      1.003434    62A      1.042283    63A      1.081634  
      64A      1.139211    65A      1.140789    66A      1.181570  
      67A      1.239159    68A      1.248375    69A      1.255228  
      70A      1.279454    71A      1.281221    72A      1.303551  
      73A      1.338219    74A      1.363024    75A      1.371184  
      76A      1.413770    77A      1.451720    78A      1.499224  
      79A      1.531643    80A      1.593130    81A      1.636604  
      82A      1.686584    83A      1.718932    84A      1.757768  
      85A      1.795204    86A      1.813295    87A      1.860966  
      88A      1.869690    89A      1.901715    90A      1.951171  
      91A      1.970056    92A      2.024583    93A      2.027193  
      94A      2.106805    95A      2.131152    96A      2.319122  
      97A      2.320573    98A      2.410369    99A      2.428552  
     100A      2.550809   101A      2.597971   102A      2.770673  
     103A      2.891084   104A      2.925513   105A      2.926109  
     106A      2.967271   107A      2.997279   108A      3.003868  
     109A      3.045410   110A      3.120954   111A      3.173740  
     112A      3.198744   113A      3.234933   114A      3.307221  
     115A      3.335671   116A      3.388757   117A      3.407977  
     118A      3.450712   119A      3.528801   120A      3.564843  
     121A      3.603750   122A      3.653799   123A      3.654801  
     124A      3.670613   125A      3.773507   126A      3.822632  
     127A      4.072986   128A      4.096154   129A      4.133165  
     130A      4.172033   131A      4.222980   132A      4.259097  
     133A      4.318518   134A      4.331064   135A      4.364595  
     136A      4.368081   137A      4.419954   138A      4.494397  
     139A      4.951481   140A      4.957397   141A      5.095209  
     142A      5.104121   143A      5.169427   144A      5.186641  
     145A      5.194676   146A      5.196555   147A      5.205259  
     148A      5.242439   149A      5.372211   150A      5.382621  
     151A      5.420618   152A      6.823165   153A      6.835305  
     154A      7.161078   155A      7.197630   156A      7.361412  

    Final Occupation by Irrep:
              A 
    DOCC [    21 ]

  @DF-RKS Final Energy:  -553.21427926762192

   => Energetics <=

    Nuclear Repulsion Energy =            184.3644353477791071
    One-Electron Energy =               -1125.8389286991630343
    Two-Electron Energy =                 426.5653074431563709
    DFT Exchange-Correlation Energy =     -38.3050933593943412
    Empirical Dispersion Energy =           0.0000000000000000
    VV10 Nonlocal Energy =                  0.0000000000000000
    Total Energy =                       -553.2142792676219187

Computation Completed


Properties will be evaluated at   0.000000,   0.000000,   0.000000 [a0]

Properties computed using the SCF density matrix

  Nuclear Dipole Moment: [e a0]
     X:     1.9295      Y:     5.9789      Z:    -0.0023

  Electronic Dipole Moment: [e a0]
     X:    -2.0565      Y:    -4.5336      Z:     0.0014

  Dipole Moment: [e a0]
     X:    -0.1269      Y:     1.4453      Z:    -0.0009     Total:     1.4509

  Dipole Moment: [D]
     X:    -0.3226      Y:     3.6736      Z:    -0.0023     Total:     3.6878


*** tstop() called on n083 at Tue Nov 16 15:58:40 2021
Module time:
	user time   =      89.14 seconds =       1.49 minutes
	system time =       1.21 seconds =       0.02 minutes
	total time  =         23 seconds =       0.38 minutes
Total time:
	user time   =      89.14 seconds =       1.49 minutes
	system time =       1.21 seconds =       0.02 minutes
	total time  =         23 seconds =       0.38 minutes
Grab this energy -553.2142792676219
    Psi4 stopped on: Tuesday, 16 November 2021 03:58PM
    Psi4 wall time for execution: 0:00:23.12

*** Psi4 exiting successfully. Buy a developer a beer!
