
    -----------------------------------------------------------------------
          Psi4: An Open-Source Ab Initio Electronic Structure Package
                               Psi4 1.4a2.dev629 

                         Git: Rev {master} 2938fc2 dirty


    D. G. A. Smith, L. A. Burns, A. C. Simmonett, R. M. Parrish,
    M. C. Schieber, R. Galvelis, P. Kraus, H. Kruse, R. Di Remigio,
    A. Alenaizan, A. M. James, S. Lehtola, J. P. Misiewicz, M. Scheurer,
    R. A. Shaw, J. B. Schriber, Y. Xie, Z. L. Glick, D. A. Sirianni,
    J. S. O'Brien, J. M. Waldrop, A. Kumar, E. G. Hohenstein,
    B. P. Pritchard, B. R. Brooks, H. F. Schaefer III, A. Yu. Sokolov,
    K. Patkowski, A. E. DePrince III, U. Bozkaya, R. A. King,
    F. A. Evangelista, J. M. Turney, T. D. Crawford, C. D. Sherrill,
    J. Chem. Phys. 152(18) 184108 (2020). https://doi.org/10.1063/5.0006002

                            Additional Code Authors
    E. T. Seidl, C. L. Janssen, E. F. Valeev, M. L. Leininger,
    J. F. Gonthier, R. M. Richard, H. R. McAlexander, M. Saitow, X. Wang,
    P. Verma, and M. H. Lechner

             Previous Authors, Complete List of Code Contributors,
                       and Citations for Specific Modules
    https://github.com/psi4/psi4/blob/master/codemeta.json
    https://github.com/psi4/psi4/graphs/contributors
    http://psicode.org/psi4manual/master/introduction.html#citing-psifour

    -----------------------------------------------------------------------


    Psi4 started on: Tuesday, 16 November 2021 04:02PM

    Process ID: 5712
    Host:       n084
    PSIDATADIR: /opt/psi/4/master/share/psi4
    Memory:     500.0 MiB
    Threads:    4
    
  ==> Input File <==

--------------------------------------------------------------------------
import os
memory 14 GB 
 
molecule {
 S   -0.7946005433   -0.2896265984   -0.0000000000
 O    0.7018653443   -2.6669067292   -0.0000000000
 C    0.4272378870    1.6549565893    2.5299535795
 C    0.4272378870    1.6549565893   -2.5299535795
 H   -0.1269862035    0.7675104353    4.3021593145
 H   -0.3998733900    3.5439741514    2.3951300768
 H    2.4809126460    1.7282884979    2.3981846243
 H   -0.1269862035    0.7675104353   -4.3021593145
 H    2.4809126460    1.7282884979   -2.3981846243
 H   -0.3998733900    3.5439741514   -2.3951300768
units bohr
}

basis {

assign 6-31g_2dfp_

[ 6-31g_2dfp_ ]

spherical

!----------------------------------------------------------------------
! Basis Set Exchange
! Version v0.8.13
! https://www.basissetexchange.org
!----------------------------------------------------------------------
!   Basis set: 6-31G(2df,p)
! Description: 6-31G(2df,p)
!        Role: orbital
!     Version: 0  (Data from the original Basis Set Exchange)
!----------------------------------------------------------------------


****
H     0
S    3   1.00
     18.7311370              0.03349460
      2.8253937              0.23472695
      0.6401217              0.81375733
S    1   1.00
      0.1612778              1.00000000
P    1   1.00
      1.5000000              1.0000000
P    1   1.00
      0.3750000              1.0000000
****
B     0
S    6   1.00
   2068.8823000              0.0018663
    310.6495700              0.0142515
     70.6830330              0.0695516
     19.8610800              0.2325729
      6.2993048              0.4670787
      2.1270270              0.3634314
SP   3   1.00
      4.7279710             -0.1303938              0.0745976
      1.1903377             -0.1307889              0.3078467
      0.3594117              1.1309444              0.7434568
SP   1   1.00
      0.1267512              1.0000000              1.0000000
D    1   1.00
      0.8020000              1.0000000
D    1   1.00
      0.2005000              1.0000000
F    1   1.00
      0.5000000              1.0000000
****
C     0
S    6   1.00
   3047.5249000              0.0018347
    457.3695100              0.0140373
    103.9486900              0.0688426
     29.2101550              0.2321844
      9.2866630              0.4679413
      3.1639270              0.3623120
SP   3   1.00
      7.8682724             -0.1193324              0.0689991
      1.8812885             -0.1608542              0.3164240
      0.5442493              1.1434564              0.7443083
SP   1   1.00
      0.1687144              1.0000000              1.0000000
D    1   1.00
      1.2520000              1.0000000
D    1   1.00
      0.3130000              1.0000000
F    1   1.00
      0.8000000              1.0000000
****
N     0
S    6   1.00
   4173.5110000              0.0018348
    627.4579000              0.0139950
    142.9021000              0.0685870
     40.2343300              0.2322410
     12.8202100              0.4690700
      4.3904370              0.3604550
SP   3   1.00
     11.6263580             -0.1149610              0.0675800
      2.7162800             -0.1691180              0.3239070
      0.7722180              1.1458520              0.7408950
SP   1   1.00
      0.2120313              1.0000000              1.0000000
D    1   1.00
      1.8260000              1.0000000
D    1   1.00
      0.4565000              1.0000000
F    1   1.00
      1.0000000              1.0000000
****
O     0
S    6   1.00
   5484.6717000              0.0018311
    825.2349500              0.0139501
    188.0469600              0.0684451
     52.9645000              0.2327143
     16.8975700              0.4701930
      5.7996353              0.3585209
SP   3   1.00
     15.5396160             -0.1107775              0.0708743
      3.5999336             -0.1480263              0.3397528
      1.0137618              1.1307670              0.7271586
SP   1   1.00
      0.2700058              1.0000000              1.0000000
D    1   1.00
      2.5840000              1.0000000
D    1   1.00
      0.6460000              1.0000000
F    1   1.00
      1.4000000              1.0000000
****
F     0
S    6   1.00
   7001.7130900              0.0018196169
   1051.3660900              0.0139160796
    239.2856900              0.0684053245
     67.3974453              0.233185760
     21.5199573              0.471267439
      7.40310130             0.356618546
SP   3   1.00
     20.8479528             -0.108506975            0.0716287243
      4.80830834            -0.146451658            0.3459121030
      1.34406986             1.128688580            0.7224699570
SP   1   1.00
      0.358151393            1.0000000              1.0000000
D    1   1.00
      3.5000000              1.0000000
D    1   1.00
      0.8750000              1.0000000
F    1   1.00
      1.8500000              1.0000000
****
Al     0
S    6   1.00
  13983.1000000              0.00194267
   2098.7500000              0.0148599
    477.7050000              0.0728494
    134.3600000              0.2468300
     42.8709000              0.4872580
     14.5189000              0.3234960
SP   6   1.00
    239.6680000             -0.00292619             0.00460285
     57.4419000             -0.0374080              0.0331990
     18.2859000             -0.1144870              0.1362820
      6.5991400              0.1156350              0.3304760
      2.4904900              0.6125950              0.4491460
      0.9445400              0.3937990              0.2657040
SP   3   1.00
      1.2779000             -0.2276060             -0.0175130
      0.3975900              0.00144583             0.2445330
      0.1600950              1.0927900              0.8049340
SP   1   1.00
      0.0556577              1.0000000              1.0000000
D    1   1.00
      0.6500000              1.0000000
D    1   1.00
      0.1625000              1.0000000
F    1   1.00
      0.2500000              1.0000000
****
Si     0
S    6   1.00
  16115.9000000              0.00195948
   2425.5800000              0.01492880
    553.8670000              0.07284780
    156.3400000              0.24613000
     50.0683000              0.48591400
     17.0178000              0.32500200
SP   6   1.00
    292.7180000             -0.00278094             0.00443826
     69.8731000             -0.03571460             0.03266790
     22.3363000             -0.11498500             0.13472100
      8.1503900              0.09356340             0.32867800
      3.1345800              0.60301700             0.44964000
      1.2254300              0.41895900             0.26137200
SP   3   1.00
      1.7273800             -0.24463000            -0.01779510
      0.5729220              0.00431572             0.25353900
      0.2221920              1.09818000             0.80066900
SP   1   1.00
      0.0778369              1.00000000             1.00000000
D    1   1.00
      0.9000000              1.0000000
D    1   1.00
      0.2250000              1.0000000
F    1   1.00
      0.3200000              1.0000000
****
P     0
S    6   1.00
  19413.3000000              0.0018516
   2909.4200000              0.0142062
    661.3640000              0.0699995
    185.7590000              0.2400790
     59.1943000              0.4847620
     20.0310000              0.3352000
SP   6   1.00
    339.4780000             -0.00278217             0.00456462
     81.0101000             -0.0360499              0.03369360
     25.8780000             -0.1166310              0.13975500
      9.4522100              0.0968328              0.33936200
      3.6656600              0.6144180              0.45092100
      1.4674600              0.4037980              0.23858600
SP   3   1.00
      2.1562300             -0.2529230             -0.01776530
      0.7489970              0.0328517              0.27405800
      0.2831450              1.0812500              0.78542100
SP   1   1.00
      0.0998317              1.0000000              1.00000000
D    1   1.00
      1.1000000              1.0000000
D    1   1.00
      0.2750000              1.0000000
F    1   1.00
      0.4500000              1.0000000
****
S     0
S    6   1.00
  21917.1000000              0.0018690
   3301.4900000              0.0142300
    754.1460000              0.0696960
    212.7110000              0.2384870
     67.9896000              0.4833070
     23.0515000              0.3380740
SP   6   1.00
    423.7350000             -0.0023767              0.0040610
    100.7100000             -0.0316930              0.0306810
     32.1599000             -0.1133170              0.1304520
     11.8079000              0.0560900              0.3272050
      4.6311000              0.5922550              0.4528510
      1.8702500              0.4550060              0.2560420
SP   3   1.00
      2.6158400             -0.2503740             -0.0145110
      0.9221670              0.0669570              0.3102630
      0.3412870              1.0545100              0.7544830
SP   1   1.00
      0.1171670              1.0000000              1.0000000
D    1   1.00
      1.3000000              1.0000000
D    1   1.00
      0.3250000              1.0000000
F    1   1.00
      0.5500000              1.0000000
****
Cl     0
S    6   1.00
  25180.1000000              0.0018330
   3780.3500000              0.0140340
    860.4740000              0.0690970
    242.1450000              0.2374520
     77.3349000              0.4830340
     26.2470000              0.3398560
SP   6   1.00
    491.7650000             -0.0022974              0.0039894
    116.9840000             -0.0307140              0.0303180
     37.4153000             -0.1125280              0.1298800
     13.7834000              0.0450160              0.3279510
      5.4521500              0.5893530              0.4535270
      2.2258800              0.4652060              0.2521540
SP   3   1.00
      3.1864900             -0.2518300             -0.0142990
      1.1442700              0.0615890              0.3235720
      0.4203770              1.0601800              0.7435070
SP   1   1.00
      0.1426570              1.0000000              1.0000000
D    1   1.00
      1.5000000              1.0000000
D    1   1.00
      0.3750000              1.0000000
F    1   1.00
      0.7000000              1.0000000
****
}


set {
reference rhf                          
freeze_core true
e_convergence 10                       
d_convergence 10                      
dft_spherical_points 1202
dft_radial_points 99
}

e = energy('b3lyp')

print_out('Grab this energy {0}'.format(e))
--------------------------------------------------------------------------

  Memory set to  13.039 GiB by Python driver.

Scratch directory: /tmp/

*** tstart() called on n084
*** at Tue Nov 16 16:02:17 2021

   => Loading Basis Set <=

    Name: ANONYMOUS71505560
    Role: ORBITAL
    Keyword: BASIS
    atoms 1    entry S          line   216 inputblock 6-31g_2dfp_ 
    atoms 2    entry O          line    90 inputblock 6-31g_2dfp_ 
    atoms 3-4  entry C          line    48 inputblock 6-31g_2dfp_ 
    atoms 5-10 entry H          line    15 inputblock 6-31g_2dfp_ 


         ---------------------------------------------------------
                                   SCF
               by Justin Turney, Rob Parrish, Andy Simmonett
                          and Daniel G. A. Smith
                              RKS Reference
                        4 Threads,  13351 MiB Core
         ---------------------------------------------------------

  ==> Geometry <==

    Molecular point group: cs
    Full point group: Cs

    Geometry (in Bohr), charge = 0, multiplicity = 1:

       Center              X                  Y                   Z               Mass       
    ------------   -----------------  -----------------  -----------------  -----------------
         S           -0.794775481021    -0.289320492841     0.000000000000    31.972071174400
         O            0.701690406579    -2.666600623641     0.000000000000    15.994914619570
         C            0.427062949279     1.655262694859     2.529953579500    12.000000000000
         C            0.427062949279     1.655262694859    -2.529953579500    12.000000000000
         H           -0.127161141221     0.767816540859     4.302159314500     1.007825032230
         H           -0.400048327721     3.544280256959     2.395130076800     1.007825032230
         H            2.480737708279     1.728594603459     2.398184624300     1.007825032230
         H           -0.127161141221     0.767816540859    -4.302159314500     1.007825032230
         H            2.480737708279     1.728594603459    -2.398184624300     1.007825032230
         H           -0.400048327721     3.544280256959    -2.395130076800     1.007825032230

  Running in cs symmetry.

  Rotational constants: A =      0.23217  B =      0.23162  C =      0.14040 [cm^-1]
  Rotational constants: A =   6960.41688  B =   6943.73611  C =   4209.01691 [MHz]
  Nuclear repulsion =  184.418384417591454

  Charge       = 0
  Multiplicity = 1
  Electrons    = 42
  Nalpha       = 21
  Nbeta        = 21

  ==> Algorithm <==

  SCF Algorithm Type is DF.
  DIIS enabled.
  MOM disabled.
  Fractional occupation disabled.
  Guess Type is SAD.
  Energy threshold   = 1.00e-10
  Density threshold  = 1.00e-10
  Integral threshold = 0.00e+00

  ==> Primary Basis <==

  Basis Set: ANONYMOUS71505560
    Blend: 6-31G_2DFP_
    Number of shells: 58
    Number of basis function: 156
    Number of Cartesian functions: 176
    Spherical Harmonics?: true
    Max angular momentum: 3

  ==> DFT Potential <==

   => Composite Functional: B3LYP <= 

    B3LYP Hyb-GGA Exchange-Correlation Functional

    P. J. Stephens, F. J. Devlin, C. F. Chabalowski, and M. J. Frisch, J. Phys. Chem. 98, 11623 (1994)

    Deriv               =              1
    GGA                 =           TRUE
    Meta                =          FALSE

    Exchange Hybrid     =           TRUE
    MP2 Hybrid          =          FALSE

   => Exchange Functionals <=

    0.0800   Slater exchange
    0.7200         Becke 88

   => Exact (HF) Exchange <=

    0.2000               HF 

   => Correlation Functionals <=

    0.1900   Vosko, Wilk & Nusair (VWN5_RPA)
    0.8100   Lee, Yang & Parr

   => Molecular Quadrature <=

    Radial Scheme          =       TREUTLER
    Pruning Scheme         =           NONE
    Nuclear Scheme         =       TREUTLER

    BS radius alpha        =              1
    Pruning alpha          =              1
    Radial Points          =             99
    Spherical Points       =           1202
    Total Points           =        1116296
    Total Blocks           =           7512
    Max Points             =            256
    Max Functions          =            155
    Weights Tolerance      =       1.00E-15

   => Loading Basis Set <=

    Name: (ANONYMOUS71505560 AUX)
    Role: JKFIT
    Keyword: DF_BASIS_SCF
    atoms 1    entry S          line   903 file /opt/psi/4/master/share/psi4/basis/def2-universal-jkfit.gbs 
    atoms 2    entry O          line   318 file /opt/psi/4/master/share/psi4/basis/def2-universal-jkfit.gbs 
    atoms 3-4  entry C          line   198 file /opt/psi/4/master/share/psi4/basis/def2-universal-jkfit.gbs 
    atoms 5-10 entry H          line    18 file /opt/psi/4/master/share/psi4/basis/def2-universal-jkfit.gbs 

  ==> Integral Setup <==

  DFHelper Memory: AOs need 0.090 GiB; user supplied 5.943 GiB. Using in-core AOs.

  ==> MemDFJK: Density-Fitted J/K Matrices <==

    J tasked:                   Yes
    K tasked:                   Yes
    wK tasked:                   No
    OpenMP threads:               4
    Memory [MiB]:              6085
    Algorithm:                 Core
    Schwarz Cutoff:           1E-12
    Mask sparsity (%):       1.3396
    Fitting Condition:        1E-10

   => Auxiliary Basis Set <=

  Basis Set: (ANONYMOUS71505560 AUX)
    Blend: DEF2-UNIVERSAL-JKFIT
    Number of shells: 149
    Number of basis function: 463
    Number of Cartesian functions: 546
    Spherical Harmonics?: true
    Max angular momentum: 4

  Cached 100.0% of DFT collocation blocks in 3.836 [GiB].

  Minimum eigenvalue in the overlap matrix is 2.8246616960E-03.
  Reciprocal condition number of the overlap matrix is 5.3705847659E-04.
    Using symmetric orthogonalization.

  ==> Pre-Iterations <==

  SCF Guess: Superposition of Atomic Densities via on-the-fly atomic UHF (no occupation information).

   -------------------------
    Irrep   Nso     Nmo    
   -------------------------
     A'        87      87 
     A"        69      69 
   -------------------------
    Total     156     156
   -------------------------

  ==> Iterations <==

                           Total Energy        Delta E     RMS |[F,P]|

   @DF-RKS iter SAD:  -552.83454853562466   -5.52835e+02   0.00000e+00 
   @DF-RKS iter   1:  -552.84683382254002   -1.22853e-02   8.10350e-03 DIIS
   @DF-RKS iter   2:  -552.26148884757151    5.85345e-01   1.32084e-02 DIIS
   @DF-RKS iter   3:  -553.14334737715853   -8.81859e-01   3.50901e-03 DIIS
   @DF-RKS iter   4:  -553.21209806945399   -6.87507e-02   6.03821e-04 DIIS
   @DF-RKS iter   5:  -553.21398807698847   -1.89001e-03   1.95946e-04 DIIS
   @DF-RKS iter   6:  -553.21424589021558   -2.57813e-04   3.36529e-05 DIIS
   @DF-RKS iter   7:  -553.21425331266141   -7.42245e-06   8.67572e-06 DIIS
   @DF-RKS iter   8:  -553.21425376019511   -4.47534e-07   1.45624e-06 DIIS
   @DF-RKS iter   9:  -553.21425377418041   -1.39853e-08   3.33803e-07 DIIS
   @DF-RKS iter  10:  -553.21425377485434   -6.73936e-10   4.48768e-08 DIIS
   @DF-RKS iter  11:  -553.21425377487003   -1.56888e-11   8.88187e-09 DIIS
   @DF-RKS iter  12:  -553.21425377487026   -2.27374e-13   1.92298e-09 DIIS
   @DF-RKS iter  13:  -553.21425377487060   -3.41061e-13   5.80530e-10 DIIS
   @DF-RKS iter  14:  -553.21425377487014    4.54747e-13   1.17149e-10 DIIS
   @DF-RKS iter  15:  -553.21425377487037   -2.27374e-13   1.39040e-11 DIIS
  Energy and wave function converged.


  ==> Post-Iterations <==

    Orbital Energies [Eh]
    ---------------------

    Doubly Occupied:                                                      

       1Ap   -88.969856     2Ap   -19.093424     1App  -10.204949  
       3Ap   -10.204921     4Ap    -8.021259     5Ap    -5.984937  
       2App   -5.984762     6Ap    -5.979035     7Ap    -1.003739  
       8Ap    -0.789445     3App   -0.719393     9Ap    -0.597298  
      10Ap    -0.466694    11Ap    -0.457522     4App   -0.453819  
       5App   -0.423232    12Ap    -0.396506     6App   -0.389345  
      13Ap    -0.349893     7App   -0.263390    14Ap    -0.223283  

    Virtual:                                                              

      15Ap     0.047728     8App    0.049178    16Ap     0.068636  
      17Ap     0.108611    18Ap     0.114127    19Ap     0.136001  
       9App    0.137694    10App    0.158658    11App    0.169355  
      20Ap     0.294833    12App    0.316168    21Ap     0.329923  
      22Ap     0.346640    23Ap     0.359585    13App    0.411660  
      24Ap     0.432823    14App    0.460240    25Ap     0.461171  
      15App    0.488834    16App    0.494757    26Ap     0.506292  
      27Ap     0.523908    17App    0.580373    28Ap     0.603195  
      18App    0.612536    29Ap     0.613331    30Ap     0.626047  
      19App    0.645235    31Ap     0.719214    20App    0.729571  
      32Ap     0.758591    21App    0.763816    33Ap     0.773735  
      34Ap     0.827257    22App    0.837827    23App    0.897226  
      35Ap     0.957087    24App    0.986218    36Ap     0.987261  
      37Ap     1.003678    25App    1.041712    38Ap     1.081133  
      26App    1.139421    39Ap     1.141235    27App    1.181853  
      40Ap     1.240125    28App    1.247650    41Ap     1.255678  
      29App    1.279614    42Ap     1.280995    43Ap     1.303659  
      30App    1.337976    31App    1.363425    44Ap     1.370796  
      45Ap     1.412990    32App    1.451304    46Ap     1.499605  
      33App    1.532134    34App    1.593752    47Ap     1.637293  
      48Ap     1.684663    35App    1.719575    49Ap     1.758569  
      50Ap     1.796408    36App    1.812587    51Ap     1.859621  
      37App    1.870801    38App    1.900499    52Ap     1.951124  
      39App    1.971010    53Ap     2.025604    40App    2.027159  
      54Ap     2.106876    55Ap     2.131492    41App    2.319345  
      56Ap     2.320896    57Ap     2.411400    42App    2.428261  
      58Ap     2.551159    43App    2.598437    59Ap     2.770435  
      60Ap     2.891018    44App    2.926020    61Ap     2.926425  
      45App    2.966863    62Ap     2.996720    46App    3.004078  
      63Ap     3.045400    47App    3.121623    64Ap     3.173324  
      48App    3.199322    49App    3.234912    65Ap     3.308148  
      66Ap     3.335967    67Ap     3.388874    50App    3.408003  
      51App    3.451098    68Ap     3.529557    69Ap     3.564696  
      52App    3.603693    53App    3.653690    54App    3.656725  
      70Ap     3.670583    71Ap     3.772605    55App    3.822089  
      72Ap     4.072556    73Ap     4.096300    56App    4.133809  
      57App    4.173067    74Ap     4.222832    58App    4.259122  
      75Ap     4.318760    59App    4.330802    60App    4.362889  
      76Ap     4.370781    77Ap     4.417029    61App    4.492877  
      62App    4.950419    78Ap     4.955707    63App    5.095434  
      79Ap     5.104341    80Ap     5.166725    81Ap     5.189447  
      82Ap     5.193957    64App    5.194974    65App    5.205482  
      66App    5.243600    83Ap     5.372358    67App    5.382899  
      84Ap     5.420879    85Ap     6.823363    68App    6.835577  
      86Ap     7.161299    69App    7.197981    87Ap     7.361735  

    Final Occupation by Irrep:
             Ap   App 
    DOCC [    14,    7 ]

  @DF-RKS Final Energy:  -553.21425377487037

   => Energetics <=

    Nuclear Repulsion Energy =            184.4183844175914544
    One-Electron Energy =               -1125.9459921745058182
    Two-Electron Energy =                 426.6186735587921248
    DFT Exchange-Correlation Energy =     -38.3053195767481469
    Empirical Dispersion Energy =           0.0000000000000000
    VV10 Nonlocal Energy =                  0.0000000000000000
    Total Energy =                       -553.2142537748703717

Computation Completed


Properties will be evaluated at   0.000000,   0.000000,   0.000000 [a0]

Properties computed using the SCF density matrix

  Nuclear Dipole Moment: [e a0]
     X:     1.9289      Y:     5.9826      Z:     0.0000

  Electronic Dipole Moment: [e a0]
     X:    -2.0537      Y:    -4.5369      Z:     0.0000

  Dipole Moment: [e a0]
     X:    -0.1248      Y:     1.4457      Z:     0.0000     Total:     1.4511

  Dipole Moment: [D]
     X:    -0.3171      Y:     3.6747      Z:     0.0000     Total:     3.6883


*** tstop() called on n084 at Tue Nov 16 16:02:37 2021
Module time:
	user time   =      75.97 seconds =       1.27 minutes
	system time =       1.08 seconds =       0.02 minutes
	total time  =         20 seconds =       0.33 minutes
Total time:
	user time   =      75.97 seconds =       1.27 minutes
	system time =       1.08 seconds =       0.02 minutes
	total time  =         20 seconds =       0.33 minutes
Grab this energy -553.2142537748704
    Psi4 stopped on: Tuesday, 16 November 2021 04:02PM
    Psi4 wall time for execution: 0:00:19.80

*** Psi4 exiting successfully. Buy a developer a beer!
