
    -----------------------------------------------------------------------
          Psi4: An Open-Source Ab Initio Electronic Structure Package
                               Psi4 1.4a2.dev629 

                         Git: Rev {master} 2938fc2 dirty


    D. G. A. Smith, L. A. Burns, A. C. Simmonett, R. M. Parrish,
    M. C. Schieber, R. Galvelis, P. Kraus, H. Kruse, R. Di Remigio,
    A. Alenaizan, A. M. James, S. Lehtola, J. P. Misiewicz, M. Scheurer,
    R. A. Shaw, J. B. Schriber, Y. Xie, Z. L. Glick, D. A. Sirianni,
    J. S. O'Brien, J. M. Waldrop, A. Kumar, E. G. Hohenstein,
    B. P. Pritchard, B. R. Brooks, H. F. Schaefer III, A. Yu. Sokolov,
    K. Patkowski, A. E. DePrince III, U. Bozkaya, R. A. King,
    F. A. Evangelista, J. M. Turney, T. D. Crawford, C. D. Sherrill,
    J. Chem. Phys. 152(18) 184108 (2020). https://doi.org/10.1063/5.0006002

                            Additional Code Authors
    E. T. Seidl, C. L. Janssen, E. F. Valeev, M. L. Leininger,
    J. F. Gonthier, R. M. Richard, H. R. McAlexander, M. Saitow, X. Wang,
    P. Verma, and M. H. Lechner

             Previous Authors, Complete List of Code Contributors,
                       and Citations for Specific Modules
    https://github.com/psi4/psi4/blob/master/codemeta.json
    https://github.com/psi4/psi4/graphs/contributors
    http://psicode.org/psi4manual/master/introduction.html#citing-psifour

    -----------------------------------------------------------------------


    Psi4 started on: Tuesday, 16 November 2021 04:17PM

    Process ID: 22578
    Host:       n092
    PSIDATADIR: /opt/psi/4/master/share/psi4
    Memory:     500.0 MiB
    Threads:    4
    
  ==> Input File <==

--------------------------------------------------------------------------
import os
memory 14 GB 
 
molecule {
 S   -0.7974849211   -0.2961419997   -0.0053165400
 O    0.6988069895   -2.6752324236    0.0020942233
 C    0.4279102276    1.6574360757    2.5214195392
 C    0.4273990757    1.6565629746   -2.5221705187
 H   -0.1250008773    0.7750835225    4.2971960758
 H   -0.4015003492    3.5395163930    2.3830923522
 H    2.4833677614    1.7305002501    2.3830141589
 H   -0.1268483861    0.7745697788   -4.2955017963
 H    2.4837014800    1.7303637067   -2.3823874018
 H   -0.4005043206    3.5402677419   -2.3814400926
units bohr
}

basis {

assign 6-31g_2dfp_

[ 6-31g_2dfp_ ]

spherical

!----------------------------------------------------------------------
! Basis Set Exchange
! Version v0.8.13
! https://www.basissetexchange.org
!----------------------------------------------------------------------
!   Basis set: 6-31G(2df,p)
! Description: 6-31G(2df,p)
!        Role: orbital
!     Version: 0  (Data from the original Basis Set Exchange)
!----------------------------------------------------------------------


****
H     0
S    3   1.00
     18.7311370              0.03349460
      2.8253937              0.23472695
      0.6401217              0.81375733
S    1   1.00
      0.1612778              1.00000000
P    1   1.00
      1.5000000              1.0000000
P    1   1.00
      0.3750000              1.0000000
****
B     0
S    6   1.00
   2068.8823000              0.0018663
    310.6495700              0.0142515
     70.6830330              0.0695516
     19.8610800              0.2325729
      6.2993048              0.4670787
      2.1270270              0.3634314
SP   3   1.00
      4.7279710             -0.1303938              0.0745976
      1.1903377             -0.1307889              0.3078467
      0.3594117              1.1309444              0.7434568
SP   1   1.00
      0.1267512              1.0000000              1.0000000
D    1   1.00
      0.8020000              1.0000000
D    1   1.00
      0.2005000              1.0000000
F    1   1.00
      0.5000000              1.0000000
****
C     0
S    6   1.00
   3047.5249000              0.0018347
    457.3695100              0.0140373
    103.9486900              0.0688426
     29.2101550              0.2321844
      9.2866630              0.4679413
      3.1639270              0.3623120
SP   3   1.00
      7.8682724             -0.1193324              0.0689991
      1.8812885             -0.1608542              0.3164240
      0.5442493              1.1434564              0.7443083
SP   1   1.00
      0.1687144              1.0000000              1.0000000
D    1   1.00
      1.2520000              1.0000000
D    1   1.00
      0.3130000              1.0000000
F    1   1.00
      0.8000000              1.0000000
****
N     0
S    6   1.00
   4173.5110000              0.0018348
    627.4579000              0.0139950
    142.9021000              0.0685870
     40.2343300              0.2322410
     12.8202100              0.4690700
      4.3904370              0.3604550
SP   3   1.00
     11.6263580             -0.1149610              0.0675800
      2.7162800             -0.1691180              0.3239070
      0.7722180              1.1458520              0.7408950
SP   1   1.00
      0.2120313              1.0000000              1.0000000
D    1   1.00
      1.8260000              1.0000000
D    1   1.00
      0.4565000              1.0000000
F    1   1.00
      1.0000000              1.0000000
****
O     0
S    6   1.00
   5484.6717000              0.0018311
    825.2349500              0.0139501
    188.0469600              0.0684451
     52.9645000              0.2327143
     16.8975700              0.4701930
      5.7996353              0.3585209
SP   3   1.00
     15.5396160             -0.1107775              0.0708743
      3.5999336             -0.1480263              0.3397528
      1.0137618              1.1307670              0.7271586
SP   1   1.00
      0.2700058              1.0000000              1.0000000
D    1   1.00
      2.5840000              1.0000000
D    1   1.00
      0.6460000              1.0000000
F    1   1.00
      1.4000000              1.0000000
****
F     0
S    6   1.00
   7001.7130900              0.0018196169
   1051.3660900              0.0139160796
    239.2856900              0.0684053245
     67.3974453              0.233185760
     21.5199573              0.471267439
      7.40310130             0.356618546
SP   3   1.00
     20.8479528             -0.108506975            0.0716287243
      4.80830834            -0.146451658            0.3459121030
      1.34406986             1.128688580            0.7224699570
SP   1   1.00
      0.358151393            1.0000000              1.0000000
D    1   1.00
      3.5000000              1.0000000
D    1   1.00
      0.8750000              1.0000000
F    1   1.00
      1.8500000              1.0000000
****
Al     0
S    6   1.00
  13983.1000000              0.00194267
   2098.7500000              0.0148599
    477.7050000              0.0728494
    134.3600000              0.2468300
     42.8709000              0.4872580
     14.5189000              0.3234960
SP   6   1.00
    239.6680000             -0.00292619             0.00460285
     57.4419000             -0.0374080              0.0331990
     18.2859000             -0.1144870              0.1362820
      6.5991400              0.1156350              0.3304760
      2.4904900              0.6125950              0.4491460
      0.9445400              0.3937990              0.2657040
SP   3   1.00
      1.2779000             -0.2276060             -0.0175130
      0.3975900              0.00144583             0.2445330
      0.1600950              1.0927900              0.8049340
SP   1   1.00
      0.0556577              1.0000000              1.0000000
D    1   1.00
      0.6500000              1.0000000
D    1   1.00
      0.1625000              1.0000000
F    1   1.00
      0.2500000              1.0000000
****
Si     0
S    6   1.00
  16115.9000000              0.00195948
   2425.5800000              0.01492880
    553.8670000              0.07284780
    156.3400000              0.24613000
     50.0683000              0.48591400
     17.0178000              0.32500200
SP   6   1.00
    292.7180000             -0.00278094             0.00443826
     69.8731000             -0.03571460             0.03266790
     22.3363000             -0.11498500             0.13472100
      8.1503900              0.09356340             0.32867800
      3.1345800              0.60301700             0.44964000
      1.2254300              0.41895900             0.26137200
SP   3   1.00
      1.7273800             -0.24463000            -0.01779510
      0.5729220              0.00431572             0.25353900
      0.2221920              1.09818000             0.80066900
SP   1   1.00
      0.0778369              1.00000000             1.00000000
D    1   1.00
      0.9000000              1.0000000
D    1   1.00
      0.2250000              1.0000000
F    1   1.00
      0.3200000              1.0000000
****
P     0
S    6   1.00
  19413.3000000              0.0018516
   2909.4200000              0.0142062
    661.3640000              0.0699995
    185.7590000              0.2400790
     59.1943000              0.4847620
     20.0310000              0.3352000
SP   6   1.00
    339.4780000             -0.00278217             0.00456462
     81.0101000             -0.0360499              0.03369360
     25.8780000             -0.1166310              0.13975500
      9.4522100              0.0968328              0.33936200
      3.6656600              0.6144180              0.45092100
      1.4674600              0.4037980              0.23858600
SP   3   1.00
      2.1562300             -0.2529230             -0.01776530
      0.7489970              0.0328517              0.27405800
      0.2831450              1.0812500              0.78542100
SP   1   1.00
      0.0998317              1.0000000              1.00000000
D    1   1.00
      1.1000000              1.0000000
D    1   1.00
      0.2750000              1.0000000
F    1   1.00
      0.4500000              1.0000000
****
S     0
S    6   1.00
  21917.1000000              0.0018690
   3301.4900000              0.0142300
    754.1460000              0.0696960
    212.7110000              0.2384870
     67.9896000              0.4833070
     23.0515000              0.3380740
SP   6   1.00
    423.7350000             -0.0023767              0.0040610
    100.7100000             -0.0316930              0.0306810
     32.1599000             -0.1133170              0.1304520
     11.8079000              0.0560900              0.3272050
      4.6311000              0.5922550              0.4528510
      1.8702500              0.4550060              0.2560420
SP   3   1.00
      2.6158400             -0.2503740             -0.0145110
      0.9221670              0.0669570              0.3102630
      0.3412870              1.0545100              0.7544830
SP   1   1.00
      0.1171670              1.0000000              1.0000000
D    1   1.00
      1.3000000              1.0000000
D    1   1.00
      0.3250000              1.0000000
F    1   1.00
      0.5500000              1.0000000
****
Cl     0
S    6   1.00
  25180.1000000              0.0018330
   3780.3500000              0.0140340
    860.4740000              0.0690970
    242.1450000              0.2374520
     77.3349000              0.4830340
     26.2470000              0.3398560
SP   6   1.00
    491.7650000             -0.0022974              0.0039894
    116.9840000             -0.0307140              0.0303180
     37.4153000             -0.1125280              0.1298800
     13.7834000              0.0450160              0.3279510
      5.4521500              0.5893530              0.4535270
      2.2258800              0.4652060              0.2521540
SP   3   1.00
      3.1864900             -0.2518300             -0.0142990
      1.1442700              0.0615890              0.3235720
      0.4203770              1.0601800              0.7435070
SP   1   1.00
      0.1426570              1.0000000              1.0000000
D    1   1.00
      1.5000000              1.0000000
D    1   1.00
      0.3750000              1.0000000
F    1   1.00
      0.7000000              1.0000000
****
}


set {
reference rhf                          
freeze_core true
e_convergence 10                       
d_convergence 10                      
dft_spherical_points 1202
dft_radial_points 99
}

e = energy('b3lyp')

print_out('Grab this energy {0}'.format(e))
--------------------------------------------------------------------------

  Memory set to  13.039 GiB by Python driver.

Scratch directory: /tmp/

*** tstart() called on n092
*** at Tue Nov 16 16:17:47 2021

   => Loading Basis Set <=

    Name: ANONYMOUS40FA670A
    Role: ORBITAL
    Keyword: BASIS
    atoms 1    entry S          line   216 inputblock 6-31g_2dfp_ 
    atoms 2    entry O          line    90 inputblock 6-31g_2dfp_ 
    atoms 3-4  entry C          line    48 inputblock 6-31g_2dfp_ 
    atoms 5-10 entry H          line    15 inputblock 6-31g_2dfp_ 


         ---------------------------------------------------------
                                   SCF
               by Justin Turney, Rob Parrish, Andy Simmonett
                          and Daniel G. A. Smith
                              RKS Reference
                        4 Threads,  13351 MiB Core
         ---------------------------------------------------------

  ==> Geometry <==

    Molecular point group: c1
    Full point group: C1

    Geometry (in Bohr), charge = 0, multiplicity = 1:

       Center              X                  Y                   Z               Mass       
    ------------   -----------------  -----------------  -----------------  -----------------
         S           -0.796044940663    -0.292226157016    -0.003502873797    31.972071174400
         O            0.700246969937    -2.671316580916     0.003907889503    15.994914619570
         C            0.429350208037     1.661351918384     2.523233205403    12.000000000000
         C            0.428839056137     1.660478817284    -2.520356852497    12.000000000000
         H           -0.123560896863     0.778999365184     4.299009742003     1.007825032230
         H           -0.400060368763     3.543432235684     2.384906018403     1.007825032230
         H            2.484807741837     1.734416092784     2.384827825103     1.007825032230
         H           -0.125408405663     0.778485621484    -4.293688130097     1.007825032230
         H            2.485141460437     1.734279549384    -2.380573735597     1.007825032230
         H           -0.399064340163     3.544183584584    -2.379626426397     1.007825032230

  Running in c1 symmetry.

  Rotational constants: A =      0.23330  B =      0.23065  C =      0.14052 [cm^-1]
  Rotational constants: A =   6994.09500  B =   6914.78532  C =   4212.82525 [MHz]
  Nuclear repulsion =  184.439802357132436

  Charge       = 0
  Multiplicity = 1
  Electrons    = 42
  Nalpha       = 21
  Nbeta        = 21

  ==> Algorithm <==

  SCF Algorithm Type is DF.
  DIIS enabled.
  MOM disabled.
  Fractional occupation disabled.
  Guess Type is SAD.
  Energy threshold   = 1.00e-10
  Density threshold  = 1.00e-10
  Integral threshold = 0.00e+00

  ==> Primary Basis <==

  Basis Set: ANONYMOUS40FA670A
    Blend: 6-31G_2DFP_
    Number of shells: 58
    Number of basis function: 156
    Number of Cartesian functions: 176
    Spherical Harmonics?: true
    Max angular momentum: 3

  ==> DFT Potential <==

   => Composite Functional: B3LYP <= 

    B3LYP Hyb-GGA Exchange-Correlation Functional

    P. J. Stephens, F. J. Devlin, C. F. Chabalowski, and M. J. Frisch, J. Phys. Chem. 98, 11623 (1994)

    Deriv               =              1
    GGA                 =           TRUE
    Meta                =          FALSE

    Exchange Hybrid     =           TRUE
    MP2 Hybrid          =          FALSE

   => Exchange Functionals <=

    0.0800   Slater exchange
    0.7200         Becke 88

   => Exact (HF) Exchange <=

    0.2000               HF 

   => Correlation Functionals <=

    0.1900   Vosko, Wilk & Nusair (VWN5_RPA)
    0.8100   Lee, Yang & Parr

   => Molecular Quadrature <=

    Radial Scheme          =       TREUTLER
    Pruning Scheme         =           NONE
    Nuclear Scheme         =       TREUTLER

    BS radius alpha        =              1
    Pruning alpha          =              1
    Radial Points          =             99
    Spherical Points       =           1202
    Total Points           =        1116176
    Total Blocks           =           7514
    Max Points             =            256
    Max Functions          =            155
    Weights Tolerance      =       1.00E-15

   => Loading Basis Set <=

    Name: (ANONYMOUS40FA670A AUX)
    Role: JKFIT
    Keyword: DF_BASIS_SCF
    atoms 1    entry S          line   903 file /opt/psi/4/master/share/psi4/basis/def2-universal-jkfit.gbs 
    atoms 2    entry O          line   318 file /opt/psi/4/master/share/psi4/basis/def2-universal-jkfit.gbs 
    atoms 3-4  entry C          line   198 file /opt/psi/4/master/share/psi4/basis/def2-universal-jkfit.gbs 
    atoms 5-10 entry H          line    18 file /opt/psi/4/master/share/psi4/basis/def2-universal-jkfit.gbs 

  ==> Integral Setup <==

  DFHelper Memory: AOs need 0.090 GiB; user supplied 5.941 GiB. Using in-core AOs.

  ==> MemDFJK: Density-Fitted J/K Matrices <==

    J tasked:                   Yes
    K tasked:                   Yes
    wK tasked:                   No
    OpenMP threads:               4
    Memory [MiB]:              6083
    Algorithm:                 Core
    Schwarz Cutoff:           1E-12
    Mask sparsity (%):       1.3396
    Fitting Condition:        1E-10

   => Auxiliary Basis Set <=

  Basis Set: (ANONYMOUS40FA670A AUX)
    Blend: DEF2-UNIVERSAL-JKFIT
    Number of shells: 149
    Number of basis function: 463
    Number of Cartesian functions: 546
    Spherical Harmonics?: true
    Max angular momentum: 4

  Cached 100.0% of DFT collocation blocks in 3.838 [GiB].

  Minimum eigenvalue in the overlap matrix is 2.9802943854E-03.
  Reciprocal condition number of the overlap matrix is 5.3432204329E-04.
    Using symmetric orthogonalization.

  ==> Pre-Iterations <==

  SCF Guess: Superposition of Atomic Densities via on-the-fly atomic UHF (no occupation information).

   -------------------------
    Irrep   Nso     Nmo    
   -------------------------
     A        156     156 
   -------------------------
    Total     156     156
   -------------------------

  ==> Iterations <==

                           Total Energy        Delta E     RMS |[F,P]|

   @DF-RKS iter SAD:  -552.83501844084117   -5.52835e+02   0.00000e+00 
   @DF-RKS iter   1:  -552.84674197417098   -1.17235e-02   5.76847e-03 DIIS
   @DF-RKS iter   2:  -552.26245632910172    5.84286e-01   9.39682e-03 DIIS
   @DF-RKS iter   3:  -553.14315343277042   -8.80697e-01   2.50062e-03 DIIS
   @DF-RKS iter   4:  -553.21205177826744   -6.88983e-02   4.30613e-04 DIIS
   @DF-RKS iter   5:  -553.21394788176656   -1.89610e-03   1.40141e-04 DIIS
   @DF-RKS iter   6:  -553.21420843317719   -2.60551e-04   2.40376e-05 DIIS
   @DF-RKS iter   7:  -553.21421589904173   -7.46586e-06   6.20456e-06 DIIS
   @DF-RKS iter   8:  -553.21421635025672   -4.51215e-07   1.06466e-06 DIIS
   @DF-RKS iter   9:  -553.21421636449509   -1.42384e-08   3.13227e-07 DIIS
   @DF-RKS iter  10:  -553.21421636542470   -9.29617e-10   1.52165e-07 DIIS
   @DF-RKS iter  11:  -553.21421636572131   -2.96609e-10   1.71541e-08 DIIS
   @DF-RKS iter  12:  -553.21421636572609   -4.77485e-12   3.63833e-09 DIIS
   @DF-RKS iter  13:  -553.21421636572643   -3.41061e-13   5.74705e-10 DIIS
   @DF-RKS iter  14:  -553.21421636572586    5.68434e-13   2.20765e-10 DIIS
   @DF-RKS iter  15:  -553.21421636572518    6.82121e-13   5.11881e-11 DIIS
  Energy and wave function converged.


  ==> Post-Iterations <==

    Orbital Energies [Eh]
    ---------------------

    Doubly Occupied:                                                      

       1A    -88.969877     2A    -19.093693     3A    -10.204895  
       4A    -10.204737     5A     -8.021278     6A     -5.984950  
       7A     -5.984773     8A     -5.979070     9A     -1.003473  
      10A     -0.789950    11A     -0.719217    12A     -0.597350  
      13A     -0.467130    14A     -0.457934    15A     -0.453668  
      16A     -0.423170    17A     -0.396769    18A     -0.388856  
      19A     -0.349973    20A     -0.263390    21A     -0.223556  

    Virtual:                                                              

      22A      0.047612    23A      0.048892    24A      0.068533  
      25A      0.108853    26A      0.114266    27A      0.135684  
      28A      0.138026    29A      0.159543    30A      0.169424  
      31A      0.294579    32A      0.316506    33A      0.329775  
      34A      0.346200    35A      0.358908    36A      0.411387  
      37A      0.432376    38A      0.459605    39A      0.460722  
      40A      0.489690    41A      0.495750    42A      0.506807  
      43A      0.523654    44A      0.580614    45A      0.602911  
      46A      0.613156    47A      0.614006    48A      0.626721  
      49A      0.644828    50A      0.718512    51A      0.730291  
      52A      0.758075    53A      0.763703    54A      0.772851  
      55A      0.827021    56A      0.839790    57A      0.899445  
      58A      0.958131    59A      0.986565    60A      0.987503  
      61A      1.003475    62A      1.042347    63A      1.080960  
      64A      1.140307    65A      1.140950    66A      1.181327  
      67A      1.239420    68A      1.248724    69A      1.255051  
      70A      1.279848    71A      1.280937    72A      1.303341  
      73A      1.340239    74A      1.364074    75A      1.369659  
      76A      1.413246    77A      1.453056    78A      1.499152  
      79A      1.533923    80A      1.594291    81A      1.635632  
      82A      1.686247    83A      1.720402    84A      1.757508  
      85A      1.795928    86A      1.813958    87A      1.859205  
      88A      1.872971    89A      1.902964    90A      1.951061  
      91A      1.971278    92A      2.024666    93A      2.027298  
      94A      2.106373    95A      2.131218    96A      2.318896  
      97A      2.321203    98A      2.410726    99A      2.428318  
     100A      2.551482   101A      2.598415   102A      2.769991  
     103A      2.890783   104A      2.924444   105A      2.926956  
     106A      2.967359   107A      2.996366   108A      3.005655  
     109A      3.045175   110A      3.124336   111A      3.173872  
     112A      3.199767   113A      3.235529   114A      3.308999  
     115A      3.334758   116A      3.388754   117A      3.409624  
     118A      3.451780   119A      3.528808   120A      3.567136  
     121A      3.604573   122A      3.654749   123A      3.656048  
     124A      3.674230   125A      3.773338   126A      3.823187  
     127A      4.071863   128A      4.095507   129A      4.134649  
     130A      4.174476   131A      4.221187   132A      4.260711  
     133A      4.318248   134A      4.333280   135A      4.363803  
     136A      4.370000   137A      4.419002   138A      4.498905  
     139A      4.952695   140A      4.957646   141A      5.095363  
     142A      5.104056   143A      5.169497   144A      5.186879  
     145A      5.194483   146A      5.196182   147A      5.206843  
     148A      5.242637   149A      5.372398   150A      5.382542  
     151A      5.420105   152A      6.822986   153A      6.835165  
     154A      7.160895   155A      7.196900   156A      7.360502  

    Final Occupation by Irrep:
              A 
    DOCC [    21 ]

  @DF-RKS Final Energy:  -553.21421636572518

   => Energetics <=

    Nuclear Repulsion Energy =            184.4398023571324359
    One-Electron Energy =               -1125.9864284939358186
    Two-Electron Energy =                 426.6381823569105336
    DFT Exchange-Correlation Energy =     -38.3057725858322513
    Empirical Dispersion Energy =           0.0000000000000000
    VV10 Nonlocal Energy =                  0.0000000000000000
    Total Energy =                       -553.2142163657251785

Computation Completed


Properties will be evaluated at   0.000000,   0.000000,   0.000000 [a0]

Properties computed using the SCF density matrix

  Nuclear Dipole Moment: [e a0]
     X:     1.9362      Y:     5.9986      Z:     0.0073

  Electronic Dipole Moment: [e a0]
     X:    -2.0621      Y:    -4.5504      Z:    -0.0121

  Dipole Moment: [e a0]
     X:    -0.1259      Y:     1.4483      Z:    -0.0048     Total:     1.4537

  Dipole Moment: [D]
     X:    -0.3200      Y:     3.6811      Z:    -0.0122     Total:     3.6950


*** tstop() called on n092 at Tue Nov 16 16:18:07 2021
Module time:
	user time   =      75.92 seconds =       1.27 minutes
	system time =       1.14 seconds =       0.02 minutes
	total time  =         20 seconds =       0.33 minutes
Total time:
	user time   =      75.92 seconds =       1.27 minutes
	system time =       1.14 seconds =       0.02 minutes
	total time  =         20 seconds =       0.33 minutes
Grab this energy -553.2142163657252
    Psi4 stopped on: Tuesday, 16 November 2021 04:18PM
    Psi4 wall time for execution: 0:00:19.79

*** Psi4 exiting successfully. Buy a developer a beer!
