
    -----------------------------------------------------------------------
          Psi4: An Open-Source Ab Initio Electronic Structure Package
                               Psi4 1.4a2.dev629 

                         Git: Rev {master} 2938fc2 dirty


    D. G. A. Smith, L. A. Burns, A. C. Simmonett, R. M. Parrish,
    M. C. Schieber, R. Galvelis, P. Kraus, H. Kruse, R. Di Remigio,
    A. Alenaizan, A. M. James, S. Lehtola, J. P. Misiewicz, M. Scheurer,
    R. A. Shaw, J. B. Schriber, Y. Xie, Z. L. Glick, D. A. Sirianni,
    J. S. O'Brien, J. M. Waldrop, A. Kumar, E. G. Hohenstein,
    B. P. Pritchard, B. R. Brooks, H. F. Schaefer III, A. Yu. Sokolov,
    K. Patkowski, A. E. DePrince III, U. Bozkaya, R. A. King,
    F. A. Evangelista, J. M. Turney, T. D. Crawford, C. D. Sherrill,
    J. Chem. Phys. 152(18) 184108 (2020). https://doi.org/10.1063/5.0006002

                            Additional Code Authors
    E. T. Seidl, C. L. Janssen, E. F. Valeev, M. L. Leininger,
    J. F. Gonthier, R. M. Richard, H. R. McAlexander, M. Saitow, X. Wang,
    P. Verma, and M. H. Lechner

             Previous Authors, Complete List of Code Contributors,
                       and Citations for Specific Modules
    https://github.com/psi4/psi4/blob/master/codemeta.json
    https://github.com/psi4/psi4/graphs/contributors
    http://psicode.org/psi4manual/master/introduction.html#citing-psifour

    -----------------------------------------------------------------------


    Psi4 started on: Tuesday, 16 November 2021 04:20PM

    Process ID: 23748
    Host:       n067
    PSIDATADIR: /opt/psi/4/master/share/psi4
    Memory:     500.0 MiB
    Threads:    4
    
  ==> Input File <==

--------------------------------------------------------------------------
import os
memory 14 GB 
 
molecule {
 S   -0.7979864424   -0.2917155756   -0.0000000000
 O    0.7000047261   -2.6683077616    0.0000000000
 C    0.4284228208    1.6562135473    2.5325071671
 C    0.4284228208    1.6562135473   -2.5325071671
 H   -0.1229966024    0.7682339267    4.3064726508
 H   -0.4017664794    3.5439865687    2.3995318732
 H    2.4802544592    1.7280406358    2.3934087350
 H   -0.1229966024    0.7682339267   -4.3064726508
 H    2.4802544592    1.7280406358   -2.3934087350
 H   -0.4017664794    3.5439865687   -2.3995318732
units bohr
}

basis {

assign 6-31g_2dfp_

[ 6-31g_2dfp_ ]

spherical

!----------------------------------------------------------------------
! Basis Set Exchange
! Version v0.8.13
! https://www.basissetexchange.org
!----------------------------------------------------------------------
!   Basis set: 6-31G(2df,p)
! Description: 6-31G(2df,p)
!        Role: orbital
!     Version: 0  (Data from the original Basis Set Exchange)
!----------------------------------------------------------------------


****
H     0
S    3   1.00
     18.7311370              0.03349460
      2.8253937              0.23472695
      0.6401217              0.81375733
S    1   1.00
      0.1612778              1.00000000
P    1   1.00
      1.5000000              1.0000000
P    1   1.00
      0.3750000              1.0000000
****
B     0
S    6   1.00
   2068.8823000              0.0018663
    310.6495700              0.0142515
     70.6830330              0.0695516
     19.8610800              0.2325729
      6.2993048              0.4670787
      2.1270270              0.3634314
SP   3   1.00
      4.7279710             -0.1303938              0.0745976
      1.1903377             -0.1307889              0.3078467
      0.3594117              1.1309444              0.7434568
SP   1   1.00
      0.1267512              1.0000000              1.0000000
D    1   1.00
      0.8020000              1.0000000
D    1   1.00
      0.2005000              1.0000000
F    1   1.00
      0.5000000              1.0000000
****
C     0
S    6   1.00
   3047.5249000              0.0018347
    457.3695100              0.0140373
    103.9486900              0.0688426
     29.2101550              0.2321844
      9.2866630              0.4679413
      3.1639270              0.3623120
SP   3   1.00
      7.8682724             -0.1193324              0.0689991
      1.8812885             -0.1608542              0.3164240
      0.5442493              1.1434564              0.7443083
SP   1   1.00
      0.1687144              1.0000000              1.0000000
D    1   1.00
      1.2520000              1.0000000
D    1   1.00
      0.3130000              1.0000000
F    1   1.00
      0.8000000              1.0000000
****
N     0
S    6   1.00
   4173.5110000              0.0018348
    627.4579000              0.0139950
    142.9021000              0.0685870
     40.2343300              0.2322410
     12.8202100              0.4690700
      4.3904370              0.3604550
SP   3   1.00
     11.6263580             -0.1149610              0.0675800
      2.7162800             -0.1691180              0.3239070
      0.7722180              1.1458520              0.7408950
SP   1   1.00
      0.2120313              1.0000000              1.0000000
D    1   1.00
      1.8260000              1.0000000
D    1   1.00
      0.4565000              1.0000000
F    1   1.00
      1.0000000              1.0000000
****
O     0
S    6   1.00
   5484.6717000              0.0018311
    825.2349500              0.0139501
    188.0469600              0.0684451
     52.9645000              0.2327143
     16.8975700              0.4701930
      5.7996353              0.3585209
SP   3   1.00
     15.5396160             -0.1107775              0.0708743
      3.5999336             -0.1480263              0.3397528
      1.0137618              1.1307670              0.7271586
SP   1   1.00
      0.2700058              1.0000000              1.0000000
D    1   1.00
      2.5840000              1.0000000
D    1   1.00
      0.6460000              1.0000000
F    1   1.00
      1.4000000              1.0000000
****
F     0
S    6   1.00
   7001.7130900              0.0018196169
   1051.3660900              0.0139160796
    239.2856900              0.0684053245
     67.3974453              0.233185760
     21.5199573              0.471267439
      7.40310130             0.356618546
SP   3   1.00
     20.8479528             -0.108506975            0.0716287243
      4.80830834            -0.146451658            0.3459121030
      1.34406986             1.128688580            0.7224699570
SP   1   1.00
      0.358151393            1.0000000              1.0000000
D    1   1.00
      3.5000000              1.0000000
D    1   1.00
      0.8750000              1.0000000
F    1   1.00
      1.8500000              1.0000000
****
Al     0
S    6   1.00
  13983.1000000              0.00194267
   2098.7500000              0.0148599
    477.7050000              0.0728494
    134.3600000              0.2468300
     42.8709000              0.4872580
     14.5189000              0.3234960
SP   6   1.00
    239.6680000             -0.00292619             0.00460285
     57.4419000             -0.0374080              0.0331990
     18.2859000             -0.1144870              0.1362820
      6.5991400              0.1156350              0.3304760
      2.4904900              0.6125950              0.4491460
      0.9445400              0.3937990              0.2657040
SP   3   1.00
      1.2779000             -0.2276060             -0.0175130
      0.3975900              0.00144583             0.2445330
      0.1600950              1.0927900              0.8049340
SP   1   1.00
      0.0556577              1.0000000              1.0000000
D    1   1.00
      0.6500000              1.0000000
D    1   1.00
      0.1625000              1.0000000
F    1   1.00
      0.2500000              1.0000000
****
Si     0
S    6   1.00
  16115.9000000              0.00195948
   2425.5800000              0.01492880
    553.8670000              0.07284780
    156.3400000              0.24613000
     50.0683000              0.48591400
     17.0178000              0.32500200
SP   6   1.00
    292.7180000             -0.00278094             0.00443826
     69.8731000             -0.03571460             0.03266790
     22.3363000             -0.11498500             0.13472100
      8.1503900              0.09356340             0.32867800
      3.1345800              0.60301700             0.44964000
      1.2254300              0.41895900             0.26137200
SP   3   1.00
      1.7273800             -0.24463000            -0.01779510
      0.5729220              0.00431572             0.25353900
      0.2221920              1.09818000             0.80066900
SP   1   1.00
      0.0778369              1.00000000             1.00000000
D    1   1.00
      0.9000000              1.0000000
D    1   1.00
      0.2250000              1.0000000
F    1   1.00
      0.3200000              1.0000000
****
P     0
S    6   1.00
  19413.3000000              0.0018516
   2909.4200000              0.0142062
    661.3640000              0.0699995
    185.7590000              0.2400790
     59.1943000              0.4847620
     20.0310000              0.3352000
SP   6   1.00
    339.4780000             -0.00278217             0.00456462
     81.0101000             -0.0360499              0.03369360
     25.8780000             -0.1166310              0.13975500
      9.4522100              0.0968328              0.33936200
      3.6656600              0.6144180              0.45092100
      1.4674600              0.4037980              0.23858600
SP   3   1.00
      2.1562300             -0.2529230             -0.01776530
      0.7489970              0.0328517              0.27405800
      0.2831450              1.0812500              0.78542100
SP   1   1.00
      0.0998317              1.0000000              1.00000000
D    1   1.00
      1.1000000              1.0000000
D    1   1.00
      0.2750000              1.0000000
F    1   1.00
      0.4500000              1.0000000
****
S     0
S    6   1.00
  21917.1000000              0.0018690
   3301.4900000              0.0142300
    754.1460000              0.0696960
    212.7110000              0.2384870
     67.9896000              0.4833070
     23.0515000              0.3380740
SP   6   1.00
    423.7350000             -0.0023767              0.0040610
    100.7100000             -0.0316930              0.0306810
     32.1599000             -0.1133170              0.1304520
     11.8079000              0.0560900              0.3272050
      4.6311000              0.5922550              0.4528510
      1.8702500              0.4550060              0.2560420
SP   3   1.00
      2.6158400             -0.2503740             -0.0145110
      0.9221670              0.0669570              0.3102630
      0.3412870              1.0545100              0.7544830
SP   1   1.00
      0.1171670              1.0000000              1.0000000
D    1   1.00
      1.3000000              1.0000000
D    1   1.00
      0.3250000              1.0000000
F    1   1.00
      0.5500000              1.0000000
****
Cl     0
S    6   1.00
  25180.1000000              0.0018330
   3780.3500000              0.0140340
    860.4740000              0.0690970
    242.1450000              0.2374520
     77.3349000              0.4830340
     26.2470000              0.3398560
SP   6   1.00
    491.7650000             -0.0022974              0.0039894
    116.9840000             -0.0307140              0.0303180
     37.4153000             -0.1125280              0.1298800
     13.7834000              0.0450160              0.3279510
      5.4521500              0.5893530              0.4535270
      2.2258800              0.4652060              0.2521540
SP   3   1.00
      3.1864900             -0.2518300             -0.0142990
      1.1442700              0.0615890              0.3235720
      0.4203770              1.0601800              0.7435070
SP   1   1.00
      0.1426570              1.0000000              1.0000000
D    1   1.00
      1.5000000              1.0000000
D    1   1.00
      0.3750000              1.0000000
F    1   1.00
      0.7000000              1.0000000
****
}


set {
reference rhf                          
freeze_core true
e_convergence 10                       
d_convergence 10                      
dft_spherical_points 1202
dft_radial_points 99
}

e = energy('b3lyp')

print_out('Grab this energy {0}'.format(e))
--------------------------------------------------------------------------

  Memory set to  13.039 GiB by Python driver.

Scratch directory: /tmp/

*** tstart() called on n067
*** at Tue Nov 16 16:20:32 2021

   => Loading Basis Set <=

    Name: ANONYMOUS6A85C6BF
    Role: ORBITAL
    Keyword: BASIS
    atoms 1    entry S          line   216 inputblock 6-31g_2dfp_ 
    atoms 2    entry O          line    90 inputblock 6-31g_2dfp_ 
    atoms 3-4  entry C          line    48 inputblock 6-31g_2dfp_ 
    atoms 5-10 entry H          line    15 inputblock 6-31g_2dfp_ 


         ---------------------------------------------------------
                                   SCF
               by Justin Turney, Rob Parrish, Andy Simmonett
                          and Daniel G. A. Smith
                              RKS Reference
                        4 Threads,  13351 MiB Core
         ---------------------------------------------------------

  ==> Geometry <==

    Molecular point group: cs
    Full point group: Cs

    Geometry (in Bohr), charge = 0, multiplicity = 1:

       Center              X                  Y                   Z               Mass       
    ------------   -----------------  -----------------  -----------------  -----------------
         S           -0.796793969747    -0.290665403005     0.000000000000    31.972071174400
         O            0.701197198753    -2.667257589005     0.000000000000    15.994914619570
         C            0.429615293453     1.657263719895     2.532507167100    12.000000000000
         C            0.429615293453     1.657263719895    -2.532507167100    12.000000000000
         H           -0.121804129747     0.769284099295     4.306472650800     1.007825032230
         H           -0.400574006747     3.545036741295     2.399531873200     1.007825032230
         H            2.481446931853     1.729090808395     2.393408735000     1.007825032230
         H           -0.121804129747     0.769284099295    -4.306472650800     1.007825032230
         H            2.481446931853     1.729090808395    -2.393408735000     1.007825032230
         H           -0.400574006747     3.545036741295    -2.399531873200     1.007825032230

  Running in cs symmetry.

  Rotational constants: A =      0.23170  B =      0.23125  C =      0.14019 [cm^-1]
  Rotational constants: A =   6946.19916  B =   6932.84610  C =   4202.73818 [MHz]
  Nuclear repulsion =  184.283689667405724

  Charge       = 0
  Multiplicity = 1
  Electrons    = 42
  Nalpha       = 21
  Nbeta        = 21

  ==> Algorithm <==

  SCF Algorithm Type is DF.
  DIIS enabled.
  MOM disabled.
  Fractional occupation disabled.
  Guess Type is SAD.
  Energy threshold   = 1.00e-10
  Density threshold  = 1.00e-10
  Integral threshold = 0.00e+00

  ==> Primary Basis <==

  Basis Set: ANONYMOUS6A85C6BF
    Blend: 6-31G_2DFP_
    Number of shells: 58
    Number of basis function: 156
    Number of Cartesian functions: 176
    Spherical Harmonics?: true
    Max angular momentum: 3

  ==> DFT Potential <==

   => Composite Functional: B3LYP <= 

    B3LYP Hyb-GGA Exchange-Correlation Functional

    P. J. Stephens, F. J. Devlin, C. F. Chabalowski, and M. J. Frisch, J. Phys. Chem. 98, 11623 (1994)

    Deriv               =              1
    GGA                 =           TRUE
    Meta                =          FALSE

    Exchange Hybrid     =           TRUE
    MP2 Hybrid          =          FALSE

   => Exchange Functionals <=

    0.0800   Slater exchange
    0.7200         Becke 88

   => Exact (HF) Exchange <=

    0.2000               HF 

   => Correlation Functionals <=

    0.1900   Vosko, Wilk & Nusair (VWN5_RPA)
    0.8100   Lee, Yang & Parr

   => Molecular Quadrature <=

    Radial Scheme          =       TREUTLER
    Pruning Scheme         =           NONE
    Nuclear Scheme         =       TREUTLER

    BS radius alpha        =              1
    Pruning alpha          =              1
    Radial Points          =             99
    Spherical Points       =           1202
    Total Points           =        1116290
    Total Blocks           =           7520
    Max Points             =            256
    Max Functions          =            155
    Weights Tolerance      =       1.00E-15

   => Loading Basis Set <=

    Name: (ANONYMOUS6A85C6BF AUX)
    Role: JKFIT
    Keyword: DF_BASIS_SCF
    atoms 1    entry S          line   903 file /opt/psi/4/master/share/psi4/basis/def2-universal-jkfit.gbs 
    atoms 2    entry O          line   318 file /opt/psi/4/master/share/psi4/basis/def2-universal-jkfit.gbs 
    atoms 3-4  entry C          line   198 file /opt/psi/4/master/share/psi4/basis/def2-universal-jkfit.gbs 
    atoms 5-10 entry H          line    18 file /opt/psi/4/master/share/psi4/basis/def2-universal-jkfit.gbs 

  ==> Integral Setup <==

  DFHelper Memory: AOs need 0.090 GiB; user supplied 5.945 GiB. Using in-core AOs.

  ==> MemDFJK: Density-Fitted J/K Matrices <==

    J tasked:                   Yes
    K tasked:                   Yes
    wK tasked:                   No
    OpenMP threads:               4
    Memory [MiB]:              6087
    Algorithm:                 Core
    Schwarz Cutoff:           1E-12
    Mask sparsity (%):       1.3560
    Fitting Condition:        1E-10

   => Auxiliary Basis Set <=

  Basis Set: (ANONYMOUS6A85C6BF AUX)
    Blend: DEF2-UNIVERSAL-JKFIT
    Number of shells: 149
    Number of basis function: 463
    Number of Cartesian functions: 546
    Spherical Harmonics?: true
    Max angular momentum: 4

  Cached 100.0% of DFT collocation blocks in 3.834 [GiB].

  Minimum eigenvalue in the overlap matrix is 2.8418212014E-03.
  Reciprocal condition number of the overlap matrix is 5.4061713899E-04.
    Using symmetric orthogonalization.

  ==> Pre-Iterations <==

  SCF Guess: Superposition of Atomic Densities via on-the-fly atomic UHF (no occupation information).

   -------------------------
    Irrep   Nso     Nmo    
   -------------------------
     A'        87      87 
     A"        69      69 
   -------------------------
    Total     156     156
   -------------------------

  ==> Iterations <==

                           Total Energy        Delta E     RMS |[F,P]|

   @DF-RKS iter SAD:  -552.82846479589466   -5.52828e+02   0.00000e+00 
   @DF-RKS iter   1:  -552.84679460271593   -1.83298e-02   8.10450e-03 DIIS
   @DF-RKS iter   2:  -552.25972429146157    5.87070e-01   1.32209e-02 DIIS
   @DF-RKS iter   3:  -553.14326211322907   -8.83538e-01   3.51146e-03 DIIS
   @DF-RKS iter   4:  -553.21212222251222   -6.88601e-02   6.07662e-04 DIIS
   @DF-RKS iter   5:  -553.21403676043633   -1.91454e-03   1.97511e-04 DIIS
   @DF-RKS iter   6:  -553.21429913017255   -2.62370e-04   3.39618e-05 DIIS
   @DF-RKS iter   7:  -553.21430669101198   -7.56084e-06   8.69637e-06 DIIS
   @DF-RKS iter   8:  -553.21430714080350   -4.49792e-07   1.45774e-06 DIIS
   @DF-RKS iter   9:  -553.21430715482916   -1.40257e-08   3.36465e-07 DIIS
   @DF-RKS iter  10:  -553.21430715551389   -6.84736e-10   4.51354e-08 DIIS
   @DF-RKS iter  11:  -553.21430715552924   -1.53477e-11   8.99716e-09 DIIS
   @DF-RKS iter  12:  -553.21430715553038   -1.13687e-12   1.98173e-09 DIIS
   @DF-RKS iter  13:  -553.21430715552970    6.82121e-13   5.77340e-10 DIIS
   @DF-RKS iter  14:  -553.21430715552992   -2.27374e-13   1.18607e-10 DIIS
   @DF-RKS iter  15:  -553.21430715552970    2.27374e-13   1.39810e-11 DIIS
  Energy and wave function converged.


  ==> Post-Iterations <==

    Orbital Energies [Eh]
    ---------------------

    Doubly Occupied:                                                      

       1Ap   -88.969985     2Ap   -19.093587     1App  -10.205015  
       3Ap   -10.204987     4Ap    -8.021351     5Ap    -5.985030  
       2App   -5.984849     6Ap    -5.979137     7Ap    -1.003657  
       8Ap    -0.788826     3App   -0.719054     9Ap    -0.597360  
      10Ap    -0.466665    11Ap    -0.457128     4App   -0.453335  
       5App   -0.423388    12Ap    -0.396442     6App   -0.389232  
      13Ap    -0.350130     7App   -0.263310    14Ap    -0.223380  

    Virtual:                                                              

      15Ap     0.047642     8App    0.048636    16Ap     0.068604  
      17Ap     0.107989    18Ap     0.114190    19Ap     0.135566  
       9App    0.137486    10App    0.158648    11App    0.169767  
      20Ap     0.294787    12App    0.315895    21Ap     0.329779  
      22Ap     0.346716    23Ap     0.359886    13App    0.411569  
      24Ap     0.432927    14App    0.460051    25Ap     0.461010  
      15App    0.488917    16App    0.494607    26Ap     0.506017  
      27Ap     0.523734    17App    0.580485    28Ap     0.603263  
      18App    0.612755    29Ap     0.613243    30Ap     0.626143  
      19App    0.645218    31Ap     0.718694    20App    0.729110  
      32Ap     0.757809    21App    0.762593    33Ap     0.773550  
      34Ap     0.826983    22App    0.837223    23App    0.897147  
      35Ap     0.957252    24App    0.986173    36Ap     0.986855  
      37Ap     1.003160    25App    1.041862    38Ap     1.081129  
      26App    1.139015    39Ap     1.140836    27App    1.181477  
      40Ap     1.239199    28App    1.246641    41Ap     1.255720  
      29App    1.279454    42Ap     1.280797    43Ap     1.303374  
      30App    1.337929    31App    1.362546    44Ap     1.370503  
      45Ap     1.412243    32App    1.451409    46Ap     1.499160  
      33App    1.531868    34App    1.593078    47Ap     1.636416  
      48Ap     1.684851    35App    1.718551    49Ap     1.758883  
      50Ap     1.796018    36App    1.812348    51Ap     1.859031  
      37App    1.870029    38App    1.900505    52Ap     1.951206  
      39App    1.970125    53Ap     2.024492    40App    2.026425  
      54Ap     2.106503    55Ap     2.130434    41App    2.318085  
      56Ap     2.319784    57Ap     2.410077    42App    2.427505  
      58Ap     2.550610    43App    2.597282    59Ap     2.770546  
      60Ap     2.891028    61Ap     2.926068    44App    2.926154  
      45App    2.966694    62Ap     2.996149    46App    3.003298  
      63Ap     3.045209    47App    3.121218    64Ap     3.172910  
      48App    3.198551    49App    3.233774    65Ap     3.307241  
      66Ap     3.336733    67Ap     3.388271    50App    3.408350  
      51App    3.450340    68Ap     3.528253    69Ap     3.562965  
      52App    3.603572    53App    3.651609    54App    3.653659  
      70Ap     3.667989    71Ap     3.773027    55App    3.822329  
      72Ap     4.072023    73Ap     4.095659    56App    4.132737  
      57App    4.172334    74Ap     4.221689    58App    4.257463  
      75Ap     4.318177    59App    4.330453    60App    4.362761  
      76Ap     4.369040    77Ap     4.418824    61App    4.494047  
      62App    4.951347    78Ap     4.956352    63App    5.095291  
      79Ap     5.104143    80Ap     5.166797    81Ap     5.189113  
      82Ap     5.193435    64App    5.194711    65App    5.204910  
      66App    5.242843    83Ap     5.371899    67App    5.382211  
      84Ap     5.420507    85Ap     6.823138    68App    6.835308  
      86Ap     7.161020    69App    7.197482    87Ap     7.361364  

    Final Occupation by Irrep:
             Ap   App 
    DOCC [    14,    7 ]

  @DF-RKS Final Energy:  -553.21430715552970

   => Energetics <=

    Nuclear Repulsion Energy =            184.2836896674057243
    One-Electron Energy =               -1125.6793640001569656
    Two-Electron Energy =                 426.4852720660956038
    DFT Exchange-Correlation Energy =     -38.3039048888741149
    Empirical Dispersion Energy =           0.0000000000000000
    VV10 Nonlocal Energy =                  0.0000000000000000
    Total Energy =                       -553.2143071555296956

Computation Completed


Properties will be evaluated at   0.000000,   0.000000,   0.000000 [a0]

Properties computed using the SCF density matrix

  Nuclear Dipole Moment: [e a0]
     X:     1.9344      Y:     5.9853      Z:     0.0000

  Electronic Dipole Moment: [e a0]
     X:    -2.0598      Y:    -4.5416      Z:     0.0000

  Dipole Moment: [e a0]
     X:    -0.1255      Y:     1.4437      Z:     0.0000     Total:     1.4491

  Dipole Moment: [D]
     X:    -0.3189      Y:     3.6694      Z:     0.0000     Total:     3.6833


*** tstop() called on n067 at Tue Nov 16 16:20:54 2021
Module time:
	user time   =      82.85 seconds =       1.38 minutes
	system time =       1.21 seconds =       0.02 minutes
	total time  =         22 seconds =       0.37 minutes
Total time:
	user time   =      82.85 seconds =       1.38 minutes
	system time =       1.21 seconds =       0.02 minutes
	total time  =         22 seconds =       0.37 minutes
Grab this energy -553.2143071555297
    Psi4 stopped on: Tuesday, 16 November 2021 04:20PM
    Psi4 wall time for execution: 0:00:21.62

*** Psi4 exiting successfully. Buy a developer a beer!
