
    -----------------------------------------------------------------------
          Psi4: An Open-Source Ab Initio Electronic Structure Package
                               Psi4 1.4a2.dev629 

                         Git: Rev {master} 2938fc2 dirty


    D. G. A. Smith, L. A. Burns, A. C. Simmonett, R. M. Parrish,
    M. C. Schieber, R. Galvelis, P. Kraus, H. Kruse, R. Di Remigio,
    A. Alenaizan, A. M. James, S. Lehtola, J. P. Misiewicz, M. Scheurer,
    R. A. Shaw, J. B. Schriber, Y. Xie, Z. L. Glick, D. A. Sirianni,
    J. S. O'Brien, J. M. Waldrop, A. Kumar, E. G. Hohenstein,
    B. P. Pritchard, B. R. Brooks, H. F. Schaefer III, A. Yu. Sokolov,
    K. Patkowski, A. E. DePrince III, U. Bozkaya, R. A. King,
    F. A. Evangelista, J. M. Turney, T. D. Crawford, C. D. Sherrill,
    J. Chem. Phys. 152(18) 184108 (2020). https://doi.org/10.1063/5.0006002

                            Additional Code Authors
    E. T. Seidl, C. L. Janssen, E. F. Valeev, M. L. Leininger,
    J. F. Gonthier, R. M. Richard, H. R. McAlexander, M. Saitow, X. Wang,
    P. Verma, and M. H. Lechner

             Previous Authors, Complete List of Code Contributors,
                       and Citations for Specific Modules
    https://github.com/psi4/psi4/blob/master/codemeta.json
    https://github.com/psi4/psi4/graphs/contributors
    http://psicode.org/psi4manual/master/introduction.html#citing-psifour

    -----------------------------------------------------------------------


    Psi4 started on: Tuesday, 16 November 2021 04:26PM

    Process ID: 123525
    Host:       n073
    PSIDATADIR: /opt/psi/4/master/share/psi4
    Memory:     500.0 MiB
    Threads:    4
    
  ==> Input File <==

--------------------------------------------------------------------------
import os
memory 14 GB 
 
molecule {
 S   -0.7914414489   -0.2882531412   -0.0000000000
 O    0.7103686810   -2.6692290130   -0.0000000000
 C    0.4271459482    1.6563863273    2.5294094437
 C    0.4271459482    1.6563863273   -2.5294094437
 H   -0.1371127049    0.7697054032    4.2977890423
 H   -0.3965010221    3.5429957043    2.3925772677
 H    2.4819275028    1.7261166524    2.3990934756
 H   -0.1371127049    0.7697054032   -4.2977890423
 H    2.4819275028    1.7261166524   -2.3990934756
 H   -0.3965010221    3.5429957043   -2.3925772677
units bohr
}

basis {

assign 6-31g_2dfp_

[ 6-31g_2dfp_ ]

spherical

!----------------------------------------------------------------------
! Basis Set Exchange
! Version v0.8.13
! https://www.basissetexchange.org
!----------------------------------------------------------------------
!   Basis set: 6-31G(2df,p)
! Description: 6-31G(2df,p)
!        Role: orbital
!     Version: 0  (Data from the original Basis Set Exchange)
!----------------------------------------------------------------------


****
H     0
S    3   1.00
     18.7311370              0.03349460
      2.8253937              0.23472695
      0.6401217              0.81375733
S    1   1.00
      0.1612778              1.00000000
P    1   1.00
      1.5000000              1.0000000
P    1   1.00
      0.3750000              1.0000000
****
B     0
S    6   1.00
   2068.8823000              0.0018663
    310.6495700              0.0142515
     70.6830330              0.0695516
     19.8610800              0.2325729
      6.2993048              0.4670787
      2.1270270              0.3634314
SP   3   1.00
      4.7279710             -0.1303938              0.0745976
      1.1903377             -0.1307889              0.3078467
      0.3594117              1.1309444              0.7434568
SP   1   1.00
      0.1267512              1.0000000              1.0000000
D    1   1.00
      0.8020000              1.0000000
D    1   1.00
      0.2005000              1.0000000
F    1   1.00
      0.5000000              1.0000000
****
C     0
S    6   1.00
   3047.5249000              0.0018347
    457.3695100              0.0140373
    103.9486900              0.0688426
     29.2101550              0.2321844
      9.2866630              0.4679413
      3.1639270              0.3623120
SP   3   1.00
      7.8682724             -0.1193324              0.0689991
      1.8812885             -0.1608542              0.3164240
      0.5442493              1.1434564              0.7443083
SP   1   1.00
      0.1687144              1.0000000              1.0000000
D    1   1.00
      1.2520000              1.0000000
D    1   1.00
      0.3130000              1.0000000
F    1   1.00
      0.8000000              1.0000000
****
N     0
S    6   1.00
   4173.5110000              0.0018348
    627.4579000              0.0139950
    142.9021000              0.0685870
     40.2343300              0.2322410
     12.8202100              0.4690700
      4.3904370              0.3604550
SP   3   1.00
     11.6263580             -0.1149610              0.0675800
      2.7162800             -0.1691180              0.3239070
      0.7722180              1.1458520              0.7408950
SP   1   1.00
      0.2120313              1.0000000              1.0000000
D    1   1.00
      1.8260000              1.0000000
D    1   1.00
      0.4565000              1.0000000
F    1   1.00
      1.0000000              1.0000000
****
O     0
S    6   1.00
   5484.6717000              0.0018311
    825.2349500              0.0139501
    188.0469600              0.0684451
     52.9645000              0.2327143
     16.8975700              0.4701930
      5.7996353              0.3585209
SP   3   1.00
     15.5396160             -0.1107775              0.0708743
      3.5999336             -0.1480263              0.3397528
      1.0137618              1.1307670              0.7271586
SP   1   1.00
      0.2700058              1.0000000              1.0000000
D    1   1.00
      2.5840000              1.0000000
D    1   1.00
      0.6460000              1.0000000
F    1   1.00
      1.4000000              1.0000000
****
F     0
S    6   1.00
   7001.7130900              0.0018196169
   1051.3660900              0.0139160796
    239.2856900              0.0684053245
     67.3974453              0.233185760
     21.5199573              0.471267439
      7.40310130             0.356618546
SP   3   1.00
     20.8479528             -0.108506975            0.0716287243
      4.80830834            -0.146451658            0.3459121030
      1.34406986             1.128688580            0.7224699570
SP   1   1.00
      0.358151393            1.0000000              1.0000000
D    1   1.00
      3.5000000              1.0000000
D    1   1.00
      0.8750000              1.0000000
F    1   1.00
      1.8500000              1.0000000
****
Al     0
S    6   1.00
  13983.1000000              0.00194267
   2098.7500000              0.0148599
    477.7050000              0.0728494
    134.3600000              0.2468300
     42.8709000              0.4872580
     14.5189000              0.3234960
SP   6   1.00
    239.6680000             -0.00292619             0.00460285
     57.4419000             -0.0374080              0.0331990
     18.2859000             -0.1144870              0.1362820
      6.5991400              0.1156350              0.3304760
      2.4904900              0.6125950              0.4491460
      0.9445400              0.3937990              0.2657040
SP   3   1.00
      1.2779000             -0.2276060             -0.0175130
      0.3975900              0.00144583             0.2445330
      0.1600950              1.0927900              0.8049340
SP   1   1.00
      0.0556577              1.0000000              1.0000000
D    1   1.00
      0.6500000              1.0000000
D    1   1.00
      0.1625000              1.0000000
F    1   1.00
      0.2500000              1.0000000
****
Si     0
S    6   1.00
  16115.9000000              0.00195948
   2425.5800000              0.01492880
    553.8670000              0.07284780
    156.3400000              0.24613000
     50.0683000              0.48591400
     17.0178000              0.32500200
SP   6   1.00
    292.7180000             -0.00278094             0.00443826
     69.8731000             -0.03571460             0.03266790
     22.3363000             -0.11498500             0.13472100
      8.1503900              0.09356340             0.32867800
      3.1345800              0.60301700             0.44964000
      1.2254300              0.41895900             0.26137200
SP   3   1.00
      1.7273800             -0.24463000            -0.01779510
      0.5729220              0.00431572             0.25353900
      0.2221920              1.09818000             0.80066900
SP   1   1.00
      0.0778369              1.00000000             1.00000000
D    1   1.00
      0.9000000              1.0000000
D    1   1.00
      0.2250000              1.0000000
F    1   1.00
      0.3200000              1.0000000
****
P     0
S    6   1.00
  19413.3000000              0.0018516
   2909.4200000              0.0142062
    661.3640000              0.0699995
    185.7590000              0.2400790
     59.1943000              0.4847620
     20.0310000              0.3352000
SP   6   1.00
    339.4780000             -0.00278217             0.00456462
     81.0101000             -0.0360499              0.03369360
     25.8780000             -0.1166310              0.13975500
      9.4522100              0.0968328              0.33936200
      3.6656600              0.6144180              0.45092100
      1.4674600              0.4037980              0.23858600
SP   3   1.00
      2.1562300             -0.2529230             -0.01776530
      0.7489970              0.0328517              0.27405800
      0.2831450              1.0812500              0.78542100
SP   1   1.00
      0.0998317              1.0000000              1.00000000
D    1   1.00
      1.1000000              1.0000000
D    1   1.00
      0.2750000              1.0000000
F    1   1.00
      0.4500000              1.0000000
****
S     0
S    6   1.00
  21917.1000000              0.0018690
   3301.4900000              0.0142300
    754.1460000              0.0696960
    212.7110000              0.2384870
     67.9896000              0.4833070
     23.0515000              0.3380740
SP   6   1.00
    423.7350000             -0.0023767              0.0040610
    100.7100000             -0.0316930              0.0306810
     32.1599000             -0.1133170              0.1304520
     11.8079000              0.0560900              0.3272050
      4.6311000              0.5922550              0.4528510
      1.8702500              0.4550060              0.2560420
SP   3   1.00
      2.6158400             -0.2503740             -0.0145110
      0.9221670              0.0669570              0.3102630
      0.3412870              1.0545100              0.7544830
SP   1   1.00
      0.1171670              1.0000000              1.0000000
D    1   1.00
      1.3000000              1.0000000
D    1   1.00
      0.3250000              1.0000000
F    1   1.00
      0.5500000              1.0000000
****
Cl     0
S    6   1.00
  25180.1000000              0.0018330
   3780.3500000              0.0140340
    860.4740000              0.0690970
    242.1450000              0.2374520
     77.3349000              0.4830340
     26.2470000              0.3398560
SP   6   1.00
    491.7650000             -0.0022974              0.0039894
    116.9840000             -0.0307140              0.0303180
     37.4153000             -0.1125280              0.1298800
     13.7834000              0.0450160              0.3279510
      5.4521500              0.5893530              0.4535270
      2.2258800              0.4652060              0.2521540
SP   3   1.00
      3.1864900             -0.2518300             -0.0142990
      1.1442700              0.0615890              0.3235720
      0.4203770              1.0601800              0.7435070
SP   1   1.00
      0.1426570              1.0000000              1.0000000
D    1   1.00
      1.5000000              1.0000000
D    1   1.00
      0.3750000              1.0000000
F    1   1.00
      0.7000000              1.0000000
****
}


set {
reference rhf                          
freeze_core true
e_convergence 10                       
d_convergence 10                      
dft_spherical_points 1202
dft_radial_points 99
}

e = energy('b3lyp')

print_out('Grab this energy {0}'.format(e))
--------------------------------------------------------------------------

  Memory set to  13.039 GiB by Python driver.

Scratch directory: /tmp/

*** tstart() called on n073
*** at Tue Nov 16 16:26:32 2021

   => Loading Basis Set <=

    Name: ANONYMOUS257DA102
    Role: ORBITAL
    Keyword: BASIS
    atoms 1    entry S          line   216 inputblock 6-31g_2dfp_ 
    atoms 2    entry O          line    90 inputblock 6-31g_2dfp_ 
    atoms 3-4  entry C          line    48 inputblock 6-31g_2dfp_ 
    atoms 5-10 entry H          line    15 inputblock 6-31g_2dfp_ 


         ---------------------------------------------------------
                                   SCF
               by Justin Turney, Rob Parrish, Andy Simmonett
                          and Daniel G. A. Smith
                              RKS Reference
                        4 Threads,  13351 MiB Core
         ---------------------------------------------------------

  ==> Geometry <==

    Molecular point group: cs
    Full point group: Cs

    Geometry (in Bohr), charge = 0, multiplicity = 1:

       Center              X                  Y                   Z               Mass       
    ------------   -----------------  -----------------  -----------------  -----------------
         S           -0.794477901400    -0.288448941506     0.000000000000    31.972071174400
         O            0.707332228500    -2.669424813306     0.000000000000    15.994914619570
         C            0.424109495700     1.656190526994     2.529409443700    12.000000000000
         C            0.424109495700     1.656190526994    -2.529409443700    12.000000000000
         H           -0.140149157400     0.769509602894     4.297789042300     1.007825032230
         H           -0.399537474600     3.542799903994     2.392577267700     1.007825032230
         H            2.478891050300     1.725920852094     2.399093475600     1.007825032230
         H           -0.140149157400     0.769509602894    -4.297789042300     1.007825032230
         H            2.478891050300     1.725920852094    -2.399093475600     1.007825032230
         H           -0.399537474600     3.542799903994    -2.392577267700     1.007825032230

  Running in cs symmetry.

  Rotational constants: A =      0.23228  B =      0.23135  C =      0.14036 [cm^-1]
  Rotational constants: A =   6963.62697  B =   6935.63527  C =   4207.95947 [MHz]
  Nuclear repulsion =  184.366888749237518

  Charge       = 0
  Multiplicity = 1
  Electrons    = 42
  Nalpha       = 21
  Nbeta        = 21

  ==> Algorithm <==

  SCF Algorithm Type is DF.
  DIIS enabled.
  MOM disabled.
  Fractional occupation disabled.
  Guess Type is SAD.
  Energy threshold   = 1.00e-10
  Density threshold  = 1.00e-10
  Integral threshold = 0.00e+00

  ==> Primary Basis <==

  Basis Set: ANONYMOUS257DA102
    Blend: 6-31G_2DFP_
    Number of shells: 58
    Number of basis function: 156
    Number of Cartesian functions: 176
    Spherical Harmonics?: true
    Max angular momentum: 3

  ==> DFT Potential <==

   => Composite Functional: B3LYP <= 

    B3LYP Hyb-GGA Exchange-Correlation Functional

    P. J. Stephens, F. J. Devlin, C. F. Chabalowski, and M. J. Frisch, J. Phys. Chem. 98, 11623 (1994)

    Deriv               =              1
    GGA                 =           TRUE
    Meta                =          FALSE

    Exchange Hybrid     =           TRUE
    MP2 Hybrid          =          FALSE

   => Exchange Functionals <=

    0.0800   Slater exchange
    0.7200         Becke 88

   => Exact (HF) Exchange <=

    0.2000               HF 

   => Correlation Functionals <=

    0.1900   Vosko, Wilk & Nusair (VWN5_RPA)
    0.8100   Lee, Yang & Parr

   => Molecular Quadrature <=

    Radial Scheme          =       TREUTLER
    Pruning Scheme         =           NONE
    Nuclear Scheme         =       TREUTLER

    BS radius alpha        =              1
    Pruning alpha          =              1
    Radial Points          =             99
    Spherical Points       =           1202
    Total Points           =        1116316
    Total Blocks           =           7515
    Max Points             =            256
    Max Functions          =            155
    Weights Tolerance      =       1.00E-15

   => Loading Basis Set <=

    Name: (ANONYMOUS257DA102 AUX)
    Role: JKFIT
    Keyword: DF_BASIS_SCF
    atoms 1    entry S          line   903 file /opt/psi/4/master/share/psi4/basis/def2-universal-jkfit.gbs 
    atoms 2    entry O          line   318 file /opt/psi/4/master/share/psi4/basis/def2-universal-jkfit.gbs 
    atoms 3-4  entry C          line   198 file /opt/psi/4/master/share/psi4/basis/def2-universal-jkfit.gbs 
    atoms 5-10 entry H          line    18 file /opt/psi/4/master/share/psi4/basis/def2-universal-jkfit.gbs 

  ==> Integral Setup <==

  DFHelper Memory: AOs need 0.090 GiB; user supplied 5.943 GiB. Using in-core AOs.

  ==> MemDFJK: Density-Fitted J/K Matrices <==

    J tasked:                   Yes
    K tasked:                   Yes
    wK tasked:                   No
    OpenMP threads:               4
    Memory [MiB]:              6085
    Algorithm:                 Core
    Schwarz Cutoff:           1E-12
    Mask sparsity (%):       1.3396
    Fitting Condition:        1E-10

   => Auxiliary Basis Set <=

  Basis Set: (ANONYMOUS257DA102 AUX)
    Blend: DEF2-UNIVERSAL-JKFIT
    Number of shells: 149
    Number of basis function: 463
    Number of Cartesian functions: 546
    Spherical Harmonics?: true
    Max angular momentum: 4

  Cached 100.0% of DFT collocation blocks in 3.836 [GiB].

  Minimum eigenvalue in the overlap matrix is 2.8173210565E-03.
  Reciprocal condition number of the overlap matrix is 5.3539639472E-04.
    Using symmetric orthogonalization.

  ==> Pre-Iterations <==

  SCF Guess: Superposition of Atomic Densities via on-the-fly atomic UHF (no occupation information).

   -------------------------
    Irrep   Nso     Nmo    
   -------------------------
     A'        87      87 
     A"        69      69 
   -------------------------
    Total     156     156
   -------------------------

  ==> Iterations <==

                           Total Energy        Delta E     RMS |[F,P]|

   @DF-RKS iter SAD:  -552.83219241035317   -5.52832e+02   0.00000e+00 
   @DF-RKS iter   1:  -552.84654965440291   -1.43572e-02   8.10607e-03 DIIS
   @DF-RKS iter   2:  -552.25373300324497    5.92817e-01   1.32578e-02 DIIS
   @DF-RKS iter   3:  -553.14208946399890   -8.88356e-01   3.53786e-03 DIIS
   @DF-RKS iter   4:  -553.21207981544137   -6.99904e-02   6.05059e-04 DIIS
   @DF-RKS iter   5:  -553.21397395054544   -1.89414e-03   1.97565e-04 DIIS
   @DF-RKS iter   6:  -553.21423616509628   -2.62215e-04   3.39647e-05 DIIS
   @DF-RKS iter   7:  -553.21424371844194   -7.55335e-06   8.76786e-06 DIIS
   @DF-RKS iter   8:  -553.21424417557955   -4.57138e-07   1.46587e-06 DIIS
   @DF-RKS iter   9:  -553.21424418976699   -1.41874e-08   3.38546e-07 DIIS
   @DF-RKS iter  10:  -553.21424419045957   -6.92580e-10   4.54839e-08 DIIS
   @DF-RKS iter  11:  -553.21424419047617   -1.65983e-11   8.91016e-09 DIIS
   @DF-RKS iter  12:  -553.21424419047673   -5.68434e-13   1.88469e-09 DIIS
   @DF-RKS iter  13:  -553.21424419047628    4.54747e-13   5.94348e-10 DIIS
   @DF-RKS iter  14:  -553.21424419047639   -1.13687e-13   1.18696e-10 DIIS
   @DF-RKS iter  15:  -553.21424419047651   -1.13687e-13   1.43030e-11 DIIS
  Energy and wave function converged.


  ==> Post-Iterations <==

    Orbital Energies [Eh]
    ---------------------

    Doubly Occupied:                                                      

       1Ap   -88.969811     2Ap   -19.093337     1App  -10.204993  
       3Ap   -10.204965     4Ap    -8.021221     5Ap    -5.984889  
       2App   -5.984728     6Ap    -5.979001     7Ap    -1.002118  
       8Ap    -0.789896     3App   -0.719799     9Ap    -0.597449  
      10Ap    -0.467099    11Ap    -0.457818     4App   -0.453998  
       5App   -0.423592    12Ap    -0.396209     6App   -0.389270  
      13Ap    -0.349295     7App   -0.262913    14Ap    -0.223156  

    Virtual:                                                              

      15Ap     0.047478     8App    0.049158    16Ap     0.068531  
      17Ap     0.108742    18Ap     0.114074    19Ap     0.135831  
       9App    0.137846    10App    0.158891    11App    0.168965  
      20Ap     0.294843    12App    0.316702    21Ap     0.329829  
      22Ap     0.346292    23Ap     0.359658    13App    0.411167  
      24Ap     0.432394    14App    0.459762    25Ap     0.460884  
      15App    0.489012    16App    0.494836    26Ap     0.506536  
      27Ap     0.523539    17App    0.580499    28Ap     0.603080  
      18App    0.612946    29Ap     0.613314    30Ap     0.626225  
      19App    0.645221    31Ap     0.719330    20App    0.729661  
      32Ap     0.759358    21App    0.764218    33Ap     0.773268  
      34Ap     0.827156    22App    0.838004    23App    0.897308  
      35Ap     0.957354    24App    0.986561    36Ap     0.987058  
      37Ap     1.003700    25App    1.042328    38Ap     1.081858  
      26App    1.139172    39Ap     1.139989    27App    1.182194  
      40Ap     1.240248    28App    1.248956    41Ap     1.255785  
      29App    1.279621    42Ap     1.281144    43Ap     1.302517  
      30App    1.338533    31App    1.363504    44Ap     1.371132  
      45Ap     1.414468    32App    1.451191    46Ap     1.500428  
      33App    1.532336    34App    1.593784    47Ap     1.635978  
      48Ap     1.685470    35App    1.718068    49Ap     1.757994  
      50Ap     1.796670    36App    1.814066    51Ap     1.861138  
      37App    1.870003    38App    1.900812    52Ap     1.951800  
      39App    1.969900    53Ap     2.024568    40App    2.028244  
      54Ap     2.106332    55Ap     2.129871    41App    2.318634  
      56Ap     2.320350    57Ap     2.411587    42App    2.429237  
      58Ap     2.551317    43App    2.598658    59Ap     2.767145  
      60Ap     2.890929    61Ap     2.925425    44App    2.925964  
      45App    2.966840    62Ap     2.997157    46App    3.004344  
      63Ap     3.045967    47App    3.121916    64Ap     3.173231  
      48App    3.200213    49App    3.235467    65Ap     3.307417  
      66Ap     3.335313    67Ap     3.388569    50App    3.407864  
      51App    3.450738    68Ap     3.528905    69Ap     3.565714  
      52App    3.603800    53App    3.655044    54App    3.656908  
      70Ap     3.673077    71Ap     3.773666    55App    3.823565  
      72Ap     4.072973    73Ap     4.096380    56App    4.133763  
      57App    4.172656    74Ap     4.224030    58App    4.261345  
      75Ap     4.319300    59App    4.331331    60App    4.363502  
      76Ap     4.370219    77Ap     4.419968    61App    4.495766  
      62App    4.952447    78Ap     4.957798    63App    5.095992  
      79Ap     5.104997    80Ap     5.169080    81Ap     5.188093  
      82Ap     5.194325    64App    5.196422    65App    5.205923  
      66App    5.242529    83Ap     5.371848    67App    5.382666  
      84Ap     5.418361    85Ap     6.823316    68App    6.835439  
      86Ap     7.159821    69App    7.196383    87Ap     7.357971  

    Final Occupation by Irrep:
             Ap   App 
    DOCC [    14,    7 ]

  @DF-RKS Final Energy:  -553.21424419047651

   => Energetics <=

    Nuclear Repulsion Energy =            184.3668887492375177
    One-Electron Energy =               -1125.8453683221696338
    Two-Electron Energy =                 426.5693892525206365
    DFT Exchange-Correlation Energy =     -38.3051538700650980
    Empirical Dispersion Energy =           0.0000000000000000
    VV10 Nonlocal Energy =                  0.0000000000000000
    Total Energy =                       -553.2142441904765064

Computation Completed


Properties will be evaluated at   0.000000,   0.000000,   0.000000 [a0]

Properties computed using the SCF density matrix

  Nuclear Dipole Moment: [e a0]
     X:     1.9147      Y:     5.9802      Z:    -0.0000

  Electronic Dipole Moment: [e a0]
     X:    -2.0436      Y:    -4.5269      Z:     0.0000

  Dipole Moment: [e a0]
     X:    -0.1289      Y:     1.4532      Z:    -0.0000     Total:     1.4590

  Dipole Moment: [D]
     X:    -0.3276      Y:     3.6938      Z:    -0.0000     Total:     3.7083


*** tstop() called on n073 at Tue Nov 16 16:26:54 2021
Module time:
	user time   =      82.76 seconds =       1.38 minutes
	system time =       1.34 seconds =       0.02 minutes
	total time  =         22 seconds =       0.37 minutes
Total time:
	user time   =      82.76 seconds =       1.38 minutes
	system time =       1.34 seconds =       0.02 minutes
	total time  =         22 seconds =       0.37 minutes
Grab this energy -553.2142441904765
    Psi4 stopped on: Tuesday, 16 November 2021 04:26PM
    Psi4 wall time for execution: 0:00:21.67

*** Psi4 exiting successfully. Buy a developer a beer!
