
 Primary working directories    : /tmp/999602.229.gen6.q
 Secondary working directories  : /tmp/999602.229.gen6.q
 Wavefunction directory         : /home/vulcan/jj04645/wfu/
 Main file repository           : /tmp/999602.229.gen6.q/

 ARCHNAME  : Linux/x86_64
 FC        : /opt/intel/compilers_and_libraries_2016.1.150/linux/bin/intel64/ifort
 FCVERSION : 16.0.1
 BLASLIB   : -mkl
 id        : ccgc

 Nodes     nprocs
 n075         1
 ga_uses_ma=false, calling ma_init with nominal heap.
 GA-space will be limited to   8.0 MW (determined by -G option)

 Using customized tuning parameters: mindgm=10; mindgv=16; mindgc=4; mindgr=1; noblas=0; mincuda=1000; minvec=7
 default implementation of scratch files=df  

 ***,Optimization of 1,3-difluorobenzene
 memory,1000,m
 gthresh,energy=1.0d-12,orbital=1.0d-10,oneint=1.0d-16,twoint=1.0d-16,optgrad=1.0d-6,compress=1.0d-13
 geomtyp=xyz
 
 bohr
 geometry = {
  F   -0.0004757749    4.4346230053   -1.7546826181
  C   -0.0014517954    2.2408466546   -0.4789989853
  C   -0.0034613972   -2.2989761905    2.1476014831
  C   -0.0003999196    0.0020382638   -1.8538298357
  C   -0.0034573247    2.2943020100    2.1422810766
  C   -0.0044506493    0.0020340435    3.4405813528
  C   -0.0014482158   -2.2454959628   -0.4836801297
  H    0.0011619406    0.0053557094   -3.8952225356
  H    0.0102371936    4.0878940732    3.1191583593
  H   -0.0060152803    0.0054965860    5.4855957120
  F   -0.0004695277   -4.4372398337   -1.7628525992
  H    0.0102307506   -4.0908783588    3.1275751555
 }
 
 basis=VDZ
 {rhf;maxit,200}
 {ccsd(t);maxit,200}

 Variables initialized (661), CPU time= 0.01 sec
 Commands  initialized (458), CPU time= 0.00 sec, 486 directives.
 Default parameters read. Elapsed time= 0.05 sec

 Checking input...
 Passed
1


                                         ***  PROGRAM SYSTEM MOLPRO  ***
                         Copyright, University College Cardiff Consultants Limited, 2008

                                    Version 2010.1 linked May 16 2016 07:17:05


 **********************************************************************************************************************************
 LABEL *   Optimization of 1,3-difluorobenzene                                           
 Linux-4.4.3/n075(x86_64) 64 bit mpp version                                             DATE: 07-Feb-24          TIME: 13:13:52  
 **********************************************************************************************************************************

 SHA1:             9e8077add272b0f3cad6f7df79ec5211205f459d
 **********************************************************************************************************************************

 THRESHOLDS:

 ZERO    =  1.00D-12  ONEINT  =  1.00D-16  TWOINT  =  1.00D-16  PREFAC  =  1.00D-14  LOCALI  =  1.00D-09  EORDER  =  1.00D-04
 ENERGY  =  1.00D-12  ETEST   =  0.00D+00  EDENS   =  0.00D+00  THRDEDEF=  1.00D-06  GRADIENT=  1.00D-02  STEP    =  1.00D-03
 ORBITAL =  1.00D-10  CIVEC   =  1.00D-05  COEFF   =  1.00D-04  PRINTCI =  5.00D-02  PUNCHCI =  9.90D+01  OPTGRAD =  1.00D-06
 OPTENERG=  1.00D-06  OPTSTEP =  3.00D-04  THRGRAD =  1.00D-10  COMPRESS=  1.00D-13  VARMIN  =  1.00D-07  VARMAX  =  1.00D-03
 THRDOUB =  0.00D+00  THRDIV  =  1.00D-05  THRRED  =  1.00D-07  THRPSP  =  1.00D+00  THRDC   =  1.00D-10  THRCS   =  1.00D-10
 THRNRM  =  1.00D-08  THREQ   =  0.00D+00  THRDE   =  1.00D+00  THRREF  =  1.00D-05  SPARFAC =  1.00D+00  THRDLP  =  1.00D-07
 THRDIA  =  1.00D-10  THRDLS  =  1.00D-07  THRGPS  =  0.00D+00  THRKEX  =  0.00D+00  THRDIS  =  2.00D-01  THRVAR  =  1.00D-10
 THRLOC  =  1.00D-06  THRGAP  =  1.00D-06  THRLOCT = -1.00D+00  THRGAPT = -1.00D+00  THRORB  =  1.00D-06  THRMLTP =  0.00D+00
 THRCPQCI=  1.00D-10  KEXTA   =  0.00D+00  THRCOARS=  0.00D+00  SYMTOL  =  1.00D-06  GRADTOL =  1.00D-06  THROVL  =  1.00D-08
 THRORTH =  1.00D-08  GRID    =  1.00D-06  GRIDMAX =  1.00D-03  DTMAX   =  0.00D+00

 SETTING GEOMTYP        =    XYZ
 ZUNIT=BOHR
 

 Variable memory set to 1000000000 words,  buffer space   230000 words

 SETTING BASIS          =    VDZ


 Recomputing integrals since basis changed


 Using spherical harmonics

 Library entry F      S cc-pVDZ              selected for orbital group  1
 Library entry F      P cc-pVDZ              selected for orbital group  1
 Library entry F      D cc-pVDZ              selected for orbital group  1
 Library entry C      S cc-pVDZ              selected for orbital group  2
 Library entry C      P cc-pVDZ              selected for orbital group  2
 Library entry C      D cc-pVDZ              selected for orbital group  2
 Library entry H      S cc-pVDZ              selected for orbital group  3
 Library entry H      P cc-pVDZ              selected for orbital group  3

1PROGRAM * SEWARD (Integral evaluation for generally contracted gaussian basis sets)     Author: Roland Lindh, 1990

 Geometry written to block  1 of record 700


 Point group  C1  



 ATOMIC COORDINATES

 NR  ATOM    CHARGE       X              Y              Z

   1  F       9.00   -0.000475775    4.434623005   -1.754682618
   2  C       6.00   -0.001451795    2.240846655   -0.478998985
   3  C       6.00   -0.003461397   -2.298976190    2.147601483
   4  C       6.00   -0.000399920    0.002038264   -1.853829836
   5  C       6.00   -0.003457325    2.294302010    2.142281077
   6  C       6.00   -0.004450649    0.002034043    3.440581353
   7  C       6.00   -0.001448216   -2.245495963   -0.483680130
   8  H       1.00    0.001161941    0.005355709   -3.895222536
   9  H       1.00    0.010237194    4.087894073    3.119158359
  10  H       1.00   -0.006015280    0.005496586    5.485595712
  11  F       9.00   -0.000469528   -4.437239834   -1.762852599
  12  H       1.00    0.010230751   -4.090878359    3.127575156

 Bond lengths in Bohr (Angstrom)

 1-2  2.537720308  2-4  2.627246464  2-5  2.621825826  3-6  2.639402588  3-7  2.631825814
     ( 1.342903750)     ( 1.390278951)     ( 1.387410473)     ( 1.396711695)     ( 1.392702239)

  3-12  2.042412606   4- 7  2.632246458   4- 8  2.041395993   5- 6  2.634402593   5- 9  2.042412606
       ( 1.080798203)       ( 1.392924834)       ( 1.080260234)       ( 1.394065812)       ( 1.080798203)

  6-10  2.045017889   7-11  2.537720308
       ( 1.082176859)       ( 1.342903750)

 Bond angles

  1-2-4  118.26824334   1-2-5  119.00979919   2-4-7  117.07882961   2-4-8  121.46058519

  2- 5- 6  118.35819868   2- 5- 9  119.74203372   3- 6- 5  121.14110132   3- 6-10  119.42944934

  3- 7- 4  122.53183818   3- 7-11  119.10485884   4- 2- 5  122.72195747   4- 7-11  118.36330299

  5- 6-10  119.42944934   6- 3- 7  118.16807474   6- 3-12  121.99311635   6- 5- 9  121.89805761

  7- 3-12  119.83709247   7- 4- 8  121.46058520

 NUCLEAR CHARGE:                   58
 NUMBER OF PRIMITIVE AOS:         244
 NUMBER OF SYMMETRY AOS:          236
 NUMBER OF CONTRACTIONS:          132   ( 132A   )
 NUMBER OF CORE ORBITALS:           8   (   8A   )
 NUMBER OF VALENCE ORBITALS:       36   (  36A   )


 NUCLEAR REPULSION ENERGY  342.34471824


 Eigenvalues of metric

         1 0.394E-03 0.121E-02 0.170E-02 0.262E-02 0.304E-02 0.316E-02 0.125E-01 0.130E-01


 Contracted 2-electron integrals neglected if value below      1.0D-16
 AO integral compression algorithm  1   Integral accuracy      1.0D-16

     262.668 MB (compressed) written to integral file ( 78.7%)

     Node minimum: 262.668 MB, node maximum: 262.668 MB


 NUMBER OF SORTED TWO-ELECTRON INTEGRALS:   38531031.     BUFFER LENGTH:  32768
 NUMBER OF SEGMENTS:   3  SEGMENT LENGTH:   15998004      RECORD LENGTH: 524288

 Memory used in sort:      16.56 MW

 SORT1 READ    41688318. AND WROTE    37147748. INTEGRALS IN    108 RECORDS. CPU TIME:     0.41 SEC, REAL TIME:     0.61 SEC
 SORT2 READ    37147748. AND WROTE    38531031. INTEGRALS IN   1002 RECORDS. CPU TIME:     0.38 SEC, REAL TIME:     0.49 SEC

 FILE SIZES:   FILE 1:   242.8 MBYTE,  FILE 4:   453.0 MBYTE,   TOTAL:    695.8 MBYTE

 OPERATOR DM      FOR CENTER  0  COORDINATES:    0.000000    0.000000    0.000000


 **********************************************************************************************************************************
 DATASETS  * FILE   NREC   LENGTH (MB)   RECORD NAMES
              1      19      242.97       500      610      700      900      950      970     1000      129      960     1100   
                                          VAR    BASINP    GEOM    SYMINP    ZMAT    AOBASIS   BASIS     P2S    ABASIS      S 
                                         1400     1410     1200     1210     1080     1600     1650     1300     1700   
                                           T        V       H0       H01     AOSYM     SMH    MOLCAS    ERIS     OPER   

 PROGRAMS   *        TOTAL       INT
 CPU TIMES  *         3.53      3.49
 REAL TIME  *         4.17 SEC
 DISK USED  *       959.31 MB      
 GA USED    *         0.00 MB       (max)       0.00 MB       (current)
 **********************************************************************************************************************************

1PROGRAM * RHF-SCF (CLOSED SHELL)       Authors: W. Meyer, H.-J. Werner


 NUMBER OF ELECTRONS:      29+   29-    SPACE SYMMETRY=1    SPIN SYMMETRY: Singlet 
 CONVERGENCE THRESHOLDS:    1.00E-10 (Density)    1.00E-13 (Energy)
 MAX. NUMBER OF ITERATIONS:      200
 INTERPOLATION TYPE:            DIIS
 INTERPOLATION STEPS:              2 (START)      1 (STEP)
 LEVEL SHIFTS:                  0.00 (CLOSED)  0.00 (OPEN) 



 Orbital guess generated from atomic densities. Full valence occupancy:   44

 Molecular orbital dump at record        2100.2

 ITERATION    DDIFF          GRAD             ENERGY        2-EL.EN.            DIPOLE MOMENTS         DIIS
    1      0.000D+00      0.000D+00      -428.34369057    993.022891    0.00498   -0.01103    0.47165    0
    2      0.000D+00      0.607D-02      -428.41788562    992.558612    0.00365    0.00587    0.92660    1
    3      0.124D-01      0.276D-02      -428.43185739    992.892834    0.00454   -0.00289    0.61974    2
    4      0.396D-02      0.729D-03      -428.43341800    992.949582    0.00442   -0.00020    0.73367    3
    5      0.148D-02      0.221D-03      -428.43355319    992.914564    0.00445   -0.00092    0.70036    4
    6      0.373D-03      0.461D-04      -428.43356091    992.923673    0.00445   -0.00086    0.70469    5
    7      0.980D-04      0.139D-04      -428.43356197    992.927070    0.00445   -0.00089    0.70306    6
    8      0.333D-04      0.497D-05      -428.43356210    992.926381    0.00444   -0.00087    0.70347    7
    9      0.111D-04      0.226D-05      -428.43356213    992.926779    0.00444   -0.00088    0.70319    8
   10      0.599D-05      0.869D-06      -428.43356214    992.927339    0.00444   -0.00088    0.70326    8
   11      0.270D-05      0.488D-06      -428.43356214    992.927252    0.00444   -0.00088    0.70323    8
   12      0.166D-05      0.193D-06      -428.43356214    992.927348    0.00444   -0.00088    0.70324    8
   13      0.949D-06      0.326D-07      -428.43356214    992.927375    0.00444   -0.00088    0.70324    8
   14      0.106D-06      0.124D-07      -428.43356214    992.927369    0.00444   -0.00088    0.70324    9
   15      0.417D-07      0.300D-08      -428.43356214    992.927369    0.00444   -0.00088    0.70324    9
   16      0.872D-08      0.123D-08      -428.43356214    992.927370    0.00444   -0.00088    0.70324    9
   17      0.353D-08      0.437D-09      -428.43356214    992.927370    0.00444   -0.00088    0.70324    8
   18      0.116D-08      0.127D-09      -428.43356214    992.927370    0.00444   -0.00088    0.70324    8
   19      0.278D-09      0.489D-10      -428.43356214    992.927370    0.00444   -0.00088    0.70324    8
   20      0.101D-09      0.105D-10      -428.43356214    992.927370    0.00444   -0.00088    0.70324    8
   21      0.274D-10      0.331D-11      -428.43356214    992.927370    0.00444   -0.00088    0.70324    8
   22      0.799D-11      0.117D-11      -428.43356214    992.927370    0.00444   -0.00088    0.70324    0

 Final occupancy:  29

 !RHF STATE 1.1 Energy               -428.433562139983
 Nuclear energy                       342.34471824
 One-electron energy                -1267.24196518
 Two-electron energy                  496.46368480
 Virial quotient                       -1.00060196
 !RHF STATE 1.1 Dipole moment           0.00444405    -0.00087914     0.70323896
 Dipole moment /Debye                   0.01129491    -0.00223441     1.78733808

 Orbital energies:

         1.1          2.1          3.1          4.1          5.1          6.1          7.1          8.1          9.1         10.1
    -26.321228   -26.320739   -11.350227   -11.349161   -11.272533   -11.259131   -11.256209   -11.255183    -1.639589    -1.638934

        11.1         12.1         13.1         14.1         15.1         16.1         17.1         18.1         19.1         20.1
     -1.178966    -1.046766    -1.036983    -0.875055    -0.864979    -0.774634    -0.740961    -0.703912    -0.703008    -0.695921

        21.1         22.1         23.1         24.1         25.1         26.1         27.1         28.1         29.1         30.1
     -0.685149    -0.668322    -0.623136    -0.586307    -0.554973    -0.532751    -0.513829    -0.360296    -0.348415     0.113845

        31.1
      0.131876


 **********************************************************************************************************************************
 DATASETS  * FILE   NREC   LENGTH (MB)   RECORD NAMES
              1      19      242.97       500      610      700      900      950      970     1000      129      960     1100   
                                          VAR    BASINP    GEOM    SYMINP    ZMAT    AOBASIS   BASIS     P2S    ABASIS      S 
                                         1400     1410     1200     1210     1080     1600     1650     1300     1700   
                                           T        V       H0       H01     AOSYM     SMH    MOLCAS    ERIS     OPER   

              2       3        0.82       700     1000     2100   
                                         GEOM     BASIS     RHF  

 PROGRAMS   *        TOTAL       RHF       INT
 CPU TIMES  *        10.04      6.50      3.49
 REAL TIME  *        11.18 SEC
 DISK USED  *       959.31 MB      
 GA USED    *         0.00 MB       (max)       0.00 MB       (current)
 **********************************************************************************************************************************


1PROGRAM * CCSD (Closed-shell coupled cluster)     Authors: C. Hampel, H.-J. Werner, 1991, M. Deegan, P.J. Knowles, 1992


 Convergence thresholds:  THRVAR = 1.00D-08  THRDEN = 1.00D-12

 CCSD(T)     terms to be evaluated (factor= 1.000)


 Number of core orbitals:           8 (   8 )
 Number of closed-shell orbitals:  21 (  21 )
 Number of external orbitals:     103 ( 103 )

 Molecular orbitals read from record     2100.2  Type=RHF/CANONICAL (state 1.1)

 Number of N-1 electron functions:              21
 Number of N-2 electron functions:             231
 Number of singly external CSFs:              2163
 Number of doubly external CSFs:           2340366
 Total number of CSFs:                     2342530

 Length of J-op  integral file:               0.00 MB
 Length of K-op  integral file:               1.24 MB
 Length of 3-ext integral record:             0.00 MB

 Memory could be reduced to 31.86 Mwords without degradation in triples

 Integral transformation finished. Total CPU:   2.06 sec, npass=  1  Memory used:  32.41 MW

 Reference energy:                   -428.43356214

 MP2 singlet pair energy:              -0.67264983
 MP2 triplet pair energy:              -0.46573654
 MP2 correlation energy:               -1.13838636
 MP2 total energy:                   -429.57194850

 SCS-MP2 correlation energy:           -1.09697141   (PS=  1.200000  PT=  0.333333)
 SCS-MP2 total energy:               -429.53053355

 ITER.      SQ.NORM     CORR.ENERGY   TOTAL ENERGY   ENERGY CHANGE        DEN1      VAR(S)    VAR(P)  DIIS     TIME
   1      1.36211051    -1.16812948  -429.60169162    -0.02974312     0.00049501  0.67D-02  0.73D-02  1  1    11.13
   2      1.38857712    -1.17166040  -429.60522254    -0.00353092    -0.02699973  0.13D-03  0.11D-02  2  2    20.34
   3      1.39936949    -1.17226198  -429.60582412    -0.00060158    -0.00537912  0.86D-04  0.10D-03  3  3    29.54
   4      1.40340136    -1.17218734  -429.60574948     0.00007464    -0.00142486  0.48D-05  0.20D-04  4  4    38.75
   5      1.40524261    -1.17221780  -429.60577994    -0.00003046    -0.00045145  0.91D-06  0.22D-05  5  5    47.96
   6      1.40571849    -1.17222354  -429.60578568    -0.00000574    -0.00006801  0.12D-06  0.24D-06  6  6    57.18
   7      1.40580547    -1.17221854  -429.60578068     0.00000500     0.00000035  0.28D-07  0.22D-07  6  1    66.39
   8      1.40583045    -1.17221965  -429.60578179    -0.00000112    -0.00000756  0.61D-08  0.30D-08  6  2    75.61
   9      1.40583176    -1.17222032  -429.60578246    -0.00000066     0.00000229  0.18D-08  0.34D-09  6  3    84.82
  10      1.40583413    -1.17222009  -429.60578223     0.00000023    -0.00000121  0.38D-09  0.76D-10  6  4    94.04
  11      1.40583419    -1.17222033  -429.60578247    -0.00000024     0.00000032  0.46D-10  0.20D-10  6  5   103.26
  12      1.40583439    -1.17222031  -429.60578245     0.00000002    -0.00000007  0.11D-10  0.24D-11  6  6   112.48
  13      1.40583439    -1.17222033  -429.60578247    -0.00000002     0.00000005  0.57D-12  0.56D-12  6  1   121.70
  14      1.40583438    -1.17222033  -429.60578247    -0.00000001     0.00000002  0.15D-12  0.87D-13  6  2   130.91
  15      1.40583437    -1.17222033  -429.60578247     0.00000000     0.00000000  0.40D-13  0.14D-13  6  3   140.13
  16      1.40583437    -1.17222034  -429.60578248    -0.00000000     0.00000000  0.63D-14  0.42D-14  6  4   149.35
  17      1.40583438    -1.17222034  -429.60578248    -0.00000000    -0.00000000  0.16D-14  0.72D-15  6  5   158.56
  18      1.40583438    -1.17222034  -429.60578248    -0.00000000    -0.00000000  0.21D-15  0.11D-15  6  6   167.77
  19      1.40583438    -1.17222034  -429.60578248    -0.00000000    -0.00000000  0.32D-16  0.23D-16  6  1   176.99
  20      1.40583438    -1.17222034  -429.60578248     0.00000000    -0.00000000  0.13D-16  0.29D-17  6  2   186.21
  21      1.40583438    -1.17222034  -429.60578248    -0.00000000    -0.00000000  0.15D-17  0.69D-18  6  3   195.44
  22      1.40583438    -1.17222034  -429.60578248    -0.00000000    -0.00000000  0.47D-18  0.15D-18  6  4   204.65
  23      1.40583438    -1.17222034  -429.60578248     0.00000000    -0.00000000  0.96D-19  0.25D-19  6  5   213.86
  24      1.40583438    -1.17222034  -429.60578248    -0.00000000    -0.00000000  0.11D-19  0.59D-20  6  6   223.08
  25      1.40583438    -1.17222034  -429.60578248    -0.00000000     0.00000000  0.34D-20  0.15D-20  6  1   232.30

 Norm of t1 vector:      0.10830170      S-energy:     0.00000000      T1 diagnostic:  0.01181668
                                                                       D1 diagnostic:  0.03167536

 Doubles amplitudes (print threshold =  0.500E-01):

         I         J         SYM. A    SYM. B    A         B      T(IJ, AB)

        20        20         1         1         1         1     -0.08679772
        21        20         1         1         1         2      0.05130407
        21        21         1         1         2         2     -0.08401376


 Total CPU time for triples:    135.75 sec


 RESULTS
 =======

  Reference energy                   -428.433562139984
  CCSD singlet pair energy             -0.756729442068
  CCSD triplet pair energy             -0.415490893906
  CCSD correlation energy              -1.172220335973

  Triples (T) contribution             -0.043067551393
  Total correlation energy             -1.215287887366

  CCSD total energy                  -429.605782475956
  CCSD[T] energy                     -429.650850661121
  CCSD-T energy                      -429.648125445029
 !CCSD(T) total energy               -429.648850027350

 Timing summary (sec):

 STEP                 CPU(USER)    SYS     CPU(TOT)    WALL
 Transformation          2.17      0.21      2.38      2.39
 CCSD iterations       230.13      3.40    233.53    233.61
 Triples               135.75      2.67    138.42    138.44

 Program statistics:

 Available memory in ccsd:               999998136
 Min. memory needed in ccsd:               6063316
 Max. memory used in ccsd:                 8147482
 Max. memory used in cckext:               8418193 (25 integral passes)



 **********************************************************************************************************************************
 DATASETS  * FILE   NREC   LENGTH (MB)   RECORD NAMES
              1      20      384.60       500      610      700      900      950      970     1000      129      960     1100   
                                          VAR    BASINP    GEOM    SYMINP    ZMAT    AOBASIS   BASIS     P2S    ABASIS      S 
                                         1400     1410     1200     1210     1080     1600     1650     1300     1700     1380   
                                           T        V       H0       H01     AOSYM     SMH    MOLCAS    ERIS     OPER     JKOP   

              2       3        0.82       700     1000     2100   
                                         GEOM     BASIS     RHF  

 PROGRAMS   *        TOTAL   CCSD(T)       RHF       INT
 CPU TIMES  *       378.11    368.08      6.50      3.49
 REAL TIME  *       385.67 SEC
 DISK USED  *         1.05 GB      
 GA USED    *         0.00 MB       (max)       0.00 MB       (current)
 **********************************************************************************************************************************

        CCSD(T)         RHF-SCF 
   -429.64885003   -428.43356214
 **********************************************************************************************************************************
 Variable memory released
