
 Primary working directories    : /tmp/985636.1779.gen6.q
 Secondary working directories  : /tmp/985636.1779.gen6.q
 Wavefunction directory         : /home/vulcan/jj04645/wfu/
 Main file repository           : /tmp/985636.1779.gen6.q/

 ARCHNAME  : Linux/x86_64
 FC        : /opt/intel/compilers_and_libraries_2016.1.150/linux/bin/intel64/ifort
 FCVERSION : 16.0.1
 BLASLIB   : -mkl
 id        : ccgc

 Nodes     nprocs
 n088         1
 ga_uses_ma=false, calling ma_init with nominal heap.
 GA-space will be limited to   8.0 MW (determined by -G option)

 Using customized tuning parameters: mindgm=10; mindgv=16; mindgc=4; mindgr=1; noblas=0; mincuda=1000; minvec=7
 default implementation of scratch files=df  

 ***,Optimization of tetrahydrothiopyran
 memory,1000,m
 gthresh,energy=1.0d-12,orbital=1.0d-10,oneint=1.0d-16,twoint=1.0d-16,optgrad=1.0d-6,compress=1.0d-13
 geomtyp=xyz
 
 bohr
 geometry = {
  S    0.3515154508    2.6995733806    0.0000000000
  C   -0.3293638679   -3.3657124923   -0.0000000000
  C   -0.6632345327    0.6685478367   -2.5812259635
  C   -0.6632345327    0.6685478367    2.5812259635
  C    0.4722167968   -1.9817671233   -2.4139027185
  C    0.4722167968   -1.9817671233    2.4139027185
  H   -2.7294554671    0.5698126744   -2.5850519651
  H   -2.7294554671    0.5698126744    2.5850519651
  H   -0.0743232982    1.6238540685   -4.3116043750
  H   -0.0743232982    1.6238540685    4.3116043750
  H    2.5348360770   -1.8430316614   -2.4763359520
  H    2.5348360770   -1.8430316614    2.4763359520
  H   -0.1279418208   -3.0678142905   -4.0700112403
  H   -0.1279418208   -3.0678142905    4.0700112403
  H    0.4666771217   -5.2722433893   -0.0000000000
  H   -2.3917592312   -3.5806419248   -0.0000000000
 }
 
 basis=VDZ
 {rhf;maxit,200}
 {ccsd(t);maxit,200}

 Variables initialized (661), CPU time= 0.00 sec
 Commands  initialized (458), CPU time= 0.01 sec, 486 directives.
 Default parameters read. Elapsed time= 0.04 sec

 Checking input...
 Passed
1


                                         ***  PROGRAM SYSTEM MOLPRO  ***
                         Copyright, University College Cardiff Consultants Limited, 2008

                                    Version 2010.1 linked May 16 2016 07:17:05


 **********************************************************************************************************************************
 LABEL *   Optimization of tetrahydrothiopyran                                           
 Linux-4.4.3/n088(x86_64) 64 bit mpp version                                             DATE: 26-Jan-24          TIME: 19:44:15  
 **********************************************************************************************************************************

 SHA1:             9e8077add272b0f3cad6f7df79ec5211205f459d
 **********************************************************************************************************************************

 THRESHOLDS:

 ZERO    =  1.00D-12  ONEINT  =  1.00D-16  TWOINT  =  1.00D-16  PREFAC  =  1.00D-14  LOCALI  =  1.00D-09  EORDER  =  1.00D-04
 ENERGY  =  1.00D-12  ETEST   =  0.00D+00  EDENS   =  0.00D+00  THRDEDEF=  1.00D-06  GRADIENT=  1.00D-02  STEP    =  1.00D-03
 ORBITAL =  1.00D-10  CIVEC   =  1.00D-05  COEFF   =  1.00D-04  PRINTCI =  5.00D-02  PUNCHCI =  9.90D+01  OPTGRAD =  1.00D-06
 OPTENERG=  1.00D-06  OPTSTEP =  3.00D-04  THRGRAD =  1.00D-10  COMPRESS=  1.00D-13  VARMIN  =  1.00D-07  VARMAX  =  1.00D-03
 THRDOUB =  0.00D+00  THRDIV  =  1.00D-05  THRRED  =  1.00D-07  THRPSP  =  1.00D+00  THRDC   =  1.00D-10  THRCS   =  1.00D-10
 THRNRM  =  1.00D-08  THREQ   =  0.00D+00  THRDE   =  1.00D+00  THRREF  =  1.00D-05  SPARFAC =  1.00D+00  THRDLP  =  1.00D-07
 THRDIA  =  1.00D-10  THRDLS  =  1.00D-07  THRGPS  =  0.00D+00  THRKEX  =  0.00D+00  THRDIS  =  2.00D-01  THRVAR  =  1.00D-10
 THRLOC  =  1.00D-06  THRGAP  =  1.00D-06  THRLOCT = -1.00D+00  THRGAPT = -1.00D+00  THRORB  =  1.00D-06  THRMLTP =  0.00D+00
 THRCPQCI=  1.00D-10  KEXTA   =  0.00D+00  THRCOARS=  0.00D+00  SYMTOL  =  1.00D-06  GRADTOL =  1.00D-06  THROVL  =  1.00D-08
 THRORTH =  1.00D-08  GRID    =  1.00D-06  GRIDMAX =  1.00D-03  DTMAX   =  0.00D+00

 SETTING GEOMTYP        =    XYZ
 ZUNIT=BOHR
 

 Variable memory set to 1000000000 words,  buffer space   230000 words

 SETTING BASIS          =    VDZ


 Recomputing integrals since basis changed


 Using spherical harmonics

 Library entry S      S cc-pVDZ              selected for orbital group  1
 Library entry S      P cc-pVDZ              selected for orbital group  1
 Library entry S      D cc-pVDZ              selected for orbital group  1
 Library entry C      S cc-pVDZ              selected for orbital group  2
 Library entry C      P cc-pVDZ              selected for orbital group  2
 Library entry C      D cc-pVDZ              selected for orbital group  2
 Library entry H      S cc-pVDZ              selected for orbital group  3
 Library entry H      P cc-pVDZ              selected for orbital group  3

1PROGRAM * SEWARD (Integral evaluation for generally contracted gaussian basis sets)     Author: Roland Lindh, 1990

 Geometry written to block  1 of record 700


 Point group  Cs  



 ATOMIC COORDINATES

 NR  ATOM    CHARGE       X              Y              Z

   1  S      16.00    0.351515451    2.699573381    0.000000000
   2  C       6.00   -0.329363868   -3.365712492    0.000000000
   3  C       6.00   -0.663234533    0.668547837   -2.581225964
   4  C       6.00   -0.663234533    0.668547837    2.581225964
   5  C       6.00    0.472216797   -1.981767123   -2.413902719
   6  C       6.00    0.472216797   -1.981767123    2.413902719
   7  H       1.00   -2.729455467    0.569812674   -2.585051965
   8  H       1.00   -2.729455467    0.569812674    2.585051965
   9  H       1.00   -0.074323298    1.623854069   -4.311604375
  10  H       1.00   -0.074323298    1.623854069    4.311604375
  11  H       1.00    2.534836077   -1.843031661   -2.476335952
  12  H       1.00    2.534836077   -1.843031661    2.476335952
  13  H       1.00   -0.127941821   -3.067814290   -4.070011240
  14  H       1.00   -0.127941821   -3.067814290    4.070011240
  15  H       1.00    0.466677122   -5.272243389    0.000000000
  16  H       1.00   -2.391759231   -3.580641925    0.000000000

 Bond lengths in Bohr (Angstrom)

  1- 3  3.437660507   1- 4  3.437660507   2- 5  2.895645469   2- 6  2.895645469   2-15  2.066044849
       ( 1.819131593)       ( 1.819131593)       ( 1.532309587)       ( 1.532309587)       ( 1.093303847)

  2-16  2.073564394   3- 5  2.888150996   3- 7  2.068582176   3- 9  2.062434456   4- 6  2.888150996
       ( 1.097283019)       ( 1.528343683)       ( 1.094646543)       ( 1.091393309)       ( 1.528343683)

  4- 8  2.068582176   4-10  2.062434456   5-11  2.068222360   5-13  2.069392242   6-12  2.068222360
       ( 1.094646543)       ( 1.091393309)       ( 1.094456136)       ( 1.095075211)       ( 1.094456136)

  6-14  2.069392242
       ( 1.095075211)

 Bond angles

  1-3-5  112.49558551   1-3-7  108.93154215   1-3-9  105.78484501   1-4-6  112.49558551

  1- 4- 8  108.93154215   1- 4-10  105.78484501   2- 5- 3  112.21281400   2- 5-11  109.46905130

  2- 5-13  109.63530143   2- 6- 4  112.21281400   2- 6-12  109.46905130   2- 6-14  109.63530143

  3- 1- 4   97.33107866   3- 5-11  109.19423922   3- 5-13  108.73641345   4- 6-12  109.19423922

  4- 6-14  108.73641345   5- 2- 6  112.94732014   5- 2-15  109.53488134   5- 2-16  108.95777497

  5- 3- 7  110.42612601   5- 3- 9  111.18611356   6- 2-15  109.53488134   6- 2-16  108.95777497

  6- 4- 8  110.42612601   6- 4-10  111.18611356   7- 3- 9  107.80465604   8- 4-10  107.80465604

 11- 5-13  107.47425853  12- 6-14  107.47425853  15- 2-16  106.71266544

 NUCLEAR CHARGE:                   56
 NUMBER OF PRIMITIVE AOS:         247
 NUMBER OF SYMMETRY AOS:          241
 NUMBER OF CONTRACTIONS:          138   (  79A'  +  59A"  )
 NUMBER OF CORE ORBITALS:          10   (   7A'  +   3A"  )
 NUMBER OF VALENCE ORBITALS:       34   (  20A'  +  14A"  )


 NUCLEAR REPULSION ENERGY  312.12595237


 Eigenvalues of metric

         1 0.305E-02 0.426E-02 0.634E-02 0.157E-01 0.197E-01 0.238E-01 0.284E-01 0.342E-01
         2 0.286E-02 0.705E-02 0.151E-01 0.196E-01 0.220E-01 0.343E-01 0.352E-01 0.358E-01


 Contracted 2-electron integrals neglected if value below      1.0D-16
 AO integral compression algorithm  1   Integral accuracy      1.0D-16

     207.094 MB (compressed) written to integral file ( 97.6%)

     Node minimum: 207.094 MB, node maximum: 207.094 MB


 NUMBER OF SORTED TWO-ELECTRON INTEGRALS:   23341315.     BUFFER LENGTH:  32768
 NUMBER OF SEGMENTS:   2  SEGMENT LENGTH:   15994315      RECORD LENGTH: 524288

 Memory used in sort:      16.55 MW

 SORT1 READ    26508670. AND WROTE    23262024. INTEGRALS IN     68 RECORDS. CPU TIME:     0.29 SEC, REAL TIME:     0.43 SEC
 SORT2 READ    23262024. AND WROTE    23341315. INTEGRALS IN    790 RECORDS. CPU TIME:     0.24 SEC, REAL TIME:     0.33 SEC

 FILE SIZES:   FILE 1:   187.9 MBYTE,  FILE 4:   285.2 MBYTE,   TOTAL:    473.2 MBYTE

 OPERATOR DM      FOR CENTER  0  COORDINATES:    0.000000    0.000000    0.000000


 **********************************************************************************************************************************
 DATASETS  * FILE   NREC   LENGTH (MB)   RECORD NAMES
              1      19      188.04       500      610      700      900      950      970     1000      129      960     1100   
                                          VAR    BASINP    GEOM    SYMINP    ZMAT    AOBASIS   BASIS     P2S    ABASIS      S 
                                         1400     1410     1200     1210     1080     1600     1650     1300     1700   
                                           T        V       H0       H01     AOSYM     SMH    MOLCAS    ERIS     OPER   

 PROGRAMS   *        TOTAL       INT
 CPU TIMES  *         3.04      3.00
 REAL TIME  *         3.58 SEC
 DISK USED  *       681.26 MB      
 GA USED    *         0.00 MB       (max)       0.00 MB       (current)
 **********************************************************************************************************************************

1PROGRAM * RHF-SCF (CLOSED SHELL)       Authors: W. Meyer, H.-J. Werner


 NUMBER OF ELECTRONS:      28+   28-
 CONVERGENCE THRESHOLDS:    1.00E-10 (Density)    1.00E-13 (Energy)
 MAX. NUMBER OF ITERATIONS:      200
 INTERPOLATION TYPE:            DIIS
 INTERPOLATION STEPS:              2 (START)      1 (STEP)
 LEVEL SHIFTS:                  0.00 (CLOSED)  0.00 (OPEN) 



 Orbital guess generated from atomic densities. Full valence occupancy:   27  17

 Molecular orbital dump at record        2100.2

 Initial alpha occupancy:  18  10
 Initial beta  occupancy:  18  10
 Wave function symmetry:    1

 ITERATION    DDIFF          GRAD             ENERGY        2-EL.EN.            DIPOLE MOMENTS         DIIS
    1      0.000D+00      0.000D+00      -592.64388415   1056.823311   -0.40811   -0.80574    0.00000    0
    2      0.000D+00      0.552D-02      -592.70491501   1054.235042   -0.20752   -0.73946    0.00000    1
    3      0.109D-01      0.185D-02      -592.71085161   1055.671458   -0.28035   -0.67728    0.00000    2
    4      0.375D-02      0.753D-03      -592.71186083   1055.052763   -0.25293   -0.71021    0.00000    3
    5      0.130D-02      0.108D-03      -592.71188654   1055.115626   -0.24904   -0.70173    0.00000    4
    6      0.252D-03      0.372D-04      -592.71188906   1055.084775   -0.25077   -0.70201    0.00000    5
    7      0.703D-04      0.864D-05      -592.71188927   1055.087950   -0.25010   -0.70190    0.00000    6
    8      0.230D-04      0.242D-05      -592.71188929   1055.087087   -0.25008   -0.70176    0.00000    7
    9      0.752D-05      0.631D-06      -592.71188929   1055.086971   -0.25007   -0.70172    0.00000    7
   10      0.177D-05      0.226D-06      -592.71188929   1055.087009   -0.25006   -0.70172    0.00000    7
   11      0.670D-06      0.479D-07      -592.71188929   1055.086994   -0.25006   -0.70172    0.00000    7
   12      0.159D-06      0.961D-08      -592.71188929   1055.087000   -0.25006   -0.70171    0.00000    7
   13      0.255D-07      0.401D-08      -592.71188929   1055.086997   -0.25006   -0.70171    0.00000    7
   14      0.884D-08      0.118D-08      -592.71188929   1055.086998   -0.25006   -0.70171    0.00000    7
   15      0.316D-08      0.382D-09      -592.71188929   1055.086998   -0.25006   -0.70171    0.00000    7
   16      0.919D-09      0.118D-09      -592.71188929   1055.086998   -0.25006   -0.70171    0.00000    8
   17      0.283D-09      0.253D-10      -592.71188929   1055.086998   -0.25006   -0.70171    0.00000    7
   18      0.670D-10      0.740D-11      -592.71188929   1055.086998   -0.25006   -0.70171    0.00000    7
   19      0.231D-10      0.243D-11      -592.71188929   1055.086998   -0.25006   -0.70171    0.00000    8
   20      0.671D-11      0.708D-12      -592.71188929   1055.086998   -0.25006   -0.70171    0.00000    7
   21      0.209D-11      0.235D-12      -592.71188929   1055.086998   -0.25006   -0.70171    0.00000    7
   22      0.778D-12      0.883D-13      -592.71188929   1055.086998   -0.25006   -0.70171    0.00000    8
   23      0.300D-12      0.554D-13      -592.71188929   1055.086998   -0.25006   -0.70171    0.00000    8
   24      0.194D-12      0.316D-13      -592.71188929   1055.086998   -0.25006   -0.70171    0.00000    0

 Final occupancy:  18  10

 !RHF STATE 1.1 Energy               -592.711889291323
 Nuclear energy                       312.12595237
 One-electron energy                -1432.38134047
 Two-electron energy                  527.54349880
 Virial quotient                       -1.00019584
 !RHF STATE 1.1 Dipole moment          -0.25006082    -0.70171465     0.00000000
 Dipole moment /Debye                  -0.63554957    -1.78346393     0.00000000

 Orbital energies:

         1.1          2.1          3.1          4.1          5.1          6.1          7.1          8.1          9.1         10.1
    -91.929674   -11.254985   -11.231092   -11.229115    -8.933567    -6.614030    -6.611829    -1.119566    -1.006484    -0.835866

        11.1         12.1         13.1         14.1         15.1         16.1         17.1         18.1         19.1         20.1
     -0.755689    -0.646675    -0.609886    -0.578526    -0.495564    -0.472844    -0.411512    -0.328604     0.176899     0.201102

         1.2          2.2          3.2          4.2          5.2          6.2          7.2          8.2          9.2         10.2
    -11.254999   -11.231013    -6.615462    -1.019982    -0.842404    -0.614241    -0.546871    -0.523941    -0.497876    -0.434873

        11.2         12.2
      0.190380     0.223077


 **********************************************************************************************************************************
 DATASETS  * FILE   NREC   LENGTH (MB)   RECORD NAMES
              1      19      188.04       500      610      700      900      950      970     1000      129      960     1100   
                                          VAR    BASINP    GEOM    SYMINP    ZMAT    AOBASIS   BASIS     P2S    ABASIS      S 
                                         1400     1410     1200     1210     1080     1600     1650     1300     1700   
                                           T        V       H0       H01     AOSYM     SMH    MOLCAS    ERIS     OPER   

              2       3        0.73       700     1000     2100   
                                         GEOM     BASIS     RHF  

 PROGRAMS   *        TOTAL       RHF       INT
 CPU TIMES  *         5.35      2.31      3.00
 REAL TIME  *         6.36 SEC
 DISK USED  *       681.26 MB      
 GA USED    *         0.00 MB       (max)       0.00 MB       (current)
 **********************************************************************************************************************************


1PROGRAM * CCSD (Closed-shell coupled cluster)     Authors: C. Hampel, H.-J. Werner, 1991, M. Deegan, P.J. Knowles, 1992


 Convergence thresholds:  THRVAR = 1.00D-08  THRDEN = 1.00D-12

 CCSD(T)     terms to be evaluated (factor= 1.000)


 Number of core orbitals:          10 (   7   3 )
 Number of closed-shell orbitals:  18 (  11   7 )
 Number of external orbitals:     110 (  61  49 )

 Molecular orbitals read from record     2100.2  Type=RHF/CANONICAL (state 1.1)

 Number of N-1 electron functions:              18
 Number of N-2 electron functions:             171
 Number of singly external CSFs:              1014
 Number of doubly external CSFs:            981666
 Total number of CSFs:                      982681

 Length of J-op  integral file:               0.00 MB
 Length of K-op  integral file:               0.70 MB
 Length of 3-ext integral record:             0.00 MB

 Memory could be reduced to 16.31 Mwords without degradation in triples

 Integral transformation finished. Total CPU:   0.74 sec, npass=  1  Memory used:  10.63 MW

 Reference energy:                   -592.71188929

 MP2 singlet pair energy:              -0.53945906
 MP2 triplet pair energy:              -0.30436054
 MP2 correlation energy:               -0.84381960
 MP2 total energy:                   -593.55570889

 SCS-MP2 correlation energy:           -0.83673076   (PS=  1.200000  PT=  0.333333)
 SCS-MP2 total energy:               -593.54862006

 ITER.      SQ.NORM     CORR.ENERGY   TOTAL ENERGY   ENERGY CHANGE        DEN1      VAR(S)    VAR(P)  DIIS     TIME
   1      1.33970377    -0.91079797  -593.62268726    -0.06697837    -0.04301958  0.26D-02  0.55D-02  1  1     2.35
   2      1.36669995    -0.91614566  -593.62803495    -0.00534769    -0.02577728  0.69D-04  0.46D-03  2  2     4.00
   3      1.37203355    -0.91627356  -593.62816285    -0.00012789    -0.00303792  0.16D-04  0.28D-04  3  3     5.65
   4      1.37352670    -0.91633161  -593.62822090    -0.00005805    -0.00059397  0.76D-06  0.20D-05  4  4     7.30
   5      1.37376732    -0.91633822  -593.62822751    -0.00000661    -0.00007085  0.17D-06  0.16D-06  5  5     8.96
   6      1.37381296    -0.91633377  -593.62822306     0.00000445    -0.00001393  0.30D-07  0.14D-07  6  6    10.61
   7      1.37382054    -0.91633366  -593.62822295     0.00000011     0.00000064  0.53D-08  0.23D-08  6  2    12.26
   8      1.37382661    -0.91633335  -593.62822264     0.00000031    -0.00000125  0.73D-09  0.27D-09  6  1    13.92
   9      1.37382744    -0.91633329  -593.62822258     0.00000006     0.00000050  0.66D-10  0.44D-10  6  4    15.58
  10      1.37382832    -0.91633325  -593.62822254     0.00000003    -0.00000011  0.48D-11  0.35D-11  6  3    17.23
  11      1.37382833    -0.91633325  -593.62822254    -0.00000000     0.00000004  0.12D-11  0.54D-12  6  5    18.89
  12      1.37382830    -0.91633326  -593.62822255    -0.00000000     0.00000002  0.17D-12  0.77D-13  6  6    20.55
  13      1.37382825    -0.91633326  -593.62822255    -0.00000000     0.00000002  0.24D-13  0.11D-13  6  1    22.21
  14      1.37382824    -0.91633326  -593.62822255    -0.00000000     0.00000000  0.31D-14  0.12D-14  6  2    23.88
  15      1.37382824    -0.91633326  -593.62822255     0.00000000    -0.00000000  0.67D-15  0.31D-15  6  4    25.53
  16      1.37382824    -0.91633326  -593.62822255     0.00000000    -0.00000000  0.32D-16  0.23D-16  6  5    27.20
  17      1.37382824    -0.91633326  -593.62822255     0.00000000    -0.00000000  0.57D-17  0.24D-17  6  3    28.86
  18      1.37382824    -0.91633326  -593.62822255     0.00000000    -0.00000000  0.18D-17  0.49D-18  6  6    30.52
  19      1.37382824    -0.91633326  -593.62822255     0.00000000    -0.00000000  0.38D-18  0.12D-18  6  1    32.18
  20      1.37382824    -0.91633326  -593.62822255     0.00000000     0.00000000  0.46D-19  0.17D-19  6  2    33.84
  21      1.37382824    -0.91633326  -593.62822255    -0.00000000     0.00000000  0.83D-20  0.35D-20  6  4    35.50

 Norm of t1 vector:      0.07014615      S-energy:    -0.00000000      T1 diagnostic:  0.00826680
                                                                       D1 diagnostic:  0.02108022


 Total CPU time for triples:     31.92 sec


 RESULTS
 =======

  Reference energy                   -592.711889291321
  CCSD singlet pair energy             -0.634215648960
  CCSD triplet pair energy             -0.282117608678
  CCSD correlation energy              -0.916333257638

  Triples (T) contribution             -0.029867289529
  Total correlation energy             -0.946200547167

  CCSD total energy                  -593.628222548959
  CCSD[T] energy                     -593.658709263533
  CCSD-T energy                      -593.657778610558
 !CCSD(T) total energy               -593.658089838488

 Timing summary (sec):

 STEP                 CPU(USER)    SYS     CPU(TOT)    WALL
 Transformation          0.77      0.13      0.90      0.89
 CCSD iterations        34.73      1.27     36.00     36.09
 Triples                31.92      0.95     32.87     32.88

 Program statistics:

 Available memory in ccsd:               999998604
 Min. memory needed in ccsd:               2548392
 Max. memory used in ccsd:                 3412984
 Max. memory used in cckext:               3730705 (21 integral passes)



 **********************************************************************************************************************************
 DATASETS  * FILE   NREC   LENGTH (MB)   RECORD NAMES
              1      20      256.21       500      610      700      900      950      970     1000      129      960     1100   
                                          VAR    BASINP    GEOM    SYMINP    ZMAT    AOBASIS   BASIS     P2S    ABASIS      S 
                                         1400     1410     1200     1210     1080     1600     1650     1300     1700     1380   
                                           T        V       H0       H01     AOSYM     SMH    MOLCAS    ERIS     OPER     JKOP   

              2       3        0.73       700     1000     2100   
                                         GEOM     BASIS     RHF  

 PROGRAMS   *        TOTAL   CCSD(T)       RHF       INT
 CPU TIMES  *        72.78     67.43      2.31      3.00
 REAL TIME  *        76.26 SEC
 DISK USED  *       681.26 MB      
 GA USED    *         0.00 MB       (max)       0.00 MB       (current)
 **********************************************************************************************************************************

        CCSD(T)         RHF-SCF 
   -593.65808984   -592.71188929
 **********************************************************************************************************************************
 Variable memory released
