
 Primary working directories    : /tmp/1049502.452.gen4.q
 Secondary working directories  : /tmp/1049502.452.gen4.q
 Wavefunction directory         : /home/vulcan/jj04645/wfu/
 Main file repository           : /tmp/1049502.452.gen4.q/

 ARCHNAME  : Linux/x86_64
 FC        : /opt/intel/compilers_and_libraries_2016.1.150/linux/bin/intel64/ifort
 FCVERSION : 16.0.1
 BLASLIB   : -mkl
 id        : ccgc

 Nodes     nprocs
 n065         1
 ga_uses_ma=false, calling ma_init with nominal heap.
 GA-space will be limited to   8.0 MW (determined by -G option)

 Using customized tuning parameters: mindgm=10; mindgv=16; mindgc=4; mindgr=1; noblas=0; mincuda=1000; minvec=7
 default implementation of scratch files=df  

 ***,Optimization of neopentane
 memory,1000,m
 gthresh,energy=1.0d-12,orbital=1.0d-10,oneint=1.0d-16,twoint=1.0d-16,optgrad=1.0d-6,compress=1.0d-13
 geomtyp=xyz
 
 bohr
 geometry = {
  C   -0.0002961858    0.0002962834   -0.0009520661
  C    2.3651456415   -0.0001094372   -1.6735720577
  C   -0.0007019065   -2.3651455536    1.6716679118
  C    0.0001095445    2.3657381108    1.6716679255
  C   -2.3657380229    0.0007020138   -1.6735720439
  H    2.4089059629    1.6750830555   -2.8888573435
  H   -1.6759092975   -2.4083312183    2.8869532176
  H    1.6706446869    2.4088033172    2.8835637011
  H   -2.4093763049   -1.6698182424   -2.8854678393
  H    4.0867539880   -0.0004046976   -0.5177962353
  H   -0.0009962144   -4.0808830891    0.5198333554
  H    0.0004030417    4.0766821613    0.5230514174
  H   -4.0825528710    0.0009964645   -0.5210142499
  H    2.4082575515   -1.6724556407   -2.8867817514
  H    1.6773517036   -2.4089806335    2.8890288706
  H   -1.6732718292    2.4094511370    2.8856393941
  H   -2.4087294885    1.6683759689   -2.8833922065
 }
 
 basis=VDZ
 {rhf;maxit,200}
 {ccsd(t);maxit,200}

 Variables initialized (661), CPU time= 0.00 sec
 Commands  initialized (458), CPU time= 0.00 sec, 486 directives.
 Default parameters read. Elapsed time= 0.05 sec

 Checking input...
 Passed
1


                                         ***  PROGRAM SYSTEM MOLPRO  ***
                         Copyright, University College Cardiff Consultants Limited, 2008

                                    Version 2010.1 linked May 16 2016 07:17:05


 **********************************************************************************************************************************
 LABEL *   Optimization of neopentane                                                    
 Linux-4.4.3/n065(x86_64) 64 bit mpp version                                             DATE: 30-Mar-24          TIME: 20:21:07  
 **********************************************************************************************************************************

 SHA1:             9e8077add272b0f3cad6f7df79ec5211205f459d
 **********************************************************************************************************************************

 THRESHOLDS:

 ZERO    =  1.00D-12  ONEINT  =  1.00D-16  TWOINT  =  1.00D-16  PREFAC  =  1.00D-14  LOCALI  =  1.00D-09  EORDER  =  1.00D-04
 ENERGY  =  1.00D-12  ETEST   =  0.00D+00  EDENS   =  0.00D+00  THRDEDEF=  1.00D-06  GRADIENT=  1.00D-02  STEP    =  1.00D-03
 ORBITAL =  1.00D-10  CIVEC   =  1.00D-05  COEFF   =  1.00D-04  PRINTCI =  5.00D-02  PUNCHCI =  9.90D+01  OPTGRAD =  1.00D-06
 OPTENERG=  1.00D-06  OPTSTEP =  3.00D-04  THRGRAD =  1.00D-10  COMPRESS=  1.00D-13  VARMIN  =  1.00D-07  VARMAX  =  1.00D-03
 THRDOUB =  0.00D+00  THRDIV  =  1.00D-05  THRRED  =  1.00D-07  THRPSP  =  1.00D+00  THRDC   =  1.00D-10  THRCS   =  1.00D-10
 THRNRM  =  1.00D-08  THREQ   =  0.00D+00  THRDE   =  1.00D+00  THRREF  =  1.00D-05  SPARFAC =  1.00D+00  THRDLP  =  1.00D-07
 THRDIA  =  1.00D-10  THRDLS  =  1.00D-07  THRGPS  =  0.00D+00  THRKEX  =  0.00D+00  THRDIS  =  2.00D-01  THRVAR  =  1.00D-10
 THRLOC  =  1.00D-06  THRGAP  =  1.00D-06  THRLOCT = -1.00D+00  THRGAPT = -1.00D+00  THRORB  =  1.00D-06  THRMLTP =  0.00D+00
 THRCPQCI=  1.00D-10  KEXTA   =  0.00D+00  THRCOARS=  0.00D+00  SYMTOL  =  1.00D-06  GRADTOL =  1.00D-06  THROVL  =  1.00D-08
 THRORTH =  1.00D-08  GRID    =  1.00D-06  GRIDMAX =  1.00D-03  DTMAX   =  0.00D+00

 SETTING GEOMTYP        =    XYZ
 ZUNIT=BOHR
 

 Variable memory set to 1000000000 words,  buffer space   230000 words

 SETTING BASIS          =    VDZ


 Recomputing integrals since basis changed


 Using spherical harmonics

 Library entry C      S cc-pVDZ              selected for orbital group  1
 Library entry C      P cc-pVDZ              selected for orbital group  1
 Library entry C      D cc-pVDZ              selected for orbital group  1
 Library entry H      S cc-pVDZ              selected for orbital group  2
 Library entry H      P cc-pVDZ              selected for orbital group  2

1PROGRAM * SEWARD (Integral evaluation for generally contracted gaussian basis sets)     Author: Roland Lindh, 1990

 Geometry written to block  1 of record 700


 Point group  C1  



 ATOMIC COORDINATES

 NR  ATOM    CHARGE       X              Y              Z

   1  C       6.00   -0.000296186    0.000296283   -0.000952066
   2  C       6.00    2.365145641   -0.000109437   -1.673572058
   3  C       6.00   -0.000701907   -2.365145554    1.671667912
   4  C       6.00    0.000109545    2.365738111    1.671667925
   5  C       6.00   -2.365738023    0.000702014   -1.673572044
   6  H       1.00    2.408905963    1.675083056   -2.888857343
   7  H       1.00   -1.675909298   -2.408331218    2.886953218
   8  H       1.00    1.670644687    2.408803317    2.883563701
   9  H       1.00   -2.409376305   -1.669818242   -2.885467839
  10  H       1.00    4.086753988   -0.000404698   -0.517796235
  11  H       1.00   -0.000996214   -4.080883089    0.519833355
  12  H       1.00    0.000403042    4.076682161    0.523051417
  13  H       1.00   -4.082552871    0.000996465   -0.521014250
  14  H       1.00    2.408257552   -1.672455641   -2.886781751
  15  H       1.00    1.677351704   -2.408980634    2.889028871
  16  H       1.00   -1.673271829    2.409451137    2.885639394
  17  H       1.00   -2.408729489    1.668375969   -2.883392206

 Bond lengths in Bohr (Angstrom)

 1-2  2.897062795  1-3  2.897062795  1-4  2.897062795  1-5  2.897062795  2-6  2.070049077
     ( 1.533059604)     ( 1.533059604)     ( 1.533059604)     ( 1.533059604)     ( 1.095422793)

  2-10  2.073584611   2-14  2.066513543   3- 7  2.070049076   3-11  2.066513543   3-15  2.073584610
       ( 1.097293717)       ( 1.093551869)       ( 1.095422793)       ( 1.093551869)       ( 1.097293717)

  4- 8  2.064275574   4-12  2.060740040   4-16  2.067811108   5- 9  2.064275574   5-13  2.067811108
       ( 1.092367587)       ( 1.090496663)       ( 1.094238511)       ( 1.092367587)       ( 1.094238511)

  5-17  2.060740040
       ( 1.090496663)

 Bond angles

  1- 2- 6  110.86076817   1- 2-10  110.86076891   1- 2-14  110.86076923   1- 3- 7  110.86076844

  1- 3-11  110.86076891   1- 3-15  110.86076895   1- 4- 8  110.86076817   1- 4-12  110.86076891

  1- 4-16  110.86076922   1- 5- 9  110.86076844   1- 5-13  110.86076891   1- 5-17  110.86076895

  2-1-3  109.47122064   2-1-4  109.47122064   2-1-5  109.47122063   3-1-4  109.47122063

  3- 1- 5  109.47122064   4- 1- 5  109.47122063   6- 2-10  108.04663786   6- 2-14  108.04663848

  7- 3-11  108.04663839   7- 3-15  108.04663848   8- 4-12  108.04663788   8- 4-16  108.04663848

  9- 5-13  108.04663839   9- 5-17  108.04663849  10- 2-14  108.04663990  11- 3-15  108.04663937

 12- 4-16  108.04663988  13- 5-17  108.04663937

 NUCLEAR CHARGE:                   42
 NUMBER OF PRIMITIVE AOS:         219
 NUMBER OF SYMMETRY AOS:          214
 NUMBER OF CONTRACTIONS:          130   ( 130A   )
 NUMBER OF CORE ORBITALS:           5   (   5A   )
 NUMBER OF VALENCE ORBITALS:       32   (  32A   )


 NUCLEAR REPULSION ENERGY  198.59919647


 Eigenvalues of metric

         1 0.280E-02 0.503E-02 0.504E-02 0.504E-02 0.171E-01 0.189E-01 0.189E-01 0.189E-01


 Contracted 2-electron integrals neglected if value below      1.0D-16
 AO integral compression algorithm  1   Integral accuracy      1.0D-16

     302.252 MB (compressed) written to integral file ( 96.9%)

     Node minimum: 302.252 MB, node maximum: 302.252 MB


 NUMBER OF SORTED TWO-ELECTRON INTEGRALS:   36256870.     BUFFER LENGTH:  32768
 NUMBER OF SEGMENTS:   3  SEGMENT LENGTH:   15998004      RECORD LENGTH: 524288

 Memory used in sort:      16.56 MW

 SORT1 READ    38983212. AND WROTE    36201469. INTEGRALS IN    105 RECORDS. CPU TIME:     0.38 SEC, REAL TIME:     0.60 SEC
 SORT2 READ    36201469. AND WROTE    36256870. INTEGRALS IN   1153 RECORDS. CPU TIME:     0.29 SEC, REAL TIME:     0.45 SEC

 FILE SIZES:   FILE 1:   282.8 MBYTE,  FILE 4:   440.4 MBYTE,   TOTAL:    723.2 MBYTE

 OPERATOR DM      FOR CENTER  0  COORDINATES:    0.000000    0.000000    0.000000


 **********************************************************************************************************************************
 DATASETS  * FILE   NREC   LENGTH (MB)   RECORD NAMES
              1      19      283.00       500      610      700      900      950      970     1000      129      960     1100   
                                          VAR    BASINP    GEOM    SYMINP    ZMAT    AOBASIS   BASIS     P2S    ABASIS      S 
                                         1400     1410     1200     1210     1080     1600     1650     1300     1700   
                                           T        V       H0       H01     AOSYM     SMH    MOLCAS    ERIS     OPER   

 PROGRAMS   *        TOTAL       INT
 CPU TIMES  *         4.17      4.12
 REAL TIME  *         4.87 SEC
 DISK USED  *         1.03 GB      
 GA USED    *         0.01 MB       (max)       0.00 MB       (current)
 **********************************************************************************************************************************

1PROGRAM * RHF-SCF (CLOSED SHELL)       Authors: W. Meyer, H.-J. Werner


 NUMBER OF ELECTRONS:      21+   21-    SPACE SYMMETRY=1    SPIN SYMMETRY: Singlet 
 CONVERGENCE THRESHOLDS:    1.00E-10 (Density)    1.00E-13 (Energy)
 MAX. NUMBER OF ITERATIONS:      200
 INTERPOLATION TYPE:            DIIS
 INTERPOLATION STEPS:              2 (START)      1 (STEP)
 LEVEL SHIFTS:                  0.00 (CLOSED)  0.00 (OPEN) 



 Orbital guess generated from atomic densities. Full valence occupancy:   37

 Molecular orbital dump at record        2100.2

 ITERATION    DDIFF          GRAD             ENERGY        2-EL.EN.            DIPOLE MOMENTS         DIIS
    1      0.000D+00      0.000D+00      -196.27086893    527.677264    0.00156   -0.00157    0.00317    0
    2      0.000D+00      0.467D-02      -196.33872887    521.943790   -0.00154    0.00153   -0.00318    1
    3      0.930D-02      0.177D-02      -196.34651937    524.513859   -0.00114    0.00113   -0.00232    2
    4      0.346D-02      0.571D-03      -196.34766612    523.812530   -0.00149    0.00148   -0.00294    3
    5      0.114D-02      0.118D-03      -196.34770071    523.879050   -0.00156    0.00154   -0.00297    4
    6      0.198D-03      0.238D-04      -196.34770238    523.875290   -0.00157    0.00156   -0.00299    5
    7      0.659D-04      0.226D-05      -196.34770240    523.875056   -0.00158    0.00157   -0.00299    6
    8      0.684D-05      0.489D-06      -196.34770240    523.875014   -0.00158    0.00157   -0.00299    6
    9      0.138D-05      0.710D-07      -196.34770240    523.875006   -0.00159    0.00157   -0.00299    5
   10      0.244D-06      0.108D-07      -196.34770240    523.875015   -0.00159    0.00157   -0.00299    5
   11      0.332D-07      0.406D-08      -196.34770240    523.875012   -0.00159    0.00157   -0.00299    6
   12      0.752D-08      0.603D-09      -196.34770240    523.875012   -0.00159    0.00157   -0.00299    6
   13      0.148D-08      0.139D-09      -196.34770240    523.875012   -0.00159    0.00157   -0.00299    6
   14      0.338D-09      0.531D-10      -196.34770240    523.875012   -0.00159    0.00157   -0.00299    6
   15      0.147D-09      0.142D-10      -196.34770240    523.875012   -0.00159    0.00157   -0.00299    7
   16      0.406D-10      0.281D-11      -196.34770240    523.875012   -0.00159    0.00157   -0.00299    7
   17      0.611D-11      0.662D-12      -196.34770240    523.875012   -0.00159    0.00157   -0.00299    7
   18      0.152D-11      0.165D-12      -196.34770240    523.875012   -0.00159    0.00157   -0.00299    7
   19      0.455D-12      0.669D-13      -196.34770240    523.875012   -0.00159    0.00157   -0.00299    7
   20      0.262D-12      0.355D-13      -196.34770240    523.875012   -0.00159    0.00157   -0.00299    7
   21      0.154D-12      0.284D-13      -196.34770240    523.875012   -0.00159    0.00157   -0.00299    8
   22      0.827D-13      0.283D-13      -196.34770240    523.875012   -0.00159    0.00157   -0.00299    9
   23      0.586D-13      0.257D-13      -196.34770240    523.875012   -0.00159    0.00157   -0.00299    9
   24      0.474D-13      0.255D-13      -196.34770240    523.875012   -0.00159    0.00157   -0.00299    9
   25      0.303D-13      0.252D-13      -196.34770240    523.875012   -0.00159    0.00157   -0.00299    9
   26      0.209D-13      0.205D-13      -196.34770240    523.875012   -0.00159    0.00157   -0.00299    0

 Final occupancy:  21

 !RHF STATE 1.1 Energy               -196.347702404495
 Nuclear energy                       198.59919647
 One-electron energy                 -656.88440494
 Two-electron energy                  261.93750606
 Virial quotient                       -1.00118078
 !RHF STATE 1.1 Dipole moment          -0.00158604     0.00157010    -0.00298689
 Dipole moment /Debye                  -0.00403105     0.00399052    -0.00759143

 Orbital energies:

         1.1          2.1          3.1          4.1          5.1          6.1          7.1          8.1          9.1         10.1
    -11.230715   -11.214642   -11.214559   -11.213624   -11.213541    -1.103749    -0.928096    -0.927564    -0.927029    -0.728613

        11.1         12.1         13.1         14.1         15.1         16.1         17.1         18.1         19.1         20.1
     -0.609176    -0.609076    -0.608981    -0.550493    -0.550484    -0.508185    -0.507789    -0.507383    -0.450463    -0.450333

        21.1         22.1         23.1
     -0.450202     0.170675     0.231119


 **********************************************************************************************************************************
 DATASETS  * FILE   NREC   LENGTH (MB)   RECORD NAMES
              1      19      283.00       500      610      700      900      950      970     1000      129      960     1100   
                                          VAR    BASINP    GEOM    SYMINP    ZMAT    AOBASIS   BASIS     P2S    ABASIS      S 
                                         1400     1410     1200     1210     1080     1600     1650     1300     1700   
                                           T        V       H0       H01     AOSYM     SMH    MOLCAS    ERIS     OPER   

              2       3        0.89       700     1000     2100   
                                         GEOM     BASIS     RHF  

 PROGRAMS   *        TOTAL       RHF       INT
 CPU TIMES  *        11.18      7.01      4.12
 REAL TIME  *        12.75 SEC
 DISK USED  *         1.03 GB      
 GA USED    *         0.01 MB       (max)       0.00 MB       (current)
 **********************************************************************************************************************************


1PROGRAM * CCSD (Closed-shell coupled cluster)     Authors: C. Hampel, H.-J. Werner, 1991, M. Deegan, P.J. Knowles, 1992


 Convergence thresholds:  THRVAR = 1.00D-08  THRDEN = 1.00D-12

 CCSD(T)     terms to be evaluated (factor= 1.000)


 Number of core orbitals:           5 (   5 )
 Number of closed-shell orbitals:  16 (  16 )
 Number of external orbitals:     109 ( 109 )

 Molecular orbitals read from record     2100.2  Type=RHF/CANONICAL (state 1.1)

 Number of N-1 electron functions:              16
 Number of N-2 electron functions:             136
 Number of singly external CSFs:              1744
 Number of doubly external CSFs:           1521640
 Total number of CSFs:                     1523385

 Length of J-op  integral file:               0.00 MB
 Length of K-op  integral file:               1.20 MB
 Length of 3-ext integral record:             0.00 MB

 Memory could be reduced to 28.13 Mwords without degradation in triples

 Integral transformation finished. Total CPU:   1.88 sec, npass=  1  Memory used:  22.98 MW

 Reference energy:                   -196.34770240

 MP2 singlet pair energy:              -0.48845239
 MP2 triplet pair energy:              -0.25007706
 MP2 correlation energy:               -0.73852945
 MP2 total energy:                   -197.08623185

 SCS-MP2 correlation energy:           -0.74174637   (PS=  1.200000  PT=  0.333333)
 SCS-MP2 total energy:               -197.08944877

 ITER.      SQ.NORM     CORR.ENERGY   TOTAL ENERGY   ENERGY CHANGE        DEN1      VAR(S)    VAR(P)  DIIS     TIME
   1      1.28821643    -0.80655488  -197.15425728    -0.06802543    -0.04667775  0.17D-02  0.47D-02  1  1     6.93
   2      1.31153846    -0.81148826  -197.15919067    -0.00493339    -0.02354667  0.47D-04  0.32D-03  2  2    12.04
   3      1.31553888    -0.81163839  -197.15934079    -0.00015013    -0.00242579  0.53D-05  0.22D-04  3  3    17.17
   4      1.31658440    -0.81170054  -197.15940294    -0.00006215    -0.00046497  0.25D-06  0.12D-05  4  4    22.29
   5      1.31671016    -0.81170494  -197.15940734    -0.00000440    -0.00005111  0.14D-07  0.93D-07  5  5    27.42
   6      1.31672269    -0.81170252  -197.15940492     0.00000242    -0.00000851  0.68D-09  0.61D-08  6  6    32.57
   7      1.31672132    -0.81170279  -197.15940519    -0.00000027     0.00000058  0.16D-09  0.52D-09  6  1    37.69
   8      1.31672103    -0.81170294  -197.15940534    -0.00000015     0.00000028  0.78D-11  0.30D-10  6  2    42.83
   9      1.31672074    -0.81170298  -197.15940539    -0.00000005     0.00000025  0.11D-11  0.25D-11  6  3    47.97
  10      1.31672063    -0.81170299  -197.15940540    -0.00000001     0.00000009  0.90D-13  0.22D-12  6  4    53.10
  11      1.31672057    -0.81170299  -197.15940540    -0.00000000     0.00000004  0.95D-14  0.24D-13  6  5    58.21
  12      1.31672054    -0.81170300  -197.15940540    -0.00000000     0.00000002  0.91D-15  0.12D-14  6  1    63.35
  13      1.31672053    -0.81170300  -197.15940540    -0.00000000     0.00000000  0.79D-16  0.70D-16  6  6    68.47
  14      1.31672053    -0.81170300  -197.15940540    -0.00000000     0.00000000  0.15D-16  0.97D-17  6  2    73.61
  15      1.31672053    -0.81170300  -197.15940540    -0.00000000     0.00000000  0.13D-17  0.11D-17  6  3    78.75
  16      1.31672053    -0.81170300  -197.15940540     0.00000000    -0.00000000  0.70D-19  0.92D-19  6  4    83.88
  17      1.31672053    -0.81170300  -197.15940540     0.00000000    -0.00000000  0.34D-20  0.86D-20  6  5    89.01
  18      1.31672053    -0.81170300  -197.15940540     0.00000000    -0.00000000  0.40D-21  0.12D-20  6  1    94.14
  19      1.31672053    -0.81170300  -197.15940540     0.00000000    -0.00000000  0.32D-22  0.17D-21  6  6    99.28

 Norm of t1 vector:      0.05469847      S-energy:    -0.00000000      T1 diagnostic:  0.00683731
                                                                       D1 diagnostic:  0.01260715


 Total CPU time for triples:     80.92 sec


 RESULTS
 =======

  Reference energy                   -196.347702404495
  CCSD singlet pair energy             -0.577587382687
  CCSD triplet pair energy             -0.234115613170
  CCSD correlation energy              -0.811702995857

  Triples (T) contribution             -0.023942378299
  Total correlation energy             -0.835645374156

  CCSD total energy                  -197.159405400352
  CCSD[T] energy                     -197.183807131575
  CCSD-T energy                      -197.183099111740
 !CCSD(T) total energy               -197.183347778651

 Timing summary (sec):

 STEP                 CPU(USER)    SYS     CPU(TOT)    WALL
 Transformation          1.96      0.18      2.14      2.15
 CCSD iterations        97.32      2.08     99.40    100.33
 Triples                80.92      1.57     82.49     82.51

 Program statistics:

 Available memory in ccsd:               999998876
 Min. memory needed in ccsd:               3966807
 Max. memory used in ccsd:                 5311887
 Max. memory used in cckext:               4858018 (19 integral passes)



 **********************************************************************************************************************************
 DATASETS  * FILE   NREC   LENGTH (MB)   RECORD NAMES
              1      20      394.71       500      610      700      900      950      970     1000      129      960     1100   
                                          VAR    BASINP    GEOM    SYMINP    ZMAT    AOBASIS   BASIS     P2S    ABASIS      S 
                                         1400     1410     1200     1210     1080     1600     1650     1300     1700     1380   
                                           T        V       H0       H01     AOSYM     SMH    MOLCAS    ERIS     OPER     JKOP   

              2       3        0.89       700     1000     2100   
                                         GEOM     BASIS     RHF  

 PROGRAMS   *        TOTAL   CCSD(T)       RHF       INT
 CPU TIMES  *       191.40    180.22      7.01      4.12
 REAL TIME  *       197.79 SEC
 DISK USED  *         1.03 GB      
 GA USED    *         0.01 MB       (max)       0.00 MB       (current)
 **********************************************************************************************************************************

        CCSD(T)         RHF-SCF 
   -197.18334778   -196.34770240
 **********************************************************************************************************************************
 Variable memory released
