
 Primary working directories    : /tmp/917047.91.gen6.q
 Secondary working directories  : /tmp/917047.91.gen6.q
 Wavefunction directory         : /home/vulcan/lo21740/wfu/
 Main file repository           : /tmp/917047.91.gen6.q/

 ARCHNAME  : Linux/x86_64
 FC        : /opt/intel/compilers_and_libraries_2016.1.150/linux/bin/intel64/ifort
 FCVERSION : 16.0.1
 BLASLIB   : -mkl
 id        : ccgc

 Nodes     nprocs
 n090         1
 ga_uses_ma=false, calling ma_init with nominal heap.
 GA-space will be limited to   8.0 MW (determined by -G option)

 Using customized tuning parameters: mindgm=10; mindgv=16; mindgc=4; mindgr=1; noblas=0; mincuda=1000; minvec=7
 default implementation of scratch files=df  

 ***,Optimization of h2o_2
 memory,1000,m
 gthresh,energy=1.0d-12,orbital=1.0d-10,oneint=1.0d-16,twoint=1.0d-16,optgrad=1.0d-6,compress=1.0d-13
 geomtyp=xyz
 
 bohr
 geometry = {
  C   -0.0002443760   -3.4225521112   -0.0014523183
  H   -0.9677173128   -2.7335766030   -1.6782918674
  H   -0.9724200946   -2.7302519653    1.6835622945
  H    1.9460904990   -2.7330184479   -0.0014496661
  H   -0.0022041117   -5.4773630345   -0.0014695443
  C   -0.0036141055    3.4212140455    0.0015103733
  H   -0.0040735692    5.4810258516    0.0015586876
  H    0.9718779411    2.7317641462   -1.6766224550
  H    0.9767242133    2.7316865707    1.6767847767
  H   -1.9444190836    2.7310715479   -0.0041302810
 }
 
 basis=AVDZ, H=VDZ
 {rhf;maxit,200}
 {ccsd(t);maxit,200}

 Variables initialized (661), CPU time= 0.00 sec
 Commands  initialized (458), CPU time= 0.01 sec, 486 directives.
 Default parameters read. Elapsed time= 0.04 sec

 Checking input...
 Passed
1


                                         ***  PROGRAM SYSTEM MOLPRO  ***
                         Copyright, University College Cardiff Consultants Limited, 2008

                                    Version 2010.1 linked May 16 2016 07:17:05


 **********************************************************************************************************************************
 LABEL *   Optimization of h2o_2                                                         
 Linux-4.4.3/n090(x86_64) 64 bit mpp version                                             DATE: 20-Jul-23          TIME: 13:16:26  
 **********************************************************************************************************************************

 SHA1:             9e8077add272b0f3cad6f7df79ec5211205f459d
 **********************************************************************************************************************************

 THRESHOLDS:

 ZERO    =  1.00D-12  ONEINT  =  1.00D-16  TWOINT  =  1.00D-16  PREFAC  =  1.00D-14  LOCALI  =  1.00D-09  EORDER  =  1.00D-04
 ENERGY  =  1.00D-12  ETEST   =  0.00D+00  EDENS   =  0.00D+00  THRDEDEF=  1.00D-06  GRADIENT=  1.00D-02  STEP    =  1.00D-03
 ORBITAL =  1.00D-10  CIVEC   =  1.00D-05  COEFF   =  1.00D-04  PRINTCI =  5.00D-02  PUNCHCI =  9.90D+01  OPTGRAD =  1.00D-06
 OPTENERG=  1.00D-06  OPTSTEP =  3.00D-04  THRGRAD =  1.00D-10  COMPRESS=  1.00D-13  VARMIN  =  1.00D-07  VARMAX  =  1.00D-03
 THRDOUB =  0.00D+00  THRDIV  =  1.00D-05  THRRED  =  1.00D-07  THRPSP  =  1.00D+00  THRDC   =  1.00D-10  THRCS   =  1.00D-10
 THRNRM  =  1.00D-08  THREQ   =  0.00D+00  THRDE   =  1.00D+00  THRREF  =  1.00D-05  SPARFAC =  1.00D+00  THRDLP  =  1.00D-07
 THRDIA  =  1.00D-10  THRDLS  =  1.00D-07  THRGPS  =  0.00D+00  THRKEX  =  0.00D+00  THRDIS  =  2.00D-01  THRVAR  =  1.00D-10
 THRLOC  =  1.00D-06  THRGAP  =  1.00D-06  THRLOCT = -1.00D+00  THRGAPT = -1.00D+00  THRORB  =  1.00D-06  THRMLTP =  0.00D+00
 THRCPQCI=  1.00D-10  KEXTA   =  0.00D+00  THRCOARS=  0.00D+00  SYMTOL  =  1.00D-06  GRADTOL =  1.00D-06  THROVL  =  1.00D-08
 THRORTH =  1.00D-08  GRID    =  1.00D-06  GRIDMAX =  1.00D-03  DTMAX   =  0.00D+00

 SETTING GEOMTYP        =    XYZ
 ZUNIT=BOHR
 

 Variable memory set to 1000000000 words,  buffer space   230000 words

 SETTING BASIS          =    AVDZ,H=VDZ


 Recomputing integrals since basis changed


 Using spherical harmonics

 Library entry C      S aug-cc-pVDZ          selected for orbital group  1
 Library entry C      P aug-cc-pVDZ          selected for orbital group  1
 Library entry C      D aug-cc-pVDZ          selected for orbital group  1
 Library entry H      S cc-pVDZ              selected for orbital group  2
 Library entry H      P cc-pVDZ              selected for orbital group  2

1PROGRAM * SEWARD (Integral evaluation for generally contracted gaussian basis sets)     Author: Roland Lindh, 1990

 Geometry written to block  1 of record 700


 Point group  C1  



 ATOMIC COORDINATES

 NR  ATOM    CHARGE       X              Y              Z

   1  C       6.00   -0.000244376   -3.422552111   -0.001452318
   2  H       1.00   -0.967717313   -2.733576603   -1.678291867
   3  H       1.00   -0.972420095   -2.730251965    1.683562294
   4  H       1.00    1.946090499   -2.733018448   -0.001449666
   5  H       1.00   -0.002204112   -5.477363034   -0.001469544
   6  C       6.00   -0.003614106    3.421214046    0.001510373
   7  H       1.00   -0.004073569    5.481025852    0.001558688
   8  H       1.00    0.971877941    2.731764146   -1.676622455
   9  H       1.00    0.976724213    2.731686571    1.676784777
  10  H       1.00   -1.944419084    2.731071548   -0.004130281

 Bond lengths in Bohr (Angstrom)

 1-2  2.054867881  1-3  2.064867881  1-4  2.064867095  1-5  2.054811858  6-7  2.059811858
     ( 1.087389250)     ( 1.092681022)     ( 1.092680606)     ( 1.087359604)     ( 1.090005490)

  6- 8  2.059867881   6- 9  2.059867880   6-10  2.059867094
       ( 1.090035136)       ( 1.090035136)       ( 1.090034720)

 Bond angles

  2-1-3  109.37992579   2-1-4  109.37980975   2-1-5  109.56240831   3-1-4  109.37980975

  3-1-5  109.56240831   4-1-5  109.56250040   7-6-8  109.56223832   7-6-9  109.56223832

  7- 6-10  109.56233042   8- 6- 9  108.97461347   8- 6-10  109.37963976   9- 6-10  109.78478211

 NUCLEAR CHARGE:                   20
 NUMBER OF PRIMITIVE AOS:         130
 NUMBER OF SYMMETRY AOS:          126
 NUMBER OF CONTRACTIONS:           86   (  86A   )
 NUMBER OF CORE ORBITALS:           2   (   2A   )
 NUMBER OF VALENCE ORBITALS:       16   (  16A   )


 NUCLEAR REPULSION ENERGY   41.34215284


 Eigenvalues of metric

         1 0.535E-02 0.665E-02 0.904E-02 0.114E-01 0.117E-01 0.118E-01 0.140E-01 0.141E-01


 Contracted 2-electron integrals neglected if value below      1.0D-16
 AO integral compression algorithm  1   Integral accuracy      1.0D-16

     57.410 MB (compressed) written to integral file ( 87.0%)

     Node minimum: 57.410 MB, node maximum: 57.410 MB


 NUMBER OF SORTED TWO-ELECTRON INTEGRALS:    6999411.     BUFFER LENGTH:  32768
 NUMBER OF SEGMENTS:   1  SEGMENT LENGTH:    6999411      RECORD LENGTH: 524288

 Memory used in sort:       7.56 MW

 SORT1 READ     8242194. AND WROTE     6851244. INTEGRALS IN     20 RECORDS. CPU TIME:     0.07 SEC, REAL TIME:     0.11 SEC
 SORT2 READ     6851244. AND WROTE     6999411. INTEGRALS IN    219 RECORDS. CPU TIME:     0.08 SEC, REAL TIME:     0.11 SEC

 FILE SIZES:   FILE 1:    51.8 MBYTE,  FILE 4:    83.9 MBYTE,   TOTAL:    135.8 MBYTE

 OPERATOR DM      FOR CENTER  0  COORDINATES:    0.000000    0.000000    0.000000


 **********************************************************************************************************************************
 DATASETS  * FILE   NREC   LENGTH (MB)   RECORD NAMES
              1      19       51.93       500      610      700      900      950      970     1000      129      960     1100   
                                          VAR    BASINP    GEOM    SYMINP    ZMAT    AOBASIS   BASIS     P2S    ABASIS      S 
                                         1400     1410     1200     1210     1080     1600     1650     1300     1700   
                                           T        V       H0       H01     AOSYM     SMH    MOLCAS    ERIS     OPER   

 PROGRAMS   *        TOTAL       INT
 CPU TIMES  *         0.62      0.58
 REAL TIME  *         0.90 SEC
 DISK USED  *       193.94 MB      
 GA USED    *         0.00 MB       (max)       0.00 MB       (current)
 **********************************************************************************************************************************

1PROGRAM * RHF-SCF (CLOSED SHELL)       Authors: W. Meyer, H.-J. Werner


 NUMBER OF ELECTRONS:      10+   10-    SPACE SYMMETRY=1    SPIN SYMMETRY: Singlet 
 CONVERGENCE THRESHOLDS:    1.00E-10 (Density)    1.00E-13 (Energy)
 MAX. NUMBER OF ITERATIONS:      200
 INTERPOLATION TYPE:            DIIS
 INTERPOLATION STEPS:              2 (START)      1 (STEP)
 LEVEL SHIFTS:                  0.00 (CLOSED)  0.00 (OPEN) 



 Orbital guess generated from atomic densities. Full valence occupancy:   18

 Molecular orbital dump at record        2100.2

 ITERATION    DDIFF          GRAD             ENERGY        2-EL.EN.            DIPOLE MOMENTS         DIIS
    1      0.000D+00      0.000D+00       -80.36117753    134.780381    0.00342    0.00165    0.00079    0
    2      0.000D+00      0.502D-02       -80.39311761    132.492376   -0.00009   -0.00084   -0.00142    1
    3      0.106D-01      0.186D-02       -80.39707157    133.313128    0.00030   -0.00092   -0.00148    2
    4      0.347D-02      0.507D-03       -80.39765520    133.180874    0.00001   -0.00124   -0.00171    3
    5      0.114D-02      0.611D-04       -80.39766302    133.188273   -0.00003   -0.00128   -0.00175    4
    6      0.162D-03      0.345D-05       -80.39766305    133.188103   -0.00003   -0.00129   -0.00175    5
    7      0.156D-04      0.267D-06       -80.39766305    133.188094   -0.00003   -0.00129   -0.00175    5
    8      0.864D-06      0.483D-07       -80.39766305    133.188094   -0.00003   -0.00129   -0.00175    4
    9      0.114D-06      0.828D-08       -80.39766305    133.188096   -0.00003   -0.00129   -0.00175    4
   10      0.238D-07      0.131D-08       -80.39766305    133.188095   -0.00003   -0.00129   -0.00175    5
   11      0.301D-08      0.370D-09       -80.39766305    133.188095   -0.00003   -0.00129   -0.00175    5
   12      0.853D-09      0.109D-09       -80.39766305    133.188095   -0.00003   -0.00129   -0.00175    6
   13      0.269D-09      0.185D-10       -80.39766305    133.188095   -0.00003   -0.00129   -0.00175    6
   14      0.492D-10      0.373D-11       -80.39766305    133.188095   -0.00003   -0.00129   -0.00175    6
   15      0.153D-10      0.475D-12       -80.39766305    133.188095   -0.00003   -0.00129   -0.00175    6
   16      0.164D-11      0.146D-12       -80.39766305    133.188095   -0.00003   -0.00129   -0.00175    0

 Final occupancy:  10

 !RHF STATE 1.1 Energy                -80.397663049358
 Nuclear energy                        41.34215284
 One-electron energy                 -188.33386357
 Two-electron energy                   66.59404767
 Virial quotient                       -1.00212431
 !RHF STATE 1.1 Dipole moment          -0.00003282    -0.00129156    -0.00174812
 Dipole moment /Debye                  -0.00008341    -0.00328260    -0.00444298

 Orbital energies:

         1.1          2.1          3.1          4.1          5.1          6.1          7.1          8.1          9.1         10.1
    -11.215479   -11.215453    -0.945465    -0.939588    -0.551074    -0.546792    -0.545709    -0.539314    -0.538268    -0.535743

        11.1         12.1
      0.080164     0.084203


 **********************************************************************************************************************************
 DATASETS  * FILE   NREC   LENGTH (MB)   RECORD NAMES
              1      19       51.93       500      610      700      900      950      970     1000      129      960     1100   
                                          VAR    BASINP    GEOM    SYMINP    ZMAT    AOBASIS   BASIS     P2S    ABASIS      S 
                                         1400     1410     1200     1210     1080     1600     1650     1300     1700   
                                           T        V       H0       H01     AOSYM     SMH    MOLCAS    ERIS     OPER   

              2       3        0.57       700     1000     2100   
                                         GEOM     BASIS     RHF  

 PROGRAMS   *        TOTAL       RHF       INT
 CPU TIMES  *         1.35      0.73      0.58
 REAL TIME  *         1.73 SEC
 DISK USED  *       193.94 MB      
 GA USED    *         0.00 MB       (max)       0.00 MB       (current)
 **********************************************************************************************************************************


1PROGRAM * CCSD (Closed-shell coupled cluster)     Authors: C. Hampel, H.-J. Werner, 1991, M. Deegan, P.J. Knowles, 1992


 Convergence thresholds:  THRVAR = 1.00D-08  THRDEN = 1.00D-12

 CCSD(T)     terms to be evaluated (factor= 1.000)


 Number of core orbitals:           2 (   2 )
 Number of closed-shell orbitals:   8 (   8 )
 Number of external orbitals:      76 (  76 )

 Molecular orbitals read from record     2100.2  Type=RHF/CANONICAL (state 1.1)

 Number of N-1 electron functions:               8
 Number of N-2 electron functions:              36
 Number of singly external CSFs:               608
 Number of doubly external CSFs:            185136
 Total number of CSFs:                      185745

 Length of J-op  integral file:               0.00 MB
 Length of K-op  integral file:               0.54 MB
 Length of 3-ext integral record:             0.00 MB

 Memory could be reduced to 5.45 Mwords without degradation in triples

 Integral transformation finished. Total CPU:   0.16 sec, npass=  1  Memory used:   3.53 MW

 Reference energy:                    -80.39766305

 MP2 singlet pair energy:              -0.23821352
 MP2 triplet pair energy:              -0.09578842
 MP2 correlation energy:               -0.33400193
 MP2 total energy:                    -80.73166498

 SCS-MP2 correlation energy:           -0.34545790   (PS=  1.200000  PT=  0.333333)
 SCS-MP2 total energy:                -80.74312095

 ITER.      SQ.NORM     CORR.ENERGY   TOTAL ENERGY   ENERGY CHANGE        DEN1      VAR(S)    VAR(P)  DIIS     TIME
   1      1.13988462    -0.37811994   -80.77578299    -0.04411801    -0.03297265  0.68D-03  0.24D-02  1  1     0.41
   2      1.15302763    -0.38091338   -80.77857643    -0.00279344    -0.01280931  0.15D-04  0.11D-03  2  2     0.67
   3      1.15509853    -0.38105157   -80.77871462    -0.00013819    -0.00107878  0.24D-05  0.62D-05  3  3     0.93
   4      1.15552676    -0.38106920   -80.77873225    -0.00001763    -0.00017350  0.60D-07  0.37D-06  4  4     1.20
   5      1.15558733    -0.38106525   -80.77872830     0.00000395    -0.00002811  0.29D-08  0.21D-07  5  5     1.46
   6      1.15558956    -0.38106461   -80.77872765     0.00000064    -0.00000060  0.19D-09  0.15D-08  6  6     1.73
   7      1.15558972    -0.38106488   -80.77872793    -0.00000028     0.00000005  0.15D-10  0.95D-10  6  1     2.00
   8      1.15558979    -0.38106489   -80.77872794    -0.00000001    -0.00000009  0.18D-11  0.64D-11  6  2     2.26
   9      1.15558970    -0.38106489   -80.77872794     0.00000000     0.00000002  0.37D-12  0.44D-12  6  4     2.53
  10      1.15558969    -0.38106489   -80.77872794    -0.00000000    -0.00000000  0.29D-13  0.33D-13  6  3     2.79
  11      1.15558968    -0.38106490   -80.77872794    -0.00000000     0.00000000  0.24D-14  0.30D-14  6  5     3.06
  12      1.15558968    -0.38106490   -80.77872794    -0.00000000     0.00000000  0.20D-15  0.31D-15  6  6     3.32
  13      1.15558968    -0.38106490   -80.77872794    -0.00000000     0.00000000  0.12D-16  0.39D-16  6  1     3.59
  14      1.15558968    -0.38106490   -80.77872794    -0.00000000     0.00000000  0.16D-17  0.49D-17  6  2     3.86
  15      1.15558967    -0.38106490   -80.77872794    -0.00000000     0.00000000  0.11D-18  0.51D-18  6  4     4.13
  16      1.15558967    -0.38106490   -80.77872794    -0.00000000     0.00000000  0.11D-19  0.44D-19  6  3     4.39
  17      1.15558967    -0.38106490   -80.77872794     0.00000000    -0.00000000  0.21D-21  0.38D-20  6  6     4.66
  18      1.15558967    -0.38106490   -80.77872794     0.00000000    -0.00000000  0.34D-22  0.80D-22  6  5     4.93

 Norm of t1 vector:      0.03875632      S-energy:    -0.00000000      T1 diagnostic:  0.00685121
                                                                       D1 diagnostic:  0.01213957


 Total CPU time for triples:      2.20 sec


 RESULTS
 =======

  Reference energy                    -80.397663049358
  CCSD singlet pair energy             -0.287790556349
  CCSD triplet pair energy             -0.093274339169
  CCSD correlation energy              -0.381064895518

  Triples (T) contribution             -0.008788312799
  Total correlation energy             -0.389853208316

  CCSD total energy                   -80.778727944875
  CCSD[T] energy                      -80.787730870096
  CCSD-T energy                       -80.787404205683
 !CCSD(T) total energy                -80.787516257674

 Timing summary (sec):

 STEP                 CPU(USER)    SYS     CPU(TOT)    WALL
 Transformation          0.17      0.03      0.20      0.20
 CCSD iterations         4.76      0.24      5.00      5.02
 Triples                 2.20      0.06      2.26      2.27

 Program statistics:

 Available memory in ccsd:               999999644
 Min. memory needed in ccsd:                591289
 Max. memory used in ccsd:                  742713
 Max. memory used in cckext:                619606 (18 integral passes)



 **********************************************************************************************************************************
 DATASETS  * FILE   NREC   LENGTH (MB)   RECORD NAMES
              1      20       69.52       500      610      700      900      950      970     1000      129      960     1100   
                                          VAR    BASINP    GEOM    SYMINP    ZMAT    AOBASIS   BASIS     P2S    ABASIS      S 
                                         1400     1410     1200     1210     1080     1600     1650     1300     1700     1380   
                                           T        V       H0       H01     AOSYM     SMH    MOLCAS    ERIS     OPER     JKOP   

              2       3        0.57       700     1000     2100   
                                         GEOM     BASIS     RHF  

 PROGRAMS   *        TOTAL   CCSD(T)       RHF       INT
 CPU TIMES  *         8.49      7.14      0.73      0.58
 REAL TIME  *         9.24 SEC
 DISK USED  *       193.94 MB      
 GA USED    *         0.00 MB       (max)       0.00 MB       (current)
 **********************************************************************************************************************************

        CCSD(T)         RHF-SCF 
    -80.78751626    -80.39766305
 **********************************************************************************************************************************
 Variable memory released
