
 Primary working directories    : /tmp/942027.14.gen5.q
 Secondary working directories  : /tmp/942027.14.gen5.q
 Wavefunction directory         : /home/vulcan/mel64643/wfu/
 Main file repository           : /tmp/942027.14.gen5.q/

 ARCHNAME  : Linux/x86_64
 FC        : /opt/intel/compilers_and_libraries_2016.1.150/linux/bin/intel64/ifort
 FCVERSION : 16.0.1
 BLASLIB   : -mkl
 id        : ccgc

 Nodes     nprocs
 n070         1
 ga_uses_ma=false, calling ma_init with nominal heap.
 GA-space will be limited to   8.0 MW (determined by -G option)

 Using customized tuning parameters: mindgm=10; mindgv=16; mindgc=4; mindgr=1; noblas=0; mincuda=1000; minvec=7
 default implementation of scratch files=df  

 ***,Optimization of h2o_2
 memory,1000,m
 gthresh,energy=1.0d-12,orbital=1.0d-10,oneint=1.0d-16,twoint=1.0d-16,optgrad=1.0d-6,compress=1.0d-13
 geomtyp=xyz
 
 bohr
 geometry = {
  O   -2.8132572634   -0.2048347392    0.0000000000
  H   -3.5810714186    1.4482390229   -0.0000000000
  H   -1.0042866740    0.1079281808    0.0000000000
  O    2.6852398926    0.1961261796   -0.0000000000
  H    3.3391817357   -0.7037524451   -1.4388270840
  H    3.3391817357   -0.7037524451    1.4388270840
 }
 
 basis=aug-cc-pvdz, H=cc-pvdz
 {rhf;maxit,200}
 {ccsd(t);maxit,200}

 Variables initialized (661), CPU time= 0.01 sec
 Commands  initialized (458), CPU time= 0.01 sec, 486 directives.
 Default parameters read. Elapsed time= 0.11 sec

 Checking input...
 Passed
1


                                         ***  PROGRAM SYSTEM MOLPRO  ***
                         Copyright, University College Cardiff Consultants Limited, 2008

                                    Version 2010.1 linked May 16 2016 07:17:05


 **********************************************************************************************************************************
 LABEL *   Optimization of h2o_2                                                         
 Linux-4.4.3/n070(x86_64) 64 bit mpp version                                             DATE: 21-Oct-23          TIME: 20:26:22  
 **********************************************************************************************************************************

 SHA1:             9e8077add272b0f3cad6f7df79ec5211205f459d
 **********************************************************************************************************************************

 THRESHOLDS:

 ZERO    =  1.00D-12  ONEINT  =  1.00D-16  TWOINT  =  1.00D-16  PREFAC  =  1.00D-14  LOCALI  =  1.00D-09  EORDER  =  1.00D-04
 ENERGY  =  1.00D-12  ETEST   =  0.00D+00  EDENS   =  0.00D+00  THRDEDEF=  1.00D-06  GRADIENT=  1.00D-02  STEP    =  1.00D-03
 ORBITAL =  1.00D-10  CIVEC   =  1.00D-05  COEFF   =  1.00D-04  PRINTCI =  5.00D-02  PUNCHCI =  9.90D+01  OPTGRAD =  1.00D-06
 OPTENERG=  1.00D-06  OPTSTEP =  3.00D-04  THRGRAD =  1.00D-10  COMPRESS=  1.00D-13  VARMIN  =  1.00D-07  VARMAX  =  1.00D-03
 THRDOUB =  0.00D+00  THRDIV  =  1.00D-05  THRRED  =  1.00D-07  THRPSP  =  1.00D+00  THRDC   =  1.00D-10  THRCS   =  1.00D-10
 THRNRM  =  1.00D-08  THREQ   =  0.00D+00  THRDE   =  1.00D+00  THRREF  =  1.00D-05  SPARFAC =  1.00D+00  THRDLP  =  1.00D-07
 THRDIA  =  1.00D-10  THRDLS  =  1.00D-07  THRGPS  =  0.00D+00  THRKEX  =  0.00D+00  THRDIS  =  2.00D-01  THRVAR  =  1.00D-10
 THRLOC  =  1.00D-06  THRGAP  =  1.00D-06  THRLOCT = -1.00D+00  THRGAPT = -1.00D+00  THRORB  =  1.00D-06  THRMLTP =  0.00D+00
 THRCPQCI=  1.00D-10  KEXTA   =  0.00D+00  THRCOARS=  0.00D+00  SYMTOL  =  1.00D-06  GRADTOL =  1.00D-06  THROVL  =  1.00D-08
 THRORTH =  1.00D-08  GRID    =  1.00D-06  GRIDMAX =  1.00D-03  DTMAX   =  0.00D+00

 SETTING GEOMTYP        =    XYZ
 ZUNIT=BOHR
 

 Variable memory set to 1000000000 words,  buffer space   230000 words

 SETTING BASIS          =    AUG-CC-PVDZ,H=CC-PVDZ


 Recomputing integrals since basis changed


 Using spherical harmonics

 Library entry O      S aug-cc-pVDZ          selected for orbital group  1
 Library entry O      P aug-cc-pVDZ          selected for orbital group  1
 Library entry O      D aug-cc-pVDZ          selected for orbital group  1
 Library entry H      S cc-pVDZ              selected for orbital group  2
 Library entry H      P cc-pVDZ              selected for orbital group  2

1PROGRAM * SEWARD (Integral evaluation for generally contracted gaussian basis sets)     Author: Roland Lindh, 1990

 Geometry written to block  1 of record 700


 Point group  Cs  



 ATOMIC COORDINATES

 NR  ATOM    CHARGE       X              Y              Z

   1  O       8.00   -2.813257263   -0.204834739    0.000000000
   2  H       1.00   -3.581071419    1.448239023    0.000000000
   3  H       1.00   -1.004286674    0.107928181    0.000000000
   4  O       8.00    2.685239893    0.196126180    0.000000000
   5  H       1.00    3.339181736   -0.703752445   -1.438827084
   6  H       1.00    3.339181736   -0.703752445    1.438827084

 Bond lengths in Bohr (Angstrom)

 1-2  1.822687971  1-3  1.835809151  4-5  1.818693171  4-6  1.818693171
     ( 0.964524933)     ( 0.971468363)     ( 0.962410976)     ( 0.962410976)

 Bond angles

  2-1-3  105.10455845   5-4-6  104.58292364

 NUCLEAR CHARGE:                   20
 NUMBER OF PRIMITIVE AOS:         102
 NUMBER OF SYMMETRY AOS:           98
 NUMBER OF CONTRACTIONS:           66   (  45A'  +  21A"  )
 NUMBER OF CORE ORBITALS:           2   (   2A'  +   0A"  )
 NUMBER OF VALENCE ORBITALS:       12   (   9A'  +   3A"  )


 NUCLEAR REPULSION ENERGY   36.48999873


 Eigenvalues of metric

         1 0.609E-02 0.790E-02 0.121E-01 0.130E-01 0.166E-01 0.211E-01 0.376E-01 0.491E-01
         2 0.165E-01 0.284E-01 0.134E+00 0.138E+00 0.246E+00 0.305E+00 0.322E+00 0.352E+00


 Contracted 2-electron integrals neglected if value below      1.0D-16
 AO integral compression algorithm  1   Integral accuracy      1.0D-16

     12.583 MB (compressed) written to integral file ( 94.3%)

     Node minimum: 12.583 MB, node maximum: 12.583 MB


 NUMBER OF SORTED TWO-ELECTRON INTEGRALS:    1280181.     BUFFER LENGTH:  32768
 NUMBER OF SEGMENTS:   1  SEGMENT LENGTH:    1280181      RECORD LENGTH: 524288

 Memory used in sort:       1.84 MW

 SORT1 READ     1642187. AND WROTE     1247367. INTEGRALS IN      4 RECORDS. CPU TIME:     0.02 SEC, REAL TIME:     0.04 SEC
 SORT2 READ     1247367. AND WROTE     1280181. INTEGRALS IN     48 RECORDS. CPU TIME:     0.03 SEC, REAL TIME:     0.05 SEC

 FILE SIZES:   FILE 1:    12.4 MBYTE,  FILE 4:    16.8 MBYTE,   TOTAL:     29.2 MBYTE

 OPERATOR DM      FOR CENTER  0  COORDINATES:    0.000000    0.000000    0.000000


 **********************************************************************************************************************************
 DATASETS  * FILE   NREC   LENGTH (MB)   RECORD NAMES
              1      19       12.42       500      610      700      900      950      970     1000      129      960     1100   
                                          VAR    BASINP    GEOM    SYMINP    ZMAT    AOBASIS   BASIS     P2S    ABASIS      S 
                                         1400     1410     1200     1210     1080     1600     1650     1300     1700   
                                           T        V       H0       H01     AOSYM     SMH    MOLCAS    ERIS     OPER   

 PROGRAMS   *        TOTAL       INT
 CPU TIMES  *         0.63      0.50
 REAL TIME  *         1.22 SEC
 DISK USED  *        42.42 MB      
 GA USED    *         0.00 MB       (max)       0.00 MB       (current)
 **********************************************************************************************************************************

1PROGRAM * RHF-SCF (CLOSED SHELL)       Authors: W. Meyer, H.-J. Werner


 NUMBER OF ELECTRONS:      10+   10-
 CONVERGENCE THRESHOLDS:    1.00E-10 (Density)    1.00E-13 (Energy)
 MAX. NUMBER OF ITERATIONS:      200
 INTERPOLATION TYPE:            DIIS
 INTERPOLATION STEPS:              2 (START)      1 (STEP)
 LEVEL SHIFTS:                  0.00 (CLOSED)  0.00 (OPEN) 



 Orbital guess generated from atomic densities. Full valence occupancy:   11   3

 Molecular orbital dump at record        2100.2

 Initial alpha occupancy:   8   2
 Initial beta  occupancy:   8   2
 Wave function symmetry:    1

 ITERATION    DDIFF          GRAD             ENERGY        2-EL.EN.            DIPOLE MOMENTS         DIIS
    1      0.000D+00      0.000D+00      -152.02031813    191.182286    1.36763    0.09446    0.00000    0
    2      0.000D+00      0.157D-01      -152.06974590    184.698667    1.02422    0.03125    0.00000    1
    3      0.298D-01      0.883D-02      -152.08666136    187.485775    1.08289    0.05735    0.00000    2
    4      0.102D-01      0.989D-03      -152.08705389    187.264221    1.06917    0.05484    0.00000    3
    5      0.167D-02      0.238D-03      -152.08708373    187.284933    1.06516    0.05598    0.00000    4
    6      0.475D-03      0.517D-04      -152.08708526    187.287852    1.06438    0.05527    0.00000    5
    7      0.116D-03      0.242D-04      -152.08708546    187.286900    1.06413    0.05562    0.00000    6
    8      0.352D-04      0.473D-05      -152.08708548    187.286858    1.06400    0.05557    0.00000    7
    9      0.127D-04      0.697D-06      -152.08708548    187.286865    1.06398    0.05558    0.00000    6
   10      0.166D-05      0.134D-06      -152.08708548    187.286862    1.06398    0.05558    0.00000    6
   11      0.323D-06      0.353D-07      -152.08708548    187.286865    1.06398    0.05558    0.00000    6
   12      0.751D-07      0.101D-07      -152.08708548    187.286864    1.06398    0.05558    0.00000    6
   13      0.257D-07      0.313D-08      -152.08708548    187.286865    1.06398    0.05558    0.00000    6
   14      0.591D-08      0.105D-08      -152.08708548    187.286865    1.06398    0.05558    0.00000    7
   15      0.198D-08      0.294D-09      -152.08708548    187.286865    1.06398    0.05558    0.00000    7
   16      0.524D-09      0.155D-09      -152.08708548    187.286865    1.06398    0.05558    0.00000    8
   17      0.266D-09      0.213D-10      -152.08708548    187.286865    1.06398    0.05558    0.00000    8
   18      0.450D-10      0.823D-11      -152.08708548    187.286865    1.06398    0.05558    0.00000    0

 Final occupancy:   8   2

 !RHF STATE 1.1 Energy               -152.087085482576
 Nuclear energy                        36.48999873
 One-electron energy                 -282.22051653
 Two-electron energy                   93.64343232
 Virial quotient                       -1.00177009
 !RHF STATE 1.1 Dipole moment           1.06398174     0.05557748     0.00000000
 Dipole moment /Debye                   2.70419471     0.14125460     0.00000000

 Orbital energies:

         1.1          2.1          3.1          4.1          5.1          6.1          7.1          8.1          9.1         10.1
    -20.602793   -20.546368    -1.381248    -1.321162    -0.693076    -0.614067    -0.557569    -0.529498     0.112424     0.152952

         1.2          2.2          3.2          4.2
     -0.741691    -0.479354     0.165068     0.240475


 **********************************************************************************************************************************
 DATASETS  * FILE   NREC   LENGTH (MB)   RECORD NAMES
              1      19       12.42       500      610      700      900      950      970     1000      129      960     1100   
                                          VAR    BASINP    GEOM    SYMINP    ZMAT    AOBASIS   BASIS     P2S    ABASIS      S 
                                         1400     1410     1200     1210     1080     1600     1650     1300     1700   
                                           T        V       H0       H01     AOSYM     SMH    MOLCAS    ERIS     OPER   

              2       3        0.40       700     1000     2100   
                                         GEOM     BASIS     RHF  

 PROGRAMS   *        TOTAL       RHF       INT
 CPU TIMES  *         0.80      0.17      0.50
 REAL TIME  *         1.44 SEC
 DISK USED  *        42.42 MB      
 GA USED    *         0.00 MB       (max)       0.00 MB       (current)
 **********************************************************************************************************************************


1PROGRAM * CCSD (Closed-shell coupled cluster)     Authors: C. Hampel, H.-J. Werner, 1991, M. Deegan, P.J. Knowles, 1992


 Convergence thresholds:  THRVAR = 1.00D-08  THRDEN = 1.00D-12

 CCSD(T)     terms to be evaluated (factor= 1.000)


 Number of core orbitals:           2 (   2   0 )
 Number of closed-shell orbitals:   8 (   6   2 )
 Number of external orbitals:      56 (  37  19 )

 Molecular orbitals read from record     2100.2  Type=RHF/CANONICAL (state 1.1)

 Number of N-1 electron functions:               8
 Number of N-2 electron functions:              36
 Number of singly external CSFs:               260
 Number of doubly external CSFs:             51696
 Total number of CSFs:                       51957

 Length of J-op  integral file:               0.00 MB
 Length of K-op  integral file:               0.20 MB
 Length of 3-ext integral record:             0.00 MB

 Memory could be reduced to 1.36 Mwords without degradation in triples

 Integral transformation finished. Total CPU:   0.03 sec, npass=  1  Memory used:   0.50 MW

 Reference energy:                   -152.08708548

 MP2 singlet pair energy:              -0.27038449
 MP2 triplet pair energy:              -0.16872295
 MP2 correlation energy:               -0.43910743
 MP2 total energy:                   -152.52619292

 SCS-MP2 correlation energy:           -0.42944455   (PS=  1.200000  PT=  0.333333)
 SCS-MP2 total energy:               -152.51653003

 ITER.      SQ.NORM     CORR.ENERGY   TOTAL ENERGY   ENERGY CHANGE        DEN1      VAR(S)    VAR(P)  DIIS     TIME
   1      1.12088457    -0.45275066  -152.53983614    -0.01364322    -0.00438035  0.23D-02  0.17D-02  1  1     0.09
   2      1.12900520    -0.45409168  -152.54117716    -0.00134102    -0.00871743  0.16D-04  0.26D-03  2  2     0.14
   3      1.13182890    -0.45434731  -152.54143279    -0.00025563    -0.00159876  0.34D-04  0.92D-05  3  3     0.19
   4      1.13271888    -0.45428812  -152.54137360     0.00005919    -0.00038693  0.14D-05  0.88D-06  4  4     0.24
   5      1.13295459    -0.45427634  -152.54136183     0.00001177    -0.00007269  0.19D-06  0.55D-07  5  5     0.29
   6      1.13300220    -0.45427270  -152.54135818     0.00000365    -0.00000668  0.19D-07  0.51D-08  6  6     0.35
   7      1.13301379    -0.45427129  -152.54135677     0.00000141    -0.00000109  0.13D-08  0.92D-09  6  2     0.40
   8      1.13301639    -0.45427127  -152.54135676     0.00000002    -0.00000005  0.16D-09  0.76D-10  6  1     0.45
   9      1.13301694    -0.45427122  -152.54135670     0.00000005     0.00000018  0.13D-10  0.92D-11  6  4     0.50
  10      1.13301722    -0.45427120  -152.54135668     0.00000002    -0.00000004  0.20D-11  0.72D-12  6  3     0.55
  11      1.13301718    -0.45427121  -152.54135669    -0.00000001     0.00000004  0.35D-12  0.10D-12  6  5     0.61
  12      1.13301715    -0.45427121  -152.54135669    -0.00000000     0.00000001  0.65D-13  0.15D-13  6  6     0.66
  13      1.13301713    -0.45427121  -152.54135670    -0.00000000     0.00000001  0.85D-14  0.28D-14  6  1     0.71
  14      1.13301713    -0.45427122  -152.54135670    -0.00000000     0.00000000  0.15D-14  0.37D-15  6  2     0.76
  15      1.13301712    -0.45427122  -152.54135670    -0.00000000     0.00000000  0.27D-15  0.61D-16  6  4     0.81
  16      1.13301712    -0.45427122  -152.54135670    -0.00000000    -0.00000000  0.35D-16  0.13D-16  6  3     0.86
  17      1.13301712    -0.45427122  -152.54135670     0.00000000    -0.00000000  0.28D-17  0.18D-17  6  6     0.92
  18      1.13301712    -0.45427122  -152.54135670    -0.00000000     0.00000000  0.26D-18  0.14D-18  6  5     0.97
  19      1.13301712    -0.45427122  -152.54135670     0.00000000    -0.00000000  0.61D-19  0.21D-19  6  2     1.02
  20      1.13301712    -0.45427122  -152.54135670     0.00000000    -0.00000000  0.11D-19  0.35D-20  6  1     1.07

 Norm of t1 vector:      0.06807870      S-energy:    -0.00000000      T1 diagnostic:  0.01203473
                                                                       D1 diagnostic:  0.02683295


 Total CPU time for triples:      0.45 sec


 RESULTS
 =======

  Reference energy                   -152.087085482576
  CCSD singlet pair energy             -0.304791218913
  CCSD triplet pair energy             -0.149479996456
  CCSD correlation energy              -0.454271215370

  Triples (T) contribution             -0.010293929275
  Total correlation energy             -0.464565144645

  CCSD total energy                  -152.541356697946
  CCSD[T] energy                     -152.552380935612
  CCSD-T energy                      -152.551363900399
 !CCSD(T) total energy               -152.551650627221

 Timing summary (sec):

 STEP                 CPU(USER)    SYS     CPU(TOT)    WALL
 Transformation          0.03      0.01      0.04      0.06
 CCSD iterations         1.04      0.08      1.12      1.14
 Triples                 0.45      0.01      0.46      0.47

 Program statistics:

 Available memory in ccsd:               999999644
 Min. memory needed in ccsd:                173249
 Max. memory used in ccsd:                  213325
 Max. memory used in cckext:                255581 (20 integral passes)



 **********************************************************************************************************************************
 DATASETS  * FILE   NREC   LENGTH (MB)   RECORD NAMES
              1      20       16.37       500      610      700      900      950      970     1000      129      960     1100   
                                          VAR    BASINP    GEOM    SYMINP    ZMAT    AOBASIS   BASIS     P2S    ABASIS      S 
                                         1400     1410     1200     1210     1080     1600     1650     1300     1700     1380   
                                           T        V       H0       H01     AOSYM     SMH    MOLCAS    ERIS     OPER     JKOP   

              2       3        0.40       700     1000     2100   
                                         GEOM     BASIS     RHF  

 PROGRAMS   *        TOTAL   CCSD(T)       RHF       INT
 CPU TIMES  *         2.33      1.53      0.17      0.50
 REAL TIME  *         3.15 SEC
 DISK USED  *        42.42 MB      
 GA USED    *         0.00 MB       (max)       0.00 MB       (current)
 **********************************************************************************************************************************

        CCSD(T)         RHF-SCF 
   -152.55165063   -152.08708548
 **********************************************************************************************************************************
 Variable memory released
