
    -----------------------------------------------------------------------
          Psi4: An Open-Source Ab Initio Electronic Structure Package
                               Psi4 1.4a2.dev629 

                         Git: Rev {master} 2938fc2 dirty


    D. G. A. Smith, L. A. Burns, A. C. Simmonett, R. M. Parrish,
    M. C. Schieber, R. Galvelis, P. Kraus, H. Kruse, R. Di Remigio,
    A. Alenaizan, A. M. James, S. Lehtola, J. P. Misiewicz, M. Scheurer,
    R. A. Shaw, J. B. Schriber, Y. Xie, Z. L. Glick, D. A. Sirianni,
    J. S. O'Brien, J. M. Waldrop, A. Kumar, E. G. Hohenstein,
    B. P. Pritchard, B. R. Brooks, H. F. Schaefer III, A. Yu. Sokolov,
    K. Patkowski, A. E. DePrince III, U. Bozkaya, R. A. King,
    F. A. Evangelista, J. M. Turney, T. D. Crawford, C. D. Sherrill,
    J. Chem. Phys. 152(18) 184108 (2020). https://doi.org/10.1063/5.0006002

                            Additional Code Authors
    E. T. Seidl, C. L. Janssen, E. F. Valeev, M. L. Leininger,
    J. F. Gonthier, R. M. Richard, H. R. McAlexander, M. Saitow, X. Wang,
    P. Verma, and M. H. Lechner

             Previous Authors, Complete List of Code Contributors,
                       and Citations for Specific Modules
    https://github.com/psi4/psi4/blob/master/codemeta.json
    https://github.com/psi4/psi4/graphs/contributors
    http://psicode.org/psi4manual/master/introduction.html#citing-psifour

    -----------------------------------------------------------------------


    Psi4 started on: Sunday, 14 November 2021 02:52PM

    Process ID: 2702
    Host:       n071
    PSIDATADIR: /opt/psi/4/master/share/psi4
    Memory:     500.0 MiB
    Threads:    4
    
  ==> Input File <==

--------------------------------------------------------------------------
import os
memory 14 GB 
 
molecule {
 C   -3.6853386137    0.2470243228    0.0007114816
 C   -1.0670121930   -0.9722163719    0.0008333428
 C    1.0680497898    0.9741172523   -0.0008327878
 C    3.6842521979   -0.2493558586   -0.0007131256
 H   -5.1854135765   -1.1681678243   -0.0010844427
 H   -3.9354588515    1.4421380285   -1.6650928213
 H   -3.9401275460    1.4410369390    1.6698084515
 H   -0.8715550079   -2.1987925093    1.6598001416
 H   -0.8635499375   -2.1973387838   -1.6544904836
 H    0.8632409769    2.1968205941    1.6547420402
 H    0.8712381940    2.1982710098   -1.6600581765
 H    5.1854057510    1.1684253481    0.0010890852
 H    3.9404721694   -1.4404282022   -1.6700814640
 H    3.9357966470   -1.4415339446    1.6653687586
units bohr
}

basis {

assign 6-31g_2dfp_

[ 6-31g_2dfp_ ]

spherical

!----------------------------------------------------------------------
! Basis Set Exchange
! Version v0.8.13
! https://www.basissetexchange.org
!----------------------------------------------------------------------
!   Basis set: 6-31G(2df,p)
! Description: 6-31G(2df,p)
!        Role: orbital
!     Version: 0  (Data from the original Basis Set Exchange)
!----------------------------------------------------------------------


****
H     0
S    3   1.00
     18.7311370              0.03349460
      2.8253937              0.23472695
      0.6401217              0.81375733
S    1   1.00
      0.1612778              1.00000000
P    1   1.00
      1.5000000              1.0000000
P    1   1.00
      0.3750000              1.0000000
****
B     0
S    6   1.00
   2068.8823000              0.0018663
    310.6495700              0.0142515
     70.6830330              0.0695516
     19.8610800              0.2325729
      6.2993048              0.4670787
      2.1270270              0.3634314
SP   3   1.00
      4.7279710             -0.1303938              0.0745976
      1.1903377             -0.1307889              0.3078467
      0.3594117              1.1309444              0.7434568
SP   1   1.00
      0.1267512              1.0000000              1.0000000
D    1   1.00
      0.8020000              1.0000000
D    1   1.00
      0.2005000              1.0000000
F    1   1.00
      0.5000000              1.0000000
****
C     0
S    6   1.00
   3047.5249000              0.0018347
    457.3695100              0.0140373
    103.9486900              0.0688426
     29.2101550              0.2321844
      9.2866630              0.4679413
      3.1639270              0.3623120
SP   3   1.00
      7.8682724             -0.1193324              0.0689991
      1.8812885             -0.1608542              0.3164240
      0.5442493              1.1434564              0.7443083
SP   1   1.00
      0.1687144              1.0000000              1.0000000
D    1   1.00
      1.2520000              1.0000000
D    1   1.00
      0.3130000              1.0000000
F    1   1.00
      0.8000000              1.0000000
****
N     0
S    6   1.00
   4173.5110000              0.0018348
    627.4579000              0.0139950
    142.9021000              0.0685870
     40.2343300              0.2322410
     12.8202100              0.4690700
      4.3904370              0.3604550
SP   3   1.00
     11.6263580             -0.1149610              0.0675800
      2.7162800             -0.1691180              0.3239070
      0.7722180              1.1458520              0.7408950
SP   1   1.00
      0.2120313              1.0000000              1.0000000
D    1   1.00
      1.8260000              1.0000000
D    1   1.00
      0.4565000              1.0000000
F    1   1.00
      1.0000000              1.0000000
****
O     0
S    6   1.00
   5484.6717000              0.0018311
    825.2349500              0.0139501
    188.0469600              0.0684451
     52.9645000              0.2327143
     16.8975700              0.4701930
      5.7996353              0.3585209
SP   3   1.00
     15.5396160             -0.1107775              0.0708743
      3.5999336             -0.1480263              0.3397528
      1.0137618              1.1307670              0.7271586
SP   1   1.00
      0.2700058              1.0000000              1.0000000
D    1   1.00
      2.5840000              1.0000000
D    1   1.00
      0.6460000              1.0000000
F    1   1.00
      1.4000000              1.0000000
****
F     0
S    6   1.00
   7001.7130900              0.0018196169
   1051.3660900              0.0139160796
    239.2856900              0.0684053245
     67.3974453              0.233185760
     21.5199573              0.471267439
      7.40310130             0.356618546
SP   3   1.00
     20.8479528             -0.108506975            0.0716287243
      4.80830834            -0.146451658            0.3459121030
      1.34406986             1.128688580            0.7224699570
SP   1   1.00
      0.358151393            1.0000000              1.0000000
D    1   1.00
      3.5000000              1.0000000
D    1   1.00
      0.8750000              1.0000000
F    1   1.00
      1.8500000              1.0000000
****
Al     0
S    6   1.00
  13983.1000000              0.00194267
   2098.7500000              0.0148599
    477.7050000              0.0728494
    134.3600000              0.2468300
     42.8709000              0.4872580
     14.5189000              0.3234960
SP   6   1.00
    239.6680000             -0.00292619             0.00460285
     57.4419000             -0.0374080              0.0331990
     18.2859000             -0.1144870              0.1362820
      6.5991400              0.1156350              0.3304760
      2.4904900              0.6125950              0.4491460
      0.9445400              0.3937990              0.2657040
SP   3   1.00
      1.2779000             -0.2276060             -0.0175130
      0.3975900              0.00144583             0.2445330
      0.1600950              1.0927900              0.8049340
SP   1   1.00
      0.0556577              1.0000000              1.0000000
D    1   1.00
      0.6500000              1.0000000
D    1   1.00
      0.1625000              1.0000000
F    1   1.00
      0.2500000              1.0000000
****
Si     0
S    6   1.00
  16115.9000000              0.00195948
   2425.5800000              0.01492880
    553.8670000              0.07284780
    156.3400000              0.24613000
     50.0683000              0.48591400
     17.0178000              0.32500200
SP   6   1.00
    292.7180000             -0.00278094             0.00443826
     69.8731000             -0.03571460             0.03266790
     22.3363000             -0.11498500             0.13472100
      8.1503900              0.09356340             0.32867800
      3.1345800              0.60301700             0.44964000
      1.2254300              0.41895900             0.26137200
SP   3   1.00
      1.7273800             -0.24463000            -0.01779510
      0.5729220              0.00431572             0.25353900
      0.2221920              1.09818000             0.80066900
SP   1   1.00
      0.0778369              1.00000000             1.00000000
D    1   1.00
      0.9000000              1.0000000
D    1   1.00
      0.2250000              1.0000000
F    1   1.00
      0.3200000              1.0000000
****
P     0
S    6   1.00
  19413.3000000              0.0018516
   2909.4200000              0.0142062
    661.3640000              0.0699995
    185.7590000              0.2400790
     59.1943000              0.4847620
     20.0310000              0.3352000
SP   6   1.00
    339.4780000             -0.00278217             0.00456462
     81.0101000             -0.0360499              0.03369360
     25.8780000             -0.1166310              0.13975500
      9.4522100              0.0968328              0.33936200
      3.6656600              0.6144180              0.45092100
      1.4674600              0.4037980              0.23858600
SP   3   1.00
      2.1562300             -0.2529230             -0.01776530
      0.7489970              0.0328517              0.27405800
      0.2831450              1.0812500              0.78542100
SP   1   1.00
      0.0998317              1.0000000              1.00000000
D    1   1.00
      1.1000000              1.0000000
D    1   1.00
      0.2750000              1.0000000
F    1   1.00
      0.4500000              1.0000000
****
S     0
S    6   1.00
  21917.1000000              0.0018690
   3301.4900000              0.0142300
    754.1460000              0.0696960
    212.7110000              0.2384870
     67.9896000              0.4833070
     23.0515000              0.3380740
SP   6   1.00
    423.7350000             -0.0023767              0.0040610
    100.7100000             -0.0316930              0.0306810
     32.1599000             -0.1133170              0.1304520
     11.8079000              0.0560900              0.3272050
      4.6311000              0.5922550              0.4528510
      1.8702500              0.4550060              0.2560420
SP   3   1.00
      2.6158400             -0.2503740             -0.0145110
      0.9221670              0.0669570              0.3102630
      0.3412870              1.0545100              0.7544830
SP   1   1.00
      0.1171670              1.0000000              1.0000000
D    1   1.00
      1.3000000              1.0000000
D    1   1.00
      0.3250000              1.0000000
F    1   1.00
      0.5500000              1.0000000
****
Cl     0
S    6   1.00
  25180.1000000              0.0018330
   3780.3500000              0.0140340
    860.4740000              0.0690970
    242.1450000              0.2374520
     77.3349000              0.4830340
     26.2470000              0.3398560
SP   6   1.00
    491.7650000             -0.0022974              0.0039894
    116.9840000             -0.0307140              0.0303180
     37.4153000             -0.1125280              0.1298800
     13.7834000              0.0450160              0.3279510
      5.4521500              0.5893530              0.4535270
      2.2258800              0.4652060              0.2521540
SP   3   1.00
      3.1864900             -0.2518300             -0.0142990
      1.1442700              0.0615890              0.3235720
      0.4203770              1.0601800              0.7435070
SP   1   1.00
      0.1426570              1.0000000              1.0000000
D    1   1.00
      1.5000000              1.0000000
D    1   1.00
      0.3750000              1.0000000
F    1   1.00
      0.7000000              1.0000000
****
}


set {
reference rhf                          
freeze_core true
e_convergence 10                       
d_convergence 10                      
dft_spherical_points 1202
dft_radial_points 99
}

e = energy('b3lyp')

print_out('Grab this energy {0}'.format(e))
--------------------------------------------------------------------------

  Memory set to  13.039 GiB by Python driver.

Scratch directory: /tmp/

*** tstart() called on n071
*** at Sun Nov 14 14:52:05 2021

   => Loading Basis Set <=

    Name: ANONYMOUS916CA68F
    Role: ORBITAL
    Keyword: BASIS
    atoms 1-4  entry C          line    48 inputblock 6-31g_2dfp_ 
    atoms 5-14 entry H          line    15 inputblock 6-31g_2dfp_ 


         ---------------------------------------------------------
                                   SCF
               by Justin Turney, Rob Parrish, Andy Simmonett
                          and Daniel G. A. Smith
                              RKS Reference
                        4 Threads,  13351 MiB Core
         ---------------------------------------------------------

  ==> Geometry <==

    Molecular point group: c1
    Full point group: C1

    Geometry (in Bohr), charge = 0, multiplicity = 1:

       Center              X                  Y                   Z               Mass       
    ------------   -----------------  -----------------  -----------------  -----------------
         C           -3.685329373974     0.247105830758     0.000711687709    12.000000000000
         C           -1.067002953274    -0.972134863942     0.000833548909    12.000000000000
         C            1.068059029526     0.974198760258    -0.000832581691    12.000000000000
         C            3.684261437626    -0.249274350642    -0.000712919491    12.000000000000
         H           -5.185404336774    -1.168086316342    -0.001084236591     1.007825032230
         H           -3.935449611774     1.442219536458    -1.665092615191     1.007825032230
         H           -3.940118306274     1.441118446958     1.669808657609     1.007825032230
         H           -0.871545768174    -2.198711001342     1.659800347709     1.007825032230
         H           -0.863540697774    -2.197257275842    -1.654490277491     1.007825032230
         H            0.863250216626     2.196902102058     1.654742246309     1.007825032230
         H            0.871247433726     2.198352517758    -1.660057970391     1.007825032230
         H            5.185414990726     1.168506856058     0.001089291309     1.007825032230
         H            3.940481409126    -1.440346694242    -1.670081257891     1.007825032230
         H            3.935805886726    -1.441452436642     1.665368964709     1.007825032230

  Running in c1 symmetry.

  Rotational constants: A =      0.78092  B =      0.12156  C =      0.11406 [cm^-1]
  Rotational constants: A =  23411.33440  B =   3644.13558  C =   3419.56989 [MHz]
  Nuclear repulsion =  130.687500382935667

  Charge       = 0
  Multiplicity = 1
  Electrons    = 34
  Nalpha       = 17
  Nbeta        = 17

  ==> Algorithm <==

  SCF Algorithm Type is DF.
  DIIS enabled.
  MOM disabled.
  Fractional occupation disabled.
  Guess Type is SAD.
  Energy threshold   = 1.00e-10
  Density threshold  = 1.00e-10
  Integral threshold = 0.00e+00

  ==> Primary Basis <==

  Basis Set: ANONYMOUS916CA68F
    Blend: 6-31G_2DFP_
    Number of shells: 72
    Number of basis function: 184
    Number of Cartesian functions: 204
    Spherical Harmonics?: true
    Max angular momentum: 3

  ==> DFT Potential <==

   => Composite Functional: B3LYP <= 

    B3LYP Hyb-GGA Exchange-Correlation Functional

    P. J. Stephens, F. J. Devlin, C. F. Chabalowski, and M. J. Frisch, J. Phys. Chem. 98, 11623 (1994)

    Deriv               =              1
    GGA                 =           TRUE
    Meta                =          FALSE

    Exchange Hybrid     =           TRUE
    MP2 Hybrid          =          FALSE

   => Exchange Functionals <=

    0.0800   Slater exchange
    0.7200         Becke 88

   => Exact (HF) Exchange <=

    0.2000               HF 

   => Correlation Functionals <=

    0.1900   Vosko, Wilk & Nusair (VWN5_RPA)
    0.8100   Lee, Yang & Parr

   => Molecular Quadrature <=

    Radial Scheme          =       TREUTLER
    Pruning Scheme         =           NONE
    Nuclear Scheme         =       TREUTLER

    BS radius alpha        =              1
    Pruning alpha          =              1
    Radial Points          =             99
    Spherical Points       =           1202
    Total Points           =        1550405
    Total Blocks           =          10264
    Max Points             =            256
    Max Functions          =            180
    Weights Tolerance      =       1.00E-15

   => Loading Basis Set <=

    Name: (ANONYMOUS916CA68F AUX)
    Role: JKFIT
    Keyword: DF_BASIS_SCF
    atoms 1-4  entry C          line   198 file /opt/psi/4/master/share/psi4/basis/def2-universal-jkfit.gbs 
    atoms 5-14 entry H          line    18 file /opt/psi/4/master/share/psi4/basis/def2-universal-jkfit.gbs 

  ==> Integral Setup <==

  DFHelper Memory: AOs need 0.127 GiB; user supplied 3.473 GiB. Using in-core AOs.

  ==> MemDFJK: Density-Fitted J/K Matrices <==

    J tasked:                   Yes
    K tasked:                   Yes
    wK tasked:                   No
    OpenMP threads:               4
    Memory [MiB]:              3556
    Algorithm:                 Core
    Schwarz Cutoff:           1E-12
    Mask sparsity (%):       2.9123
    Fitting Condition:        1E-10

   => Auxiliary Basis Set <=

  Basis Set: (ANONYMOUS916CA68F AUX)
    Blend: DEF2-UNIVERSAL-JKFIT
    Number of shells: 160
    Number of basis function: 480
    Number of Cartesian functions: 556
    Spherical Harmonics?: true
    Max angular momentum: 4

  Cached 100.0% of DFT collocation blocks in 6.306 [GiB].

  Minimum eigenvalue in the overlap matrix is 1.1404240237E-03.
  Reciprocal condition number of the overlap matrix is 1.8310647779E-04.
    Using symmetric orthogonalization.

  ==> Pre-Iterations <==

  SCF Guess: Superposition of Atomic Densities via on-the-fly atomic UHF (no occupation information).

   -------------------------
    Irrep   Nso     Nmo    
   -------------------------
     A        184     184 
   -------------------------
    Total     184     184
   -------------------------

  ==> Iterations <==

                           Total Energy        Delta E     RMS |[F,P]|

   @DF-RKS iter SAD:  -157.72903848603215   -1.57729e+02   0.00000e+00 
   @DF-RKS iter   1:  -158.06044253476151   -3.31404e-01   4.70955e-03 DIIS
   @DF-RKS iter   2:  -157.86270507459622    1.97737e-01   5.64729e-03 DIIS
   @DF-RKS iter   3:  -158.47199398314402   -6.09289e-01   3.41895e-04 DIIS
   @DF-RKS iter   4:  -158.47337428545302   -1.38030e-03   1.99864e-04 DIIS
   @DF-RKS iter   5:  -158.47403011076796   -6.55825e-04   3.18945e-05 DIIS
   @DF-RKS iter   6:  -158.47404646901742   -1.63582e-05   3.55868e-06 DIIS
   @DF-RKS iter   7:  -158.47404669437776   -2.25360e-07   6.99428e-07 DIIS
   @DF-RKS iter   8:  -158.47404670349846   -9.12070e-09   5.80208e-08 DIIS
   @DF-RKS iter   9:  -158.47404670355945   -6.09930e-11   9.12744e-09 DIIS
   @DF-RKS iter  10:  -158.47404670356076   -1.30740e-12   2.43303e-09 DIIS
   @DF-RKS iter  11:  -158.47404670356090   -1.42109e-13   1.45362e-09 DIIS
   @DF-RKS iter  12:  -158.47404670356090    0.00000e+00   3.28579e-11 DIIS
  Energy and wave function converged.


  ==> Post-Iterations <==

    Orbital Energies [Eh]
    ---------------------

    Doubly Occupied:                                                      

       1A    -10.169451     2A    -10.169320     3A    -10.163795  
       4A    -10.163755     5A     -0.790361     6A     -0.719557  
       7A     -0.626161     8A     -0.572335     9A     -0.464991  
      10A     -0.421922    11A     -0.414883    12A     -0.406827  
      13A     -0.364481    14A     -0.346694    15A     -0.329477  
      16A     -0.319884    17A     -0.317865  

    Virtual:                                                              

      18A      0.079769    19A      0.104614    20A      0.122119  
      21A      0.131990    22A      0.160640    23A      0.169469  
      24A      0.174605    25A      0.177056    26A      0.185804  
      27A      0.186212    28A      0.236177    29A      0.240015  
      30A      0.250548    31A      0.393706    32A      0.407474  
      33A      0.410482    34A      0.412120    35A      0.435849  
      36A      0.448596    37A      0.475113    38A      0.492207  
      39A      0.516408    40A      0.547967    41A      0.564429  
      42A      0.580966    43A      0.584408    44A      0.603645  
      45A      0.612373    46A      0.613793    47A      0.620757  
      48A      0.626519    49A      0.634876    50A      0.635998  
      51A      0.642198    52A      0.670479    53A      0.671627  
      54A      0.687154    55A      0.791138    56A      0.798896  
      57A      0.856833    58A      0.885661    59A      0.890044  
      60A      0.914999    61A      0.947510    62A      0.963230  
      63A      1.039464    64A      1.052840    65A      1.053723  
      66A      1.106457    67A      1.123876    68A      1.137223  
      69A      1.159376    70A      1.173524    71A      1.204539  
      72A      1.205018    73A      1.239504    74A      1.260191  
      75A      1.279691    76A      1.305631    77A      1.329886  
      78A      1.334035    79A      1.345381    80A      1.347659  
      81A      1.366060    82A      1.379271    83A      1.426145  
      84A      1.458686    85A      1.462739    86A      1.489859  
      87A      1.506154    88A      1.532916    89A      1.539036  
      90A      1.568168    91A      1.585675    92A      1.628304  
      93A      1.642567    94A      1.709084    95A      1.726633  
      96A      1.754635    97A      1.778215    98A      1.795490  
      99A      1.819689   100A      1.862572   101A      1.896043  
     102A      2.029564   103A      2.088659   104A      2.123167  
     105A      2.180710   106A      2.284677   107A      2.713792  
     108A      2.749812   109A      2.755365   110A      2.828717  
     111A      2.829771   112A      2.899104   113A      2.900730  
     114A      2.934397   115A      2.957912   116A      2.966331  
     117A      2.984547   118A      2.995885   119A      3.007562  
     120A      3.040320   121A      3.101500   122A      3.157117  
     123A      3.163033   124A      3.167821   125A      3.235966  
     126A      3.261571   127A      3.331647   128A      3.394964  
     129A      3.441127   130A      3.445060   131A      3.471614  
     132A      3.481259   133A      3.507917   134A      3.574352  
     135A      3.588290   136A      3.603884   137A      3.607736  
     138A      3.629721   139A      3.651087   140A      3.686085  
     141A      3.692351   142A      3.694941   143A      3.757321  
     144A      3.831665   145A      3.855499   146A      3.973560  
     147A      3.991488   148A      4.003929   149A      4.021341  
     150A      4.072676   151A      4.073522   152A      4.161918  
     153A      4.173899   154A      4.194762   155A      4.195334  
     156A      4.216617   157A      4.244954   158A      4.292652  
     159A      4.319942   160A      4.363732   161A      4.386215  
     162A      4.426453   163A      4.429970   164A      4.479084  
     165A      4.524281   166A      4.537196   167A      4.541242  
     168A      4.558925   169A      4.565249   170A      4.574077  
     171A      4.610853   172A      4.694955   173A      4.778730  
     174A      4.789722   175A      4.933622   176A      5.003239  
     177A      5.095302   178A      5.180043   179A      5.215626  
     180A      5.297145   181A      5.305441   182A      5.332116  
     183A      5.374269   184A      5.413733  

    Final Occupation by Irrep:
              A 
    DOCC [    17 ]

  @DF-RKS Final Energy:  -158.47404670356090

   => Energetics <=

    Nuclear Repulsion Energy =            130.6875003829356672
    One-Electron Energy =                -469.9610122112542854
    Two-Electron Energy =                 201.4367158619841973
    DFT Exchange-Correlation Energy =     -20.6372507372264522
    Empirical Dispersion Energy =           0.0000000000000000
    VV10 Nonlocal Energy =                  0.0000000000000000
    Total Energy =                       -158.4740467035609015

Computation Completed


Properties will be evaluated at   0.000000,   0.000000,   0.000000 [a0]

Properties computed using the SCF density matrix

  Nuclear Dipole Moment: [e a0]
     X:     0.0001      Y:     0.0006      Z:     0.0000

  Electronic Dipole Moment: [e a0]
     X:     0.0001      Y:    -0.0007      Z:    -0.0000

  Dipole Moment: [e a0]
     X:     0.0002      Y:    -0.0001      Z:    -0.0000     Total:     0.0002

  Dipole Moment: [D]
     X:     0.0004      Y:    -0.0002      Z:    -0.0000     Total:     0.0005


*** tstop() called on n071 at Sun Nov 14 14:52:37 2021
Module time:
	user time   =     119.84 seconds =       2.00 minutes
	system time =       2.38 seconds =       0.04 minutes
	total time  =         32 seconds =       0.53 minutes
Total time:
	user time   =     119.84 seconds =       2.00 minutes
	system time =       2.38 seconds =       0.04 minutes
	total time  =         32 seconds =       0.53 minutes
Grab this energy -158.4740467035609
    Psi4 stopped on: Sunday, 14 November 2021 02:52PM
    Psi4 wall time for execution: 0:00:31.73

*** Psi4 exiting successfully. Buy a developer a beer!
