
    -----------------------------------------------------------------------
          Psi4: An Open-Source Ab Initio Electronic Structure Package
                               Psi4 1.4a2.dev629 

                         Git: Rev {master} 2938fc2 dirty


    D. G. A. Smith, L. A. Burns, A. C. Simmonett, R. M. Parrish,
    M. C. Schieber, R. Galvelis, P. Kraus, H. Kruse, R. Di Remigio,
    A. Alenaizan, A. M. James, S. Lehtola, J. P. Misiewicz, M. Scheurer,
    R. A. Shaw, J. B. Schriber, Y. Xie, Z. L. Glick, D. A. Sirianni,
    J. S. O'Brien, J. M. Waldrop, A. Kumar, E. G. Hohenstein,
    B. P. Pritchard, B. R. Brooks, H. F. Schaefer III, A. Yu. Sokolov,
    K. Patkowski, A. E. DePrince III, U. Bozkaya, R. A. King,
    F. A. Evangelista, J. M. Turney, T. D. Crawford, C. D. Sherrill,
    J. Chem. Phys. 152(18) 184108 (2020). https://doi.org/10.1063/5.0006002

                            Additional Code Authors
    E. T. Seidl, C. L. Janssen, E. F. Valeev, M. L. Leininger,
    J. F. Gonthier, R. M. Richard, H. R. McAlexander, M. Saitow, X. Wang,
    P. Verma, and M. H. Lechner

             Previous Authors, Complete List of Code Contributors,
                       and Citations for Specific Modules
    https://github.com/psi4/psi4/blob/master/codemeta.json
    https://github.com/psi4/psi4/graphs/contributors
    http://psicode.org/psi4manual/master/introduction.html#citing-psifour

    -----------------------------------------------------------------------


    Psi4 started on: Sunday, 14 November 2021 03:03PM

    Process ID: 4592
    Host:       n085
    PSIDATADIR: /opt/psi/4/master/share/psi4
    Memory:     500.0 MiB
    Threads:    4
    
  ==> Input File <==

--------------------------------------------------------------------------
import os
memory 14 GB 
 
molecule {
 C   -3.6830594860    0.2474060332   -0.0013056019
 C   -1.0680438963   -0.9728855102   -0.0005048241
 C    1.0670163223    0.9734507624   -0.0005046298
 C    3.6865300054   -0.2489746206   -0.0013064872
 H   -5.1858556412   -1.1679384481   -0.0031588606
 H   -3.9393047308    1.4389492524   -1.6655916016
 H   -3.9376736711    1.4439666250    1.6693606040
 H   -0.8664768778   -2.1988258042    1.6578175459
 H   -0.8680246717   -2.1969891923   -1.6566158064
 H    0.8667560293    2.1986272685    1.6579384690
 H    0.8683023185    2.1967910623   -1.6567348286
 H    5.1849651746    1.1686475510   -0.0031600989
 H    3.9382565898   -1.4386061919   -1.6658170489
 H    3.9366125352   -1.4436187873    1.6695831692
units bohr
}

basis {

assign 6-31g_2dfp_

[ 6-31g_2dfp_ ]

spherical

!----------------------------------------------------------------------
! Basis Set Exchange
! Version v0.8.13
! https://www.basissetexchange.org
!----------------------------------------------------------------------
!   Basis set: 6-31G(2df,p)
! Description: 6-31G(2df,p)
!        Role: orbital
!     Version: 0  (Data from the original Basis Set Exchange)
!----------------------------------------------------------------------


****
H     0
S    3   1.00
     18.7311370              0.03349460
      2.8253937              0.23472695
      0.6401217              0.81375733
S    1   1.00
      0.1612778              1.00000000
P    1   1.00
      1.5000000              1.0000000
P    1   1.00
      0.3750000              1.0000000
****
B     0
S    6   1.00
   2068.8823000              0.0018663
    310.6495700              0.0142515
     70.6830330              0.0695516
     19.8610800              0.2325729
      6.2993048              0.4670787
      2.1270270              0.3634314
SP   3   1.00
      4.7279710             -0.1303938              0.0745976
      1.1903377             -0.1307889              0.3078467
      0.3594117              1.1309444              0.7434568
SP   1   1.00
      0.1267512              1.0000000              1.0000000
D    1   1.00
      0.8020000              1.0000000
D    1   1.00
      0.2005000              1.0000000
F    1   1.00
      0.5000000              1.0000000
****
C     0
S    6   1.00
   3047.5249000              0.0018347
    457.3695100              0.0140373
    103.9486900              0.0688426
     29.2101550              0.2321844
      9.2866630              0.4679413
      3.1639270              0.3623120
SP   3   1.00
      7.8682724             -0.1193324              0.0689991
      1.8812885             -0.1608542              0.3164240
      0.5442493              1.1434564              0.7443083
SP   1   1.00
      0.1687144              1.0000000              1.0000000
D    1   1.00
      1.2520000              1.0000000
D    1   1.00
      0.3130000              1.0000000
F    1   1.00
      0.8000000              1.0000000
****
N     0
S    6   1.00
   4173.5110000              0.0018348
    627.4579000              0.0139950
    142.9021000              0.0685870
     40.2343300              0.2322410
     12.8202100              0.4690700
      4.3904370              0.3604550
SP   3   1.00
     11.6263580             -0.1149610              0.0675800
      2.7162800             -0.1691180              0.3239070
      0.7722180              1.1458520              0.7408950
SP   1   1.00
      0.2120313              1.0000000              1.0000000
D    1   1.00
      1.8260000              1.0000000
D    1   1.00
      0.4565000              1.0000000
F    1   1.00
      1.0000000              1.0000000
****
O     0
S    6   1.00
   5484.6717000              0.0018311
    825.2349500              0.0139501
    188.0469600              0.0684451
     52.9645000              0.2327143
     16.8975700              0.4701930
      5.7996353              0.3585209
SP   3   1.00
     15.5396160             -0.1107775              0.0708743
      3.5999336             -0.1480263              0.3397528
      1.0137618              1.1307670              0.7271586
SP   1   1.00
      0.2700058              1.0000000              1.0000000
D    1   1.00
      2.5840000              1.0000000
D    1   1.00
      0.6460000              1.0000000
F    1   1.00
      1.4000000              1.0000000
****
F     0
S    6   1.00
   7001.7130900              0.0018196169
   1051.3660900              0.0139160796
    239.2856900              0.0684053245
     67.3974453              0.233185760
     21.5199573              0.471267439
      7.40310130             0.356618546
SP   3   1.00
     20.8479528             -0.108506975            0.0716287243
      4.80830834            -0.146451658            0.3459121030
      1.34406986             1.128688580            0.7224699570
SP   1   1.00
      0.358151393            1.0000000              1.0000000
D    1   1.00
      3.5000000              1.0000000
D    1   1.00
      0.8750000              1.0000000
F    1   1.00
      1.8500000              1.0000000
****
Al     0
S    6   1.00
  13983.1000000              0.00194267
   2098.7500000              0.0148599
    477.7050000              0.0728494
    134.3600000              0.2468300
     42.8709000              0.4872580
     14.5189000              0.3234960
SP   6   1.00
    239.6680000             -0.00292619             0.00460285
     57.4419000             -0.0374080              0.0331990
     18.2859000             -0.1144870              0.1362820
      6.5991400              0.1156350              0.3304760
      2.4904900              0.6125950              0.4491460
      0.9445400              0.3937990              0.2657040
SP   3   1.00
      1.2779000             -0.2276060             -0.0175130
      0.3975900              0.00144583             0.2445330
      0.1600950              1.0927900              0.8049340
SP   1   1.00
      0.0556577              1.0000000              1.0000000
D    1   1.00
      0.6500000              1.0000000
D    1   1.00
      0.1625000              1.0000000
F    1   1.00
      0.2500000              1.0000000
****
Si     0
S    6   1.00
  16115.9000000              0.00195948
   2425.5800000              0.01492880
    553.8670000              0.07284780
    156.3400000              0.24613000
     50.0683000              0.48591400
     17.0178000              0.32500200
SP   6   1.00
    292.7180000             -0.00278094             0.00443826
     69.8731000             -0.03571460             0.03266790
     22.3363000             -0.11498500             0.13472100
      8.1503900              0.09356340             0.32867800
      3.1345800              0.60301700             0.44964000
      1.2254300              0.41895900             0.26137200
SP   3   1.00
      1.7273800             -0.24463000            -0.01779510
      0.5729220              0.00431572             0.25353900
      0.2221920              1.09818000             0.80066900
SP   1   1.00
      0.0778369              1.00000000             1.00000000
D    1   1.00
      0.9000000              1.0000000
D    1   1.00
      0.2250000              1.0000000
F    1   1.00
      0.3200000              1.0000000
****
P     0
S    6   1.00
  19413.3000000              0.0018516
   2909.4200000              0.0142062
    661.3640000              0.0699995
    185.7590000              0.2400790
     59.1943000              0.4847620
     20.0310000              0.3352000
SP   6   1.00
    339.4780000             -0.00278217             0.00456462
     81.0101000             -0.0360499              0.03369360
     25.8780000             -0.1166310              0.13975500
      9.4522100              0.0968328              0.33936200
      3.6656600              0.6144180              0.45092100
      1.4674600              0.4037980              0.23858600
SP   3   1.00
      2.1562300             -0.2529230             -0.01776530
      0.7489970              0.0328517              0.27405800
      0.2831450              1.0812500              0.78542100
SP   1   1.00
      0.0998317              1.0000000              1.00000000
D    1   1.00
      1.1000000              1.0000000
D    1   1.00
      0.2750000              1.0000000
F    1   1.00
      0.4500000              1.0000000
****
S     0
S    6   1.00
  21917.1000000              0.0018690
   3301.4900000              0.0142300
    754.1460000              0.0696960
    212.7110000              0.2384870
     67.9896000              0.4833070
     23.0515000              0.3380740
SP   6   1.00
    423.7350000             -0.0023767              0.0040610
    100.7100000             -0.0316930              0.0306810
     32.1599000             -0.1133170              0.1304520
     11.8079000              0.0560900              0.3272050
      4.6311000              0.5922550              0.4528510
      1.8702500              0.4550060              0.2560420
SP   3   1.00
      2.6158400             -0.2503740             -0.0145110
      0.9221670              0.0669570              0.3102630
      0.3412870              1.0545100              0.7544830
SP   1   1.00
      0.1171670              1.0000000              1.0000000
D    1   1.00
      1.3000000              1.0000000
D    1   1.00
      0.3250000              1.0000000
F    1   1.00
      0.5500000              1.0000000
****
Cl     0
S    6   1.00
  25180.1000000              0.0018330
   3780.3500000              0.0140340
    860.4740000              0.0690970
    242.1450000              0.2374520
     77.3349000              0.4830340
     26.2470000              0.3398560
SP   6   1.00
    491.7650000             -0.0022974              0.0039894
    116.9840000             -0.0307140              0.0303180
     37.4153000             -0.1125280              0.1298800
     13.7834000              0.0450160              0.3279510
      5.4521500              0.5893530              0.4535270
      2.2258800              0.4652060              0.2521540
SP   3   1.00
      3.1864900             -0.2518300             -0.0142990
      1.1442700              0.0615890              0.3235720
      0.4203770              1.0601800              0.7435070
SP   1   1.00
      0.1426570              1.0000000              1.0000000
D    1   1.00
      1.5000000              1.0000000
D    1   1.00
      0.3750000              1.0000000
F    1   1.00
      0.7000000              1.0000000
****
}


set {
reference rhf                          
freeze_core true
e_convergence 10                       
d_convergence 10                      
dft_spherical_points 1202
dft_radial_points 99
}

e = energy('b3lyp')

print_out('Grab this energy {0}'.format(e))
--------------------------------------------------------------------------

  Memory set to  13.039 GiB by Python driver.

Scratch directory: /tmp/

*** tstart() called on n085
*** at Sun Nov 14 15:03:32 2021

   => Loading Basis Set <=

    Name: ANONYMOUS52F9082B
    Role: ORBITAL
    Keyword: BASIS
    atoms 1-4  entry C          line    48 inputblock 6-31g_2dfp_ 
    atoms 5-14 entry H          line    15 inputblock 6-31g_2dfp_ 


         ---------------------------------------------------------
                                   SCF
               by Justin Turney, Rob Parrish, Andy Simmonett
                          and Daniel G. A. Smith
                              RKS Reference
                        4 Threads,  13351 MiB Core
         ---------------------------------------------------------

  ==> Geometry <==

    Molecular point group: c1
    Full point group: C1

    Geometry (in Bohr), charge = 0, multiplicity = 1:

       Center              X                  Y                   Z               Mass       
    ------------   -----------------  -----------------  -----------------  -----------------
         C           -3.683521849851     0.247595929345    -0.000620170883    12.000000000000
         C           -1.068506260151    -0.972695614055     0.000180606917    12.000000000000
         C            1.066553958449     0.973640658545     0.000180801217    12.000000000000
         C            3.686067641549    -0.248784724455    -0.000621056183    12.000000000000
         H           -5.186318005051    -1.167748551955    -0.002473429583     1.007825032230
         H           -3.939767094651     1.439139148545    -1.664906170583     1.007825032230
         H           -3.938136034951     1.444156521145     1.670046035017     1.007825032230
         H           -0.866939241651    -2.198635908055     1.658502976917     1.007825032230
         H           -0.868487035551    -2.196799296155    -1.655930375383     1.007825032230
         H            0.866293665449     2.198817164645     1.658623900017     1.007825032230
         H            0.867839954649     2.196980958445    -1.656049397583     1.007825032230
         H            5.184502810749     1.168837447145    -0.002474667883     1.007825032230
         H            3.937794225949    -1.438416295755    -1.665131617883     1.007825032230
         H            3.936150171349    -1.443428891155     1.670268600217     1.007825032230

  Running in c1 symmetry.

  Rotational constants: A =      0.78092  B =      0.12156  C =      0.11406 [cm^-1]
  Rotational constants: A =  23411.28022  B =   3644.13719  C =   3419.57166 [MHz]
  Nuclear repulsion =  130.687548859328359

  Charge       = 0
  Multiplicity = 1
  Electrons    = 34
  Nalpha       = 17
  Nbeta        = 17

  ==> Algorithm <==

  SCF Algorithm Type is DF.
  DIIS enabled.
  MOM disabled.
  Fractional occupation disabled.
  Guess Type is SAD.
  Energy threshold   = 1.00e-10
  Density threshold  = 1.00e-10
  Integral threshold = 0.00e+00

  ==> Primary Basis <==

  Basis Set: ANONYMOUS52F9082B
    Blend: 6-31G_2DFP_
    Number of shells: 72
    Number of basis function: 184
    Number of Cartesian functions: 204
    Spherical Harmonics?: true
    Max angular momentum: 3

  ==> DFT Potential <==

   => Composite Functional: B3LYP <= 

    B3LYP Hyb-GGA Exchange-Correlation Functional

    P. J. Stephens, F. J. Devlin, C. F. Chabalowski, and M. J. Frisch, J. Phys. Chem. 98, 11623 (1994)

    Deriv               =              1
    GGA                 =           TRUE
    Meta                =          FALSE

    Exchange Hybrid     =           TRUE
    MP2 Hybrid          =          FALSE

   => Exchange Functionals <=

    0.0800   Slater exchange
    0.7200         Becke 88

   => Exact (HF) Exchange <=

    0.2000               HF 

   => Correlation Functionals <=

    0.1900   Vosko, Wilk & Nusair (VWN5_RPA)
    0.8100   Lee, Yang & Parr

   => Molecular Quadrature <=

    Radial Scheme          =       TREUTLER
    Pruning Scheme         =           NONE
    Nuclear Scheme         =       TREUTLER

    BS radius alpha        =              1
    Pruning alpha          =              1
    Radial Points          =             99
    Spherical Points       =           1202
    Total Points           =        1550395
    Total Blocks           =          10285
    Max Points             =            256
    Max Functions          =            180
    Weights Tolerance      =       1.00E-15

   => Loading Basis Set <=

    Name: (ANONYMOUS52F9082B AUX)
    Role: JKFIT
    Keyword: DF_BASIS_SCF
    atoms 1-4  entry C          line   198 file /opt/psi/4/master/share/psi4/basis/def2-universal-jkfit.gbs 
    atoms 5-14 entry H          line    18 file /opt/psi/4/master/share/psi4/basis/def2-universal-jkfit.gbs 

  ==> Integral Setup <==

  DFHelper Memory: AOs need 0.127 GiB; user supplied 3.473 GiB. Using in-core AOs.

  ==> MemDFJK: Density-Fitted J/K Matrices <==

    J tasked:                   Yes
    K tasked:                   Yes
    wK tasked:                   No
    OpenMP threads:               4
    Memory [MiB]:              3556
    Algorithm:                 Core
    Schwarz Cutoff:           1E-12
    Mask sparsity (%):       2.9123
    Fitting Condition:        1E-10

   => Auxiliary Basis Set <=

  Basis Set: (ANONYMOUS52F9082B AUX)
    Blend: DEF2-UNIVERSAL-JKFIT
    Number of shells: 160
    Number of basis function: 480
    Number of Cartesian functions: 556
    Spherical Harmonics?: true
    Max angular momentum: 4

  Cached 100.0% of DFT collocation blocks in 6.306 [GiB].

  Minimum eigenvalue in the overlap matrix is 1.1404100503E-03.
  Reciprocal condition number of the overlap matrix is 1.8310433617E-04.
    Using symmetric orthogonalization.

  ==> Pre-Iterations <==

  SCF Guess: Superposition of Atomic Densities via on-the-fly atomic UHF (no occupation information).

   -------------------------
    Irrep   Nso     Nmo    
   -------------------------
     A        184     184 
   -------------------------
    Total     184     184
   -------------------------

  ==> Iterations <==

                           Total Energy        Delta E     RMS |[F,P]|

   @DF-RKS iter SAD:  -157.72903299533755   -1.57729e+02   0.00000e+00 
   @DF-RKS iter   1:  -158.06042899113982   -3.31396e-01   4.70958e-03 DIIS
   @DF-RKS iter   2:  -157.86268549425080    1.97743e-01   5.64733e-03 DIIS
   @DF-RKS iter   3:  -158.47198592963187   -6.09300e-01   3.41901e-04 DIIS
   @DF-RKS iter   4:  -158.47336625801196   -1.38033e-03   1.99872e-04 DIIS
   @DF-RKS iter   5:  -158.47402213852166   -6.55881e-04   3.18957e-05 DIIS
   @DF-RKS iter   6:  -158.47403849811536   -1.63596e-05   3.56064e-06 DIIS
   @DF-RKS iter   7:  -158.47403872354428   -2.25429e-07   7.06621e-07 DIIS
   @DF-RKS iter   8:  -158.47403873278364   -9.23936e-09   8.00209e-08 DIIS
   @DF-RKS iter   9:  -158.47403873285430   -7.06564e-11   5.02498e-08 DIIS
   @DF-RKS iter  10:  -158.47403873289650   -4.22062e-11   5.88441e-09 DIIS
   @DF-RKS iter  11:  -158.47403873289670   -1.98952e-13   1.22328e-09 DIIS
   @DF-RKS iter  12:  -158.47403873289693   -2.27374e-13   6.72019e-10 DIIS
   @DF-RKS iter  13:  -158.47403873289687    5.68434e-14   3.37545e-11 DIIS
  Energy and wave function converged.


  ==> Post-Iterations <==

    Orbital Energies [Eh]
    ---------------------

    Doubly Occupied:                                                      

       1A    -10.169450     2A    -10.169320     3A    -10.163816  
       4A    -10.163733     5A     -0.790361     6A     -0.719558  
       7A     -0.626162     8A     -0.572336     9A     -0.464990  
      10A     -0.421919    11A     -0.414888    12A     -0.406827  
      13A     -0.364481    14A     -0.346696    15A     -0.329470  
      16A     -0.319845    17A     -0.317907  

    Virtual:                                                              

      18A      0.079767    19A      0.104616    20A      0.122117  
      21A      0.131989    22A      0.160642    23A      0.169468  
      24A      0.174591    25A      0.177068    26A      0.185792  
      27A      0.186223    28A      0.236162    29A      0.240019  
      30A      0.250561    31A      0.393708    32A      0.407476  
      33A      0.410470    34A      0.412123    35A      0.435846  
      36A      0.448597    37A      0.475112    38A      0.492208  
      39A      0.516408    40A      0.547967    41A      0.564429  
      42A      0.580955    43A      0.584420    44A      0.603648  
      45A      0.612244    46A      0.613928    47A      0.620756  
      48A      0.626510    49A      0.634812    50A      0.636003  
      51A      0.642263    52A      0.670478    53A      0.671640  
      54A      0.687151    55A      0.791136    56A      0.798898  
      57A      0.856831    58A      0.885663    59A      0.890049  
      60A      0.915001    61A      0.947513    62A      0.963230  
      63A      1.039476    64A      1.052826    65A      1.053713  
      66A      1.106481    67A      1.123874    68A      1.137200  
      69A      1.159369    70A      1.173527    71A      1.204638  
      72A      1.204933    73A      1.239501    74A      1.260184  
      75A      1.279690    76A      1.305628    77A      1.329831  
      78A      1.334090    79A      1.345373    80A      1.347654  
      81A      1.366070    82A      1.379267    83A      1.426132  
      84A      1.458618    85A      1.462814    86A      1.489855  
      87A      1.506161    88A      1.532909    89A      1.539050  
      90A      1.568187    91A      1.585678    92A      1.628280  
      93A      1.642574    94A      1.709074    95A      1.726699  
      96A      1.754614    97A      1.778025    98A      1.795634  
      99A      1.819679   100A      1.862504   101A      1.896140  
     102A      2.029551   103A      2.088666   104A      2.123176  
     105A      2.180732   106A      2.284679   107A      2.713792  
     108A      2.749804   109A      2.755371   110A      2.828783  
     111A      2.829708   112A      2.899420   113A      2.900423  
     114A      2.934379   115A      2.957916   116A      2.966324  
     117A      2.984550   118A      2.995916   119A      3.007555  
     120A      3.040314   121A      3.101496   122A      3.157122  
     123A      3.163007   124A      3.167839   125A      3.235968  
     126A      3.261575   127A      3.331638   128A      3.394979  
     129A      3.441155   130A      3.445008   131A      3.471630  
     132A      3.481248   133A      3.507923   134A      3.574351  
     135A      3.588386   136A      3.604133   137A      3.607467  
     138A      3.629649   139A      3.651104   140A      3.686118  
     141A      3.692299   142A      3.694981   143A      3.757341  
     144A      3.831670   145A      3.855501   146A      3.973559  
     147A      3.991430   148A      4.004014   149A      4.021264  
     150A      4.072192   151A      4.073964   152A      4.161851  
     153A      4.173905   154A      4.194817   155A      4.195254  
     156A      4.216663   157A      4.244956   158A      4.292693  
     159A      4.319976   160A      4.363634   161A      4.386270  
     162A      4.426364   163A      4.430149   164A      4.479100  
     165A      4.524275   166A      4.537277   167A      4.541187  
     168A      4.559074   169A      4.565130   170A      4.574028  
     171A      4.610849   172A      4.694900   173A      4.778714  
     174A      4.789769   175A      4.933600   176A      5.003238  
     177A      5.095308   178A      5.180043   179A      5.215580  
     180A      5.297158   181A      5.305114   182A      5.332465  
     183A      5.374336   184A      5.413733  

    Final Occupation by Irrep:
              A 
    DOCC [    17 ]

  @DF-RKS Final Energy:  -158.47403873289687

   => Energetics <=

    Nuclear Repulsion Energy =            130.6875488593283592
    One-Electron Energy =                -469.9610821831739145
    Two-Electron Energy =                 201.4367495368233847
    DFT Exchange-Correlation Energy =     -20.6372549458747230
    Empirical Dispersion Energy =           0.0000000000000000
    VV10 Nonlocal Energy =                  0.0000000000000000
    Total Energy =                       -158.4740387328968723

Computation Completed


Properties will be evaluated at   0.000000,   0.000000,   0.000000 [a0]

Properties computed using the SCF density matrix

  Nuclear Dipole Moment: [e a0]
     X:    -0.0035      Y:     0.0014      Z:     0.0052

  Electronic Dipole Moment: [e a0]
     X:     0.0036      Y:    -0.0014      Z:    -0.0082

  Dipole Moment: [e a0]
     X:     0.0001      Y:     0.0000      Z:    -0.0030     Total:     0.0030

  Dipole Moment: [D]
     X:     0.0003      Y:     0.0000      Z:    -0.0077     Total:     0.0077


*** tstop() called on n085 at Sun Nov 14 15:04:02 2021
Module time:
	user time   =     115.16 seconds =       1.92 minutes
	system time =       1.69 seconds =       0.03 minutes
	total time  =         30 seconds =       0.50 minutes
Total time:
	user time   =     115.16 seconds =       1.92 minutes
	system time =       1.69 seconds =       0.03 minutes
	total time  =         30 seconds =       0.50 minutes
Grab this energy -158.47403873289687
    Psi4 stopped on: Sunday, 14 November 2021 03:04PM
    Psi4 wall time for execution: 0:00:30.01

*** Psi4 exiting successfully. Buy a developer a beer!
