
    -----------------------------------------------------------------------
          Psi4: An Open-Source Ab Initio Electronic Structure Package
                               Psi4 1.4a2.dev629 

                         Git: Rev {master} 2938fc2 dirty


    D. G. A. Smith, L. A. Burns, A. C. Simmonett, R. M. Parrish,
    M. C. Schieber, R. Galvelis, P. Kraus, H. Kruse, R. Di Remigio,
    A. Alenaizan, A. M. James, S. Lehtola, J. P. Misiewicz, M. Scheurer,
    R. A. Shaw, J. B. Schriber, Y. Xie, Z. L. Glick, D. A. Sirianni,
    J. S. O'Brien, J. M. Waldrop, A. Kumar, E. G. Hohenstein,
    B. P. Pritchard, B. R. Brooks, H. F. Schaefer III, A. Yu. Sokolov,
    K. Patkowski, A. E. DePrince III, U. Bozkaya, R. A. King,
    F. A. Evangelista, J. M. Turney, T. D. Crawford, C. D. Sherrill,
    J. Chem. Phys. 152(18) 184108 (2020). https://doi.org/10.1063/5.0006002

                            Additional Code Authors
    E. T. Seidl, C. L. Janssen, E. F. Valeev, M. L. Leininger,
    J. F. Gonthier, R. M. Richard, H. R. McAlexander, M. Saitow, X. Wang,
    P. Verma, and M. H. Lechner

             Previous Authors, Complete List of Code Contributors,
                       and Citations for Specific Modules
    https://github.com/psi4/psi4/blob/master/codemeta.json
    https://github.com/psi4/psi4/graphs/contributors
    http://psicode.org/psi4manual/master/introduction.html#citing-psifour

    -----------------------------------------------------------------------


    Psi4 started on: Sunday, 14 November 2021 03:26PM

    Process ID: 466
    Host:       n087
    PSIDATADIR: /opt/psi/4/master/share/psi4
    Memory:     500.0 MiB
    Threads:    4
    
  ==> Input File <==

--------------------------------------------------------------------------
import os
memory 14 GB 
 
molecule {
 C   -3.6843403302    0.2503322083    0.0000000000
 C   -1.0629454966   -0.9705152955    0.0000000000
 C    1.0670169620    0.9706063686    0.0000000000
 C    3.6858574915   -0.2492796726    0.0000000000
 H   -5.1826054446   -1.1691157844   -0.0000000000
 H   -3.9410568787    1.4433612109   -1.6677903679
 H   -3.9410568787    1.4433612109    1.6677903679
 H   -0.8646767658   -2.1938568139    1.6568673786
 H   -0.8646767658   -2.1938568139   -1.6568673786
 H    0.8628764907    2.1938536609    1.6567208813
 H    0.8628764907    2.1938536609   -1.6567208813
 H    5.1821008989    1.1692031748   -0.0000000000
 H    3.9403151132   -1.4439735575   -1.6675530587
 H    3.9403151132   -1.4439735575    1.6675530587
units bohr
}

basis {

assign 6-31g_2dfp_

[ 6-31g_2dfp_ ]

spherical

!----------------------------------------------------------------------
! Basis Set Exchange
! Version v0.8.13
! https://www.basissetexchange.org
!----------------------------------------------------------------------
!   Basis set: 6-31G(2df,p)
! Description: 6-31G(2df,p)
!        Role: orbital
!     Version: 0  (Data from the original Basis Set Exchange)
!----------------------------------------------------------------------


****
H     0
S    3   1.00
     18.7311370              0.03349460
      2.8253937              0.23472695
      0.6401217              0.81375733
S    1   1.00
      0.1612778              1.00000000
P    1   1.00
      1.5000000              1.0000000
P    1   1.00
      0.3750000              1.0000000
****
B     0
S    6   1.00
   2068.8823000              0.0018663
    310.6495700              0.0142515
     70.6830330              0.0695516
     19.8610800              0.2325729
      6.2993048              0.4670787
      2.1270270              0.3634314
SP   3   1.00
      4.7279710             -0.1303938              0.0745976
      1.1903377             -0.1307889              0.3078467
      0.3594117              1.1309444              0.7434568
SP   1   1.00
      0.1267512              1.0000000              1.0000000
D    1   1.00
      0.8020000              1.0000000
D    1   1.00
      0.2005000              1.0000000
F    1   1.00
      0.5000000              1.0000000
****
C     0
S    6   1.00
   3047.5249000              0.0018347
    457.3695100              0.0140373
    103.9486900              0.0688426
     29.2101550              0.2321844
      9.2866630              0.4679413
      3.1639270              0.3623120
SP   3   1.00
      7.8682724             -0.1193324              0.0689991
      1.8812885             -0.1608542              0.3164240
      0.5442493              1.1434564              0.7443083
SP   1   1.00
      0.1687144              1.0000000              1.0000000
D    1   1.00
      1.2520000              1.0000000
D    1   1.00
      0.3130000              1.0000000
F    1   1.00
      0.8000000              1.0000000
****
N     0
S    6   1.00
   4173.5110000              0.0018348
    627.4579000              0.0139950
    142.9021000              0.0685870
     40.2343300              0.2322410
     12.8202100              0.4690700
      4.3904370              0.3604550
SP   3   1.00
     11.6263580             -0.1149610              0.0675800
      2.7162800             -0.1691180              0.3239070
      0.7722180              1.1458520              0.7408950
SP   1   1.00
      0.2120313              1.0000000              1.0000000
D    1   1.00
      1.8260000              1.0000000
D    1   1.00
      0.4565000              1.0000000
F    1   1.00
      1.0000000              1.0000000
****
O     0
S    6   1.00
   5484.6717000              0.0018311
    825.2349500              0.0139501
    188.0469600              0.0684451
     52.9645000              0.2327143
     16.8975700              0.4701930
      5.7996353              0.3585209
SP   3   1.00
     15.5396160             -0.1107775              0.0708743
      3.5999336             -0.1480263              0.3397528
      1.0137618              1.1307670              0.7271586
SP   1   1.00
      0.2700058              1.0000000              1.0000000
D    1   1.00
      2.5840000              1.0000000
D    1   1.00
      0.6460000              1.0000000
F    1   1.00
      1.4000000              1.0000000
****
F     0
S    6   1.00
   7001.7130900              0.0018196169
   1051.3660900              0.0139160796
    239.2856900              0.0684053245
     67.3974453              0.233185760
     21.5199573              0.471267439
      7.40310130             0.356618546
SP   3   1.00
     20.8479528             -0.108506975            0.0716287243
      4.80830834            -0.146451658            0.3459121030
      1.34406986             1.128688580            0.7224699570
SP   1   1.00
      0.358151393            1.0000000              1.0000000
D    1   1.00
      3.5000000              1.0000000
D    1   1.00
      0.8750000              1.0000000
F    1   1.00
      1.8500000              1.0000000
****
Al     0
S    6   1.00
  13983.1000000              0.00194267
   2098.7500000              0.0148599
    477.7050000              0.0728494
    134.3600000              0.2468300
     42.8709000              0.4872580
     14.5189000              0.3234960
SP   6   1.00
    239.6680000             -0.00292619             0.00460285
     57.4419000             -0.0374080              0.0331990
     18.2859000             -0.1144870              0.1362820
      6.5991400              0.1156350              0.3304760
      2.4904900              0.6125950              0.4491460
      0.9445400              0.3937990              0.2657040
SP   3   1.00
      1.2779000             -0.2276060             -0.0175130
      0.3975900              0.00144583             0.2445330
      0.1600950              1.0927900              0.8049340
SP   1   1.00
      0.0556577              1.0000000              1.0000000
D    1   1.00
      0.6500000              1.0000000
D    1   1.00
      0.1625000              1.0000000
F    1   1.00
      0.2500000              1.0000000
****
Si     0
S    6   1.00
  16115.9000000              0.00195948
   2425.5800000              0.01492880
    553.8670000              0.07284780
    156.3400000              0.24613000
     50.0683000              0.48591400
     17.0178000              0.32500200
SP   6   1.00
    292.7180000             -0.00278094             0.00443826
     69.8731000             -0.03571460             0.03266790
     22.3363000             -0.11498500             0.13472100
      8.1503900              0.09356340             0.32867800
      3.1345800              0.60301700             0.44964000
      1.2254300              0.41895900             0.26137200
SP   3   1.00
      1.7273800             -0.24463000            -0.01779510
      0.5729220              0.00431572             0.25353900
      0.2221920              1.09818000             0.80066900
SP   1   1.00
      0.0778369              1.00000000             1.00000000
D    1   1.00
      0.9000000              1.0000000
D    1   1.00
      0.2250000              1.0000000
F    1   1.00
      0.3200000              1.0000000
****
P     0
S    6   1.00
  19413.3000000              0.0018516
   2909.4200000              0.0142062
    661.3640000              0.0699995
    185.7590000              0.2400790
     59.1943000              0.4847620
     20.0310000              0.3352000
SP   6   1.00
    339.4780000             -0.00278217             0.00456462
     81.0101000             -0.0360499              0.03369360
     25.8780000             -0.1166310              0.13975500
      9.4522100              0.0968328              0.33936200
      3.6656600              0.6144180              0.45092100
      1.4674600              0.4037980              0.23858600
SP   3   1.00
      2.1562300             -0.2529230             -0.01776530
      0.7489970              0.0328517              0.27405800
      0.2831450              1.0812500              0.78542100
SP   1   1.00
      0.0998317              1.0000000              1.00000000
D    1   1.00
      1.1000000              1.0000000
D    1   1.00
      0.2750000              1.0000000
F    1   1.00
      0.4500000              1.0000000
****
S     0
S    6   1.00
  21917.1000000              0.0018690
   3301.4900000              0.0142300
    754.1460000              0.0696960
    212.7110000              0.2384870
     67.9896000              0.4833070
     23.0515000              0.3380740
SP   6   1.00
    423.7350000             -0.0023767              0.0040610
    100.7100000             -0.0316930              0.0306810
     32.1599000             -0.1133170              0.1304520
     11.8079000              0.0560900              0.3272050
      4.6311000              0.5922550              0.4528510
      1.8702500              0.4550060              0.2560420
SP   3   1.00
      2.6158400             -0.2503740             -0.0145110
      0.9221670              0.0669570              0.3102630
      0.3412870              1.0545100              0.7544830
SP   1   1.00
      0.1171670              1.0000000              1.0000000
D    1   1.00
      1.3000000              1.0000000
D    1   1.00
      0.3250000              1.0000000
F    1   1.00
      0.5500000              1.0000000
****
Cl     0
S    6   1.00
  25180.1000000              0.0018330
   3780.3500000              0.0140340
    860.4740000              0.0690970
    242.1450000              0.2374520
     77.3349000              0.4830340
     26.2470000              0.3398560
SP   6   1.00
    491.7650000             -0.0022974              0.0039894
    116.9840000             -0.0307140              0.0303180
     37.4153000             -0.1125280              0.1298800
     13.7834000              0.0450160              0.3279510
      5.4521500              0.5893530              0.4535270
      2.2258800              0.4652060              0.2521540
SP   3   1.00
      3.1864900             -0.2518300             -0.0142990
      1.1442700              0.0615890              0.3235720
      0.4203770              1.0601800              0.7435070
SP   1   1.00
      0.1426570              1.0000000              1.0000000
D    1   1.00
      1.5000000              1.0000000
D    1   1.00
      0.3750000              1.0000000
F    1   1.00
      0.7000000              1.0000000
****
}


set {
reference rhf                          
freeze_core true
e_convergence 10                       
d_convergence 10                      
dft_spherical_points 1202
dft_radial_points 99
}

e = energy('b3lyp')

print_out('Grab this energy {0}'.format(e))
--------------------------------------------------------------------------

  Memory set to  13.039 GiB by Python driver.

Scratch directory: /tmp/

*** tstart() called on n087
*** at Sun Nov 14 15:26:02 2021

   => Loading Basis Set <=

    Name: ANONYMOUS11B519EE
    Role: ORBITAL
    Keyword: BASIS
    atoms 1-4  entry C          line    48 inputblock 6-31g_2dfp_ 
    atoms 5-14 entry H          line    15 inputblock 6-31g_2dfp_ 


         ---------------------------------------------------------
                                   SCF
               by Justin Turney, Rob Parrish, Andy Simmonett
                          and Daniel G. A. Smith
                              RKS Reference
                        4 Threads,  13351 MiB Core
         ---------------------------------------------------------

  ==> Geometry <==

    Molecular point group: cs
    Full point group: Cs

    Geometry (in Bohr), charge = 0, multiplicity = 1:

       Center              X                  Y                   Z               Mass       
    ------------   -----------------  -----------------  -----------------  -----------------
         C           -3.685398061140     0.250115763280     0.000000000000    12.000000000000
         C           -1.064003227540    -0.970731740520     0.000000000000    12.000000000000
         C            1.065959231060     0.970389923580     0.000000000000    12.000000000000
         C            3.684799760560    -0.249496117620     0.000000000000    12.000000000000
         H           -5.183663175540    -1.169332229420     0.000000000000     1.007825032230
         H           -3.942114609640     1.443144765880    -1.667790367900     1.007825032230
         H           -3.942114609640     1.443144765880     1.667790367900     1.007825032230
         H           -0.865734496740    -2.194073258920     1.656867378600     1.007825032230
         H           -0.865734496740    -2.194073258920    -1.656867378600     1.007825032230
         H            0.861818759760     2.193637215880     1.656720881300     1.007825032230
         H            0.861818759760     2.193637215880    -1.656720881300     1.007825032230
         H            5.181043167960     1.168986729780     0.000000000000     1.007825032230
         H            3.939257382260    -1.444190002520    -1.667553058700     1.007825032230
         H            3.939257382260    -1.444190002520     1.667553058700     1.007825032230

  Running in cs symmetry.

  Rotational constants: A =      0.78240  B =      0.12158  C =      0.11411 [cm^-1]
  Rotational constants: A =  23455.78303  B =   3644.75768  C =   3420.99652 [MHz]
  Nuclear repulsion =  130.723897568813300

  Charge       = 0
  Multiplicity = 1
  Electrons    = 34
  Nalpha       = 17
  Nbeta        = 17

  ==> Algorithm <==

  SCF Algorithm Type is DF.
  DIIS enabled.
  MOM disabled.
  Fractional occupation disabled.
  Guess Type is SAD.
  Energy threshold   = 1.00e-10
  Density threshold  = 1.00e-10
  Integral threshold = 0.00e+00

  ==> Primary Basis <==

  Basis Set: ANONYMOUS11B519EE
    Blend: 6-31G_2DFP_
    Number of shells: 72
    Number of basis function: 184
    Number of Cartesian functions: 204
    Spherical Harmonics?: true
    Max angular momentum: 3

  ==> DFT Potential <==

   => Composite Functional: B3LYP <= 

    B3LYP Hyb-GGA Exchange-Correlation Functional

    P. J. Stephens, F. J. Devlin, C. F. Chabalowski, and M. J. Frisch, J. Phys. Chem. 98, 11623 (1994)

    Deriv               =              1
    GGA                 =           TRUE
    Meta                =          FALSE

    Exchange Hybrid     =           TRUE
    MP2 Hybrid          =          FALSE

   => Exchange Functionals <=

    0.0800   Slater exchange
    0.7200         Becke 88

   => Exact (HF) Exchange <=

    0.2000               HF 

   => Correlation Functionals <=

    0.1900   Vosko, Wilk & Nusair (VWN5_RPA)
    0.8100   Lee, Yang & Parr

   => Molecular Quadrature <=

    Radial Scheme          =       TREUTLER
    Pruning Scheme         =           NONE
    Nuclear Scheme         =       TREUTLER

    BS radius alpha        =              1
    Pruning alpha          =              1
    Radial Points          =             99
    Spherical Points       =           1202
    Total Points           =        1550366
    Total Blocks           =          10237
    Max Points             =            256
    Max Functions          =            180
    Weights Tolerance      =       1.00E-15

   => Loading Basis Set <=

    Name: (ANONYMOUS11B519EE AUX)
    Role: JKFIT
    Keyword: DF_BASIS_SCF
    atoms 1-4  entry C          line   198 file /opt/psi/4/master/share/psi4/basis/def2-universal-jkfit.gbs 
    atoms 5-14 entry H          line    18 file /opt/psi/4/master/share/psi4/basis/def2-universal-jkfit.gbs 

  ==> Integral Setup <==

  DFHelper Memory: AOs need 0.127 GiB; user supplied 3.473 GiB. Using in-core AOs.

  ==> MemDFJK: Density-Fitted J/K Matrices <==

    J tasked:                   Yes
    K tasked:                   Yes
    wK tasked:                   No
    OpenMP threads:               4
    Memory [MiB]:              3556
    Algorithm:                 Core
    Schwarz Cutoff:           1E-12
    Mask sparsity (%):       2.9301
    Fitting Condition:        1E-10

   => Auxiliary Basis Set <=

  Basis Set: (ANONYMOUS11B519EE AUX)
    Blend: DEF2-UNIVERSAL-JKFIT
    Number of shells: 160
    Number of basis function: 480
    Number of Cartesian functions: 556
    Spherical Harmonics?: true
    Max angular momentum: 4

  Cached 100.0% of DFT collocation blocks in 6.305 [GiB].

  Minimum eigenvalue in the overlap matrix is 1.1375490676E-03.
  Reciprocal condition number of the overlap matrix is 1.9890166329E-04.
    Using symmetric orthogonalization.

  ==> Pre-Iterations <==

  SCF Guess: Superposition of Atomic Densities via on-the-fly atomic UHF (no occupation information).

   -------------------------
    Irrep   Nso     Nmo    
   -------------------------
     A'       112     112 
     A"        72      72 
   -------------------------
    Total     184     184
   -------------------------

  ==> Iterations <==

                           Total Energy        Delta E     RMS |[F,P]|

   @DF-RKS iter SAD:  -157.73138408857511   -1.57731e+02   0.00000e+00 
   @DF-RKS iter   1:  -158.06027612030073   -3.28892e-01   6.50950e-03 DIIS
   @DF-RKS iter   2:  -157.86239580052182    1.97880e-01   7.80669e-03 DIIS
   @DF-RKS iter   3:  -158.47197928226382   -6.09583e-01   4.72473e-04 DIIS
   @DF-RKS iter   4:  -158.47335776018701   -1.37848e-03   2.76549e-04 DIIS
   @DF-RKS iter   5:  -158.47401520678244   -6.57447e-04   4.41943e-05 DIIS
   @DF-RKS iter   6:  -158.47403165507004   -1.64483e-05   4.90512e-06 DIIS
   @DF-RKS iter   7:  -158.47403187932946   -2.24259e-07   9.67283e-07 DIIS
   @DF-RKS iter   8:  -158.47403188843057   -9.10111e-09   9.69747e-08 DIIS
   @DF-RKS iter   9:  -158.47403188849381   -6.32383e-11   5.35999e-08 DIIS
   @DF-RKS iter  10:  -158.47403188851857   -2.47553e-11   9.25435e-09 DIIS
   @DF-RKS iter  11:  -158.47403188851928   -7.10543e-13   1.35135e-09 DIIS
   @DF-RKS iter  12:  -158.47403188851953   -2.55795e-13   8.21327e-10 DIIS
   @DF-RKS iter  13:  -158.47403188851911    4.26326e-13   2.96108e-11 DIIS
  Energy and wave function converged.


  ==> Post-Iterations <==

    Orbital Energies [Eh]
    ---------------------

    Doubly Occupied:                                                      

       1Ap   -10.169139     2Ap   -10.169007     3Ap   -10.163918  
       4Ap   -10.163855     5Ap    -0.790721     6Ap    -0.719277  
       7Ap    -0.626555     8Ap    -0.572301     1App   -0.465241  
       9Ap    -0.421956    10Ap    -0.414903     2App   -0.406537  
      11Ap    -0.364706     3App   -0.346866    12Ap    -0.329099  
       4App   -0.319763    13Ap    -0.318319  

    Virtual:                                                              

      14Ap     0.079794    15Ap     0.104623     5App    0.122136  
      16Ap     0.132099    17Ap     0.160560    18Ap     0.169328  
      19Ap     0.175048     6App    0.176944     7App    0.185922  
       8App    0.186211    20Ap     0.236103    21Ap     0.239926  
      22Ap     0.251164    23Ap     0.393634     9App    0.407637  
      24Ap     0.410665    10App    0.411842    25Ap     0.435671  
      11App    0.448695    26Ap     0.475122    12App    0.492368  
      27Ap     0.516161    28Ap     0.548335    29Ap     0.565167  
      30Ap     0.581031    31Ap     0.584022    32Ap     0.604232  
      13App    0.612091    33Ap     0.613766    14App    0.621076  
      15App    0.627018    16App    0.634688    17App    0.636050  
      34Ap     0.642330    35Ap     0.670725    36Ap     0.671605  
      37Ap     0.687271    18App    0.790712    19App    0.799559  
      38Ap     0.857049    20App    0.886019    21App    0.889877  
      22App    0.915046    39Ap     0.947864    40Ap     0.962933  
      23App    1.039683    41Ap     1.052086    42Ap     1.053889  
      43Ap     1.106641    44Ap     1.123975    24App    1.137457  
      25App    1.159191    45Ap     1.174019    46Ap     1.204987  
      26App    1.205891    47Ap     1.240772    48Ap     1.259891  
      27App    1.280150    49Ap     1.305432    50Ap     1.330492  
      28App    1.333385    29App    1.346086    51Ap     1.346648  
      52Ap     1.366480    53Ap     1.379332    30App    1.426330  
      31App    1.458554    54Ap     1.462865    55Ap     1.489713  
      56Ap     1.506395    32App    1.532640    57Ap     1.539803  
      33App    1.567857    58Ap     1.586282    34App    1.628906  
      59Ap     1.642817    60Ap     1.709970    61Ap     1.727786  
      62Ap     1.754710    35App    1.778934    63Ap     1.794895  
      64Ap     1.819814    65Ap     1.862615    36App    1.895844  
      66Ap     2.028948    67Ap     2.089068    68Ap     2.126006  
      37App    2.180272    38App    2.286104    69Ap     2.713552  
      70Ap     2.750256    71Ap     2.755764    39App    2.829128  
      40App    2.829560    72Ap     2.899892    41App    2.901019  
      42App    2.934194    43App    2.957979    44App    2.966658  
      45App    2.985219    73Ap     2.996611    74Ap     3.007326  
      46App    3.040095    47App    3.101452    75Ap     3.157703  
      76Ap     3.162768    48App    3.168029    77Ap     3.235110  
      78Ap     3.262406    49App    3.332305    79Ap     3.394343  
      80Ap     3.442191    50App    3.444973    81Ap     3.472105  
      51App    3.481615    82Ap     3.508563    83Ap     3.574019  
      84Ap     3.588232    52App    3.604206    85Ap     3.607404  
      53App    3.629240    86Ap     3.651001    87Ap     3.686306  
      54App    3.691199    55App    3.696599    88Ap     3.758451  
      89Ap     3.831423    90Ap     3.856976    56App    3.972756  
      91Ap     3.991770    57App    4.004047    92Ap     4.021644  
      93Ap     4.073132    58App    4.073828    94Ap     4.162779  
      95Ap     4.174396    59App    4.193952    96Ap     4.195303  
      60App    4.216697    97Ap     4.246277    98Ap     4.292183  
      99Ap     4.320343    61App    4.364808    62App    4.385998  
      63App    4.426544   100Ap     4.429759   101Ap     4.478824  
      64App    4.524226   102Ap     4.539965    65App    4.541115  
     103Ap     4.561707    66App    4.566717    67App    4.575121  
      68App    4.612802   104Ap     4.695547   105Ap     4.777497  
     106Ap     4.793213   107Ap     4.933902   108Ap     5.004305  
     109Ap     5.094935   110Ap     5.182817    69App    5.216148  
     111Ap     5.296868   112Ap     5.305530    70App    5.331487  
      71App    5.373012    72App    5.417920  

    Final Occupation by Irrep:
             Ap   App 
    DOCC [    13,    4 ]

  @DF-RKS Final Energy:  -158.47403188851911

   => Energetics <=

    Nuclear Repulsion Energy =            130.7238975688132996
    One-Electron Energy =                -470.0323470419909313
    Two-Electron Energy =                 201.4725700218027100
    DFT Exchange-Correlation Energy =     -20.6381524371441714
    Empirical Dispersion Energy =           0.0000000000000000
    VV10 Nonlocal Energy =                  0.0000000000000000
    Total Energy =                       -158.4740318885191073

Computation Completed


Properties will be evaluated at   0.000000,   0.000000,   0.000000 [a0]

Properties computed using the SCF density matrix

  Nuclear Dipole Moment: [e a0]
     X:    -0.0080      Y:    -0.0016      Z:     0.0000

  Electronic Dipole Moment: [e a0]
     X:     0.0085      Y:     0.0017      Z:     0.0000

  Dipole Moment: [e a0]
     X:     0.0005      Y:     0.0000      Z:     0.0000     Total:     0.0005

  Dipole Moment: [D]
     X:     0.0013      Y:     0.0001      Z:     0.0000     Total:     0.0013


*** tstop() called on n087 at Sun Nov 14 15:26:32 2021
Module time:
	user time   =     115.68 seconds =       1.93 minutes
	system time =       1.74 seconds =       0.03 minutes
	total time  =         30 seconds =       0.50 minutes
Total time:
	user time   =     115.68 seconds =       1.93 minutes
	system time =       1.74 seconds =       0.03 minutes
	total time  =         30 seconds =       0.50 minutes
Grab this energy -158.4740318885191
    Psi4 stopped on: Sunday, 14 November 2021 03:26PM
    Psi4 wall time for execution: 0:00:30.17

*** Psi4 exiting successfully. Buy a developer a beer!
