
    -----------------------------------------------------------------------
          Psi4: An Open-Source Ab Initio Electronic Structure Package
                               Psi4 1.4a2.dev629 

                         Git: Rev {master} 2938fc2 dirty


    D. G. A. Smith, L. A. Burns, A. C. Simmonett, R. M. Parrish,
    M. C. Schieber, R. Galvelis, P. Kraus, H. Kruse, R. Di Remigio,
    A. Alenaizan, A. M. James, S. Lehtola, J. P. Misiewicz, M. Scheurer,
    R. A. Shaw, J. B. Schriber, Y. Xie, Z. L. Glick, D. A. Sirianni,
    J. S. O'Brien, J. M. Waldrop, A. Kumar, E. G. Hohenstein,
    B. P. Pritchard, B. R. Brooks, H. F. Schaefer III, A. Yu. Sokolov,
    K. Patkowski, A. E. DePrince III, U. Bozkaya, R. A. King,
    F. A. Evangelista, J. M. Turney, T. D. Crawford, C. D. Sherrill,
    J. Chem. Phys. 152(18) 184108 (2020). https://doi.org/10.1063/5.0006002

                            Additional Code Authors
    E. T. Seidl, C. L. Janssen, E. F. Valeev, M. L. Leininger,
    J. F. Gonthier, R. M. Richard, H. R. McAlexander, M. Saitow, X. Wang,
    P. Verma, and M. H. Lechner

             Previous Authors, Complete List of Code Contributors,
                       and Citations for Specific Modules
    https://github.com/psi4/psi4/blob/master/codemeta.json
    https://github.com/psi4/psi4/graphs/contributors
    http://psicode.org/psi4manual/master/introduction.html#citing-psifour

    -----------------------------------------------------------------------


    Psi4 started on: Sunday, 14 November 2021 03:55PM

    Process ID: 13046
    Host:       n023
    PSIDATADIR: /opt/psi/4/master/share/psi4
    Memory:     500.0 MiB
    Threads:    4
    
  ==> Input File <==

--------------------------------------------------------------------------
import os
memory 14 GB 
 
molecule {
 C   -3.6845694896    0.2481849127   -0.0007121615
 C   -1.0680544242   -0.9716812418   -0.0008319968
 C    1.0670070068    0.9746529877    0.0008341365
 C    3.6850217155   -0.2481963477    0.0007124445
 H   -5.1860396770   -1.1685157410    0.0010873323
 H   -3.9397290961    1.4404107098   -1.6704084669
 H   -3.9350580329    1.4415169138    1.6656923534
 H   -0.8634926263   -2.1973874928    1.6588067406
 H   -0.8715132055   -2.1988391193   -1.6641194757
 H    0.8712776784    2.1982203034    1.6557424399
 H    0.8632959644    2.1967677753   -1.6504293728
 H    5.1847803323    1.1680761458   -0.0010861911
 H    3.9362003501   -1.4421552198   -1.6647706216
 H    3.9408735042   -1.4410545860    1.6694828391
units bohr
}

basis {

assign 6-31g_2dfp_

[ 6-31g_2dfp_ ]

spherical

!----------------------------------------------------------------------
! Basis Set Exchange
! Version v0.8.13
! https://www.basissetexchange.org
!----------------------------------------------------------------------
!   Basis set: 6-31G(2df,p)
! Description: 6-31G(2df,p)
!        Role: orbital
!     Version: 0  (Data from the original Basis Set Exchange)
!----------------------------------------------------------------------


****
H     0
S    3   1.00
     18.7311370              0.03349460
      2.8253937              0.23472695
      0.6401217              0.81375733
S    1   1.00
      0.1612778              1.00000000
P    1   1.00
      1.5000000              1.0000000
P    1   1.00
      0.3750000              1.0000000
****
B     0
S    6   1.00
   2068.8823000              0.0018663
    310.6495700              0.0142515
     70.6830330              0.0695516
     19.8610800              0.2325729
      6.2993048              0.4670787
      2.1270270              0.3634314
SP   3   1.00
      4.7279710             -0.1303938              0.0745976
      1.1903377             -0.1307889              0.3078467
      0.3594117              1.1309444              0.7434568
SP   1   1.00
      0.1267512              1.0000000              1.0000000
D    1   1.00
      0.8020000              1.0000000
D    1   1.00
      0.2005000              1.0000000
F    1   1.00
      0.5000000              1.0000000
****
C     0
S    6   1.00
   3047.5249000              0.0018347
    457.3695100              0.0140373
    103.9486900              0.0688426
     29.2101550              0.2321844
      9.2866630              0.4679413
      3.1639270              0.3623120
SP   3   1.00
      7.8682724             -0.1193324              0.0689991
      1.8812885             -0.1608542              0.3164240
      0.5442493              1.1434564              0.7443083
SP   1   1.00
      0.1687144              1.0000000              1.0000000
D    1   1.00
      1.2520000              1.0000000
D    1   1.00
      0.3130000              1.0000000
F    1   1.00
      0.8000000              1.0000000
****
N     0
S    6   1.00
   4173.5110000              0.0018348
    627.4579000              0.0139950
    142.9021000              0.0685870
     40.2343300              0.2322410
     12.8202100              0.4690700
      4.3904370              0.3604550
SP   3   1.00
     11.6263580             -0.1149610              0.0675800
      2.7162800             -0.1691180              0.3239070
      0.7722180              1.1458520              0.7408950
SP   1   1.00
      0.2120313              1.0000000              1.0000000
D    1   1.00
      1.8260000              1.0000000
D    1   1.00
      0.4565000              1.0000000
F    1   1.00
      1.0000000              1.0000000
****
O     0
S    6   1.00
   5484.6717000              0.0018311
    825.2349500              0.0139501
    188.0469600              0.0684451
     52.9645000              0.2327143
     16.8975700              0.4701930
      5.7996353              0.3585209
SP   3   1.00
     15.5396160             -0.1107775              0.0708743
      3.5999336             -0.1480263              0.3397528
      1.0137618              1.1307670              0.7271586
SP   1   1.00
      0.2700058              1.0000000              1.0000000
D    1   1.00
      2.5840000              1.0000000
D    1   1.00
      0.6460000              1.0000000
F    1   1.00
      1.4000000              1.0000000
****
F     0
S    6   1.00
   7001.7130900              0.0018196169
   1051.3660900              0.0139160796
    239.2856900              0.0684053245
     67.3974453              0.233185760
     21.5199573              0.471267439
      7.40310130             0.356618546
SP   3   1.00
     20.8479528             -0.108506975            0.0716287243
      4.80830834            -0.146451658            0.3459121030
      1.34406986             1.128688580            0.7224699570
SP   1   1.00
      0.358151393            1.0000000              1.0000000
D    1   1.00
      3.5000000              1.0000000
D    1   1.00
      0.8750000              1.0000000
F    1   1.00
      1.8500000              1.0000000
****
Al     0
S    6   1.00
  13983.1000000              0.00194267
   2098.7500000              0.0148599
    477.7050000              0.0728494
    134.3600000              0.2468300
     42.8709000              0.4872580
     14.5189000              0.3234960
SP   6   1.00
    239.6680000             -0.00292619             0.00460285
     57.4419000             -0.0374080              0.0331990
     18.2859000             -0.1144870              0.1362820
      6.5991400              0.1156350              0.3304760
      2.4904900              0.6125950              0.4491460
      0.9445400              0.3937990              0.2657040
SP   3   1.00
      1.2779000             -0.2276060             -0.0175130
      0.3975900              0.00144583             0.2445330
      0.1600950              1.0927900              0.8049340
SP   1   1.00
      0.0556577              1.0000000              1.0000000
D    1   1.00
      0.6500000              1.0000000
D    1   1.00
      0.1625000              1.0000000
F    1   1.00
      0.2500000              1.0000000
****
Si     0
S    6   1.00
  16115.9000000              0.00195948
   2425.5800000              0.01492880
    553.8670000              0.07284780
    156.3400000              0.24613000
     50.0683000              0.48591400
     17.0178000              0.32500200
SP   6   1.00
    292.7180000             -0.00278094             0.00443826
     69.8731000             -0.03571460             0.03266790
     22.3363000             -0.11498500             0.13472100
      8.1503900              0.09356340             0.32867800
      3.1345800              0.60301700             0.44964000
      1.2254300              0.41895900             0.26137200
SP   3   1.00
      1.7273800             -0.24463000            -0.01779510
      0.5729220              0.00431572             0.25353900
      0.2221920              1.09818000             0.80066900
SP   1   1.00
      0.0778369              1.00000000             1.00000000
D    1   1.00
      0.9000000              1.0000000
D    1   1.00
      0.2250000              1.0000000
F    1   1.00
      0.3200000              1.0000000
****
P     0
S    6   1.00
  19413.3000000              0.0018516
   2909.4200000              0.0142062
    661.3640000              0.0699995
    185.7590000              0.2400790
     59.1943000              0.4847620
     20.0310000              0.3352000
SP   6   1.00
    339.4780000             -0.00278217             0.00456462
     81.0101000             -0.0360499              0.03369360
     25.8780000             -0.1166310              0.13975500
      9.4522100              0.0968328              0.33936200
      3.6656600              0.6144180              0.45092100
      1.4674600              0.4037980              0.23858600
SP   3   1.00
      2.1562300             -0.2529230             -0.01776530
      0.7489970              0.0328517              0.27405800
      0.2831450              1.0812500              0.78542100
SP   1   1.00
      0.0998317              1.0000000              1.00000000
D    1   1.00
      1.1000000              1.0000000
D    1   1.00
      0.2750000              1.0000000
F    1   1.00
      0.4500000              1.0000000
****
S     0
S    6   1.00
  21917.1000000              0.0018690
   3301.4900000              0.0142300
    754.1460000              0.0696960
    212.7110000              0.2384870
     67.9896000              0.4833070
     23.0515000              0.3380740
SP   6   1.00
    423.7350000             -0.0023767              0.0040610
    100.7100000             -0.0316930              0.0306810
     32.1599000             -0.1133170              0.1304520
     11.8079000              0.0560900              0.3272050
      4.6311000              0.5922550              0.4528510
      1.8702500              0.4550060              0.2560420
SP   3   1.00
      2.6158400             -0.2503740             -0.0145110
      0.9221670              0.0669570              0.3102630
      0.3412870              1.0545100              0.7544830
SP   1   1.00
      0.1171670              1.0000000              1.0000000
D    1   1.00
      1.3000000              1.0000000
D    1   1.00
      0.3250000              1.0000000
F    1   1.00
      0.5500000              1.0000000
****
Cl     0
S    6   1.00
  25180.1000000              0.0018330
   3780.3500000              0.0140340
    860.4740000              0.0690970
    242.1450000              0.2374520
     77.3349000              0.4830340
     26.2470000              0.3398560
SP   6   1.00
    491.7650000             -0.0022974              0.0039894
    116.9840000             -0.0307140              0.0303180
     37.4153000             -0.1125280              0.1298800
     13.7834000              0.0450160              0.3279510
      5.4521500              0.5893530              0.4535270
      2.2258800              0.4652060              0.2521540
SP   3   1.00
      3.1864900             -0.2518300             -0.0142990
      1.1442700              0.0615890              0.3235720
      0.4203770              1.0601800              0.7435070
SP   1   1.00
      0.1426570              1.0000000              1.0000000
D    1   1.00
      1.5000000              1.0000000
D    1   1.00
      0.3750000              1.0000000
F    1   1.00
      0.7000000              1.0000000
****
}


set {
reference rhf                          
freeze_core true
e_convergence 10                       
d_convergence 10                      
dft_spherical_points 1202
dft_radial_points 99
}

e = energy('b3lyp')

print_out('Grab this energy {0}'.format(e))
--------------------------------------------------------------------------

  Memory set to  13.039 GiB by Python driver.

Scratch directory: /tmp/

*** tstart() called on n023
*** at Sun Nov 14 15:55:03 2021

   => Loading Basis Set <=

    Name: ANONYMOUS6A67962B
    Role: ORBITAL
    Keyword: BASIS
    atoms 1-4  entry C          line    48 inputblock 6-31g_2dfp_ 
    atoms 5-14 entry H          line    15 inputblock 6-31g_2dfp_ 


         ---------------------------------------------------------
                                   SCF
               by Justin Turney, Rob Parrish, Andy Simmonett
                          and Daniel G. A. Smith
                              RKS Reference
                        4 Threads,  13351 MiB Core
         ---------------------------------------------------------

  ==> Geometry <==

    Molecular point group: c1
    Full point group: C1

    Geometry (in Bohr), charge = 0, multiplicity = 1:

       Center              X                  Y                   Z               Mass       
    ------------   -----------------  -----------------  -----------------  -----------------
         C           -3.684456840735     0.247624629715    -0.000712620030    12.000000000000
         C           -1.067941775335    -0.972241524785    -0.000832455330    12.000000000000
         C            1.067119655665     0.974092704715     0.000833677970    12.000000000000
         C            3.685134364365    -0.248756630685     0.000711985970    12.000000000000
         H           -5.185927028135    -1.169076023985     0.001086873770     1.007825032230
         H           -3.939616447235     1.439850426815    -1.670408925430     1.007825032230
         H           -3.934945384035     1.440956630815     1.665691894870     1.007825032230
         H           -0.863379977435    -2.197947775785     1.658806282070     1.007825032230
         H           -0.871400556635    -2.199399402285    -1.664119934230     1.007825032230
         H            0.871390327265     2.197660020415     1.655741981370     1.007825032230
         H            0.863408613265     2.196207492315    -1.650429831330     1.007825032230
         H            5.184892981165     1.167515862815    -0.001086649630     1.007825032230
         H            3.936312998965    -1.442715502785    -1.664771080130     1.007825032230
         H            3.940986153065    -1.441614868985     1.669482380570     1.007825032230

  Running in c1 symmetry.

  Rotational constants: A =      0.78092  B =      0.12156  C =      0.11406 [cm^-1]
  Rotational constants: A =  23411.31376  B =   3644.13436  C =   3419.56973 [MHz]
  Nuclear repulsion =  130.687552215097355

  Charge       = 0
  Multiplicity = 1
  Electrons    = 34
  Nalpha       = 17
  Nbeta        = 17

  ==> Algorithm <==

  SCF Algorithm Type is DF.
  DIIS enabled.
  MOM disabled.
  Fractional occupation disabled.
  Guess Type is SAD.
  Energy threshold   = 1.00e-10
  Density threshold  = 1.00e-10
  Integral threshold = 0.00e+00

  ==> Primary Basis <==

  Basis Set: ANONYMOUS6A67962B
    Blend: 6-31G_2DFP_
    Number of shells: 72
    Number of basis function: 184
    Number of Cartesian functions: 204
    Spherical Harmonics?: true
    Max angular momentum: 3

  ==> DFT Potential <==

   => Composite Functional: B3LYP <= 

    B3LYP Hyb-GGA Exchange-Correlation Functional

    P. J. Stephens, F. J. Devlin, C. F. Chabalowski, and M. J. Frisch, J. Phys. Chem. 98, 11623 (1994)

    Deriv               =              1
    GGA                 =           TRUE
    Meta                =          FALSE

    Exchange Hybrid     =           TRUE
    MP2 Hybrid          =          FALSE

   => Exchange Functionals <=

    0.0800   Slater exchange
    0.7200         Becke 88

   => Exact (HF) Exchange <=

    0.2000               HF 

   => Correlation Functionals <=

    0.1900   Vosko, Wilk & Nusair (VWN5_RPA)
    0.8100   Lee, Yang & Parr

   => Molecular Quadrature <=

    Radial Scheme          =       TREUTLER
    Pruning Scheme         =           NONE
    Nuclear Scheme         =       TREUTLER

    BS radius alpha        =              1
    Pruning alpha          =              1
    Radial Points          =             99
    Spherical Points       =           1202
    Total Points           =        1550396
    Total Blocks           =          10259
    Max Points             =            256
    Max Functions          =            180
    Weights Tolerance      =       1.00E-15

   => Loading Basis Set <=

    Name: (ANONYMOUS6A67962B AUX)
    Role: JKFIT
    Keyword: DF_BASIS_SCF
    atoms 1-4  entry C          line   198 file /opt/psi/4/master/share/psi4/basis/def2-universal-jkfit.gbs 
    atoms 5-14 entry H          line    18 file /opt/psi/4/master/share/psi4/basis/def2-universal-jkfit.gbs 

  ==> Integral Setup <==

  DFHelper Memory: AOs need 0.127 GiB; user supplied 3.473 GiB. Using in-core AOs.

  ==> MemDFJK: Density-Fitted J/K Matrices <==

    J tasked:                   Yes
    K tasked:                   Yes
    wK tasked:                   No
    OpenMP threads:               4
    Memory [MiB]:              3555
    Algorithm:                 Core
    Schwarz Cutoff:           1E-12
    Mask sparsity (%):       2.9064
    Fitting Condition:        1E-10

   => Auxiliary Basis Set <=

  Basis Set: (ANONYMOUS6A67962B AUX)
    Blend: DEF2-UNIVERSAL-JKFIT
    Number of shells: 160
    Number of basis function: 480
    Number of Cartesian functions: 556
    Spherical Harmonics?: true
    Max angular momentum: 4

  Cached 100.0% of DFT collocation blocks in 6.306 [GiB].

  Minimum eigenvalue in the overlap matrix is 1.1404275331E-03.
  Reciprocal condition number of the overlap matrix is 1.8310664136E-04.
    Using symmetric orthogonalization.

  ==> Pre-Iterations <==

  SCF Guess: Superposition of Atomic Densities via on-the-fly atomic UHF (no occupation information).

   -------------------------
    Irrep   Nso     Nmo    
   -------------------------
     A        184     184 
   -------------------------
    Total     184     184
   -------------------------

  ==> Iterations <==

                           Total Energy        Delta E     RMS |[F,P]|

   @DF-RKS iter SAD:  -157.72903168554225   -1.57729e+02   0.00000e+00 
   @DF-RKS iter   1:  -158.06042627603156   -3.31395e-01   4.70957e-03 DIIS
   @DF-RKS iter   2:  -157.86268528428087    1.97741e-01   5.64731e-03 DIIS
   @DF-RKS iter   3:  -158.47198100001026   -6.09296e-01   3.41926e-04 DIIS
   @DF-RKS iter   4:  -158.47336154695353   -1.38055e-03   1.99883e-04 DIIS
   @DF-RKS iter   5:  -158.47401750344125   -6.55956e-04   3.18954e-05 DIIS
   @DF-RKS iter   6:  -158.47403386264247   -1.63592e-05   3.56187e-06 DIIS
   @DF-RKS iter   7:  -158.47403408804939   -2.25407e-07   7.13925e-07 DIIS
   @DF-RKS iter   8:  -158.47403409739516   -9.34577e-09   1.04148e-07 DIIS
   @DF-RKS iter   9:  -158.47403409750046   -1.05302e-10   7.05992e-08 DIIS
   @DF-RKS iter  10:  -158.47403409758610   -8.56346e-11   5.00949e-09 DIIS
   @DF-RKS iter  11:  -158.47403409758653   -4.26326e-13   6.63576e-10 DIIS
   @DF-RKS iter  12:  -158.47403409758653    0.00000e+00   2.89416e-10 DIIS
   @DF-RKS iter  13:  -158.47403409758681   -2.84217e-13   3.69619e-11 DIIS
  Energy and wave function converged.


  ==> Post-Iterations <==

    Orbital Energies [Eh]
    ---------------------

    Doubly Occupied:                                                      

       1A    -10.169792     2A    -10.168978     3A    -10.163824  
       4A    -10.163726     5A     -0.790362     6A     -0.719558  
       7A     -0.626164     8A     -0.572334     9A     -0.464992  
      10A     -0.421920    11A     -0.414884    12A     -0.406828  
      13A     -0.364482    14A     -0.346695    15A     -0.329476  
      16A     -0.319883    17A     -0.317865  

    Virtual:                                                              

      18A      0.079767    19A      0.104615    20A      0.122115  
      21A      0.131989    22A      0.160639    23A      0.169466  
      24A      0.174609    25A      0.177057    26A      0.185642  
      27A      0.186376    28A      0.236177    29A      0.240009  
      30A      0.250554    31A      0.393707    32A      0.407466  
      33A      0.410480    34A      0.412127    35A      0.435848  
      36A      0.448595    37A      0.475114    38A      0.492207  
      39A      0.516407    40A      0.547968    41A      0.564424  
      42A      0.580965    43A      0.584412    44A      0.603645  
      45A      0.612373    46A      0.613789    47A      0.620728  
      48A      0.626528    49A      0.634863    50A      0.636036  
      51A      0.642200    52A      0.670354    53A      0.671762  
      54A      0.687163    55A      0.791127    56A      0.798904  
      57A      0.856833    58A      0.885656    59A      0.890051  
      60A      0.914999    61A      0.947509    62A      0.963230  
      63A      1.039464    64A      1.052844    65A      1.053709  
      66A      1.106461    67A      1.123877    68A      1.137227  
      69A      1.159376    70A      1.173524    71A      1.204538  
      72A      1.205019    73A      1.239505    74A      1.260197  
      75A      1.279690    76A      1.305631    77A      1.329865  
      78A      1.334034    79A      1.345375    80A      1.347677  
      81A      1.366064    82A      1.379262    83A      1.426144  
      84A      1.458682    85A      1.462728    86A      1.489845  
      87A      1.506162    88A      1.532899    89A      1.539048  
      90A      1.568174    91A      1.585674    92A      1.628313  
      93A      1.642561    94A      1.709071    95A      1.726646  
      96A      1.754633    97A      1.778220    98A      1.795467  
      99A      1.819704   100A      1.862589   101A      1.896042  
     102A      2.029572   103A      2.088623   104A      2.123224  
     105A      2.180700   106A      2.284680   107A      2.713794  
     108A      2.749799   109A      2.755378   110A      2.828787  
     111A      2.829701   112A      2.899105   113A      2.900723  
     114A      2.934404   115A      2.957909   116A      2.966350  
     117A      2.984549   118A      2.995891   119A      3.007559  
     120A      3.040335   121A      3.101506   122A      3.157127  
     123A      3.163025   124A      3.167829   125A      3.235966  
     126A      3.261580   127A      3.331652   128A      3.394949  
     129A      3.441125   130A      3.445058   131A      3.471611  
     132A      3.481260   133A      3.507918   134A      3.574326  
     135A      3.588302   136A      3.603891   137A      3.607721  
     138A      3.629709   139A      3.651098   140A      3.686084  
     141A      3.692247   142A      3.695053   143A      3.757331  
     144A      3.831669   145A      3.855504   146A      3.973573  
     147A      3.991477   148A      4.003914   149A      4.021336  
     150A      4.072659   151A      4.073530   152A      4.161823  
     153A      4.173880   154A      4.194745   155A      4.195259  
     156A      4.216634   157A      4.245184   158A      4.292648  
     159A      4.319959   160A      4.363707   161A      4.386222  
     162A      4.426465   163A      4.429975   164A      4.479098  
     165A      4.524242   166A      4.537238   167A      4.541149  
     168A      4.558900   169A      4.565327   170A      4.574082  
     171A      4.610915   172A      4.694934   173A      4.778736  
     174A      4.789751   175A      4.933616   176A      5.003230  
     177A      5.095276   178A      5.180127   179A      5.215510  
     180A      5.297101   181A      5.305481   182A      5.332121  
     183A      5.373887   184A      5.414247  

    Final Occupation by Irrep:
              A 
    DOCC [    17 ]

  @DF-RKS Final Energy:  -158.47403409758681

   => Energetics <=

    Nuclear Repulsion Energy =            130.6875522150973552
    One-Electron Energy =                -469.9610780296600865
    Two-Electron Energy =                 201.4367472421581056
    DFT Exchange-Correlation Energy =     -20.6372555251821836
    Empirical Dispersion Energy =           0.0000000000000000
    VV10 Nonlocal Energy =                  0.0000000000000000
    Total Energy =                       -158.4740340975868094

Computation Completed


Properties will be evaluated at   0.000000,   0.000000,   0.000000 [a0]

Properties computed using the SCF density matrix

  Nuclear Dipole Moment: [e a0]
     X:     0.0009      Y:    -0.0042      Z:    -0.0000

  Electronic Dipole Moment: [e a0]
     X:    -0.0010      Y:     0.0066      Z:     0.0000

  Dipole Moment: [e a0]
     X:    -0.0002      Y:     0.0024      Z:     0.0000     Total:     0.0024

  Dipole Moment: [D]
     X:    -0.0004      Y:     0.0061      Z:     0.0000     Total:     0.0061


*** tstop() called on n023 at Sun Nov 14 15:55:43 2021
Module time:
	user time   =     157.51 seconds =       2.63 minutes
	system time =       1.47 seconds =       0.02 minutes
	total time  =         40 seconds =       0.67 minutes
Total time:
	user time   =     157.51 seconds =       2.63 minutes
	system time =       1.47 seconds =       0.02 minutes
	total time  =         40 seconds =       0.67 minutes
Grab this energy -158.4740340975868
    Psi4 stopped on: Sunday, 14 November 2021 03:55PM
    Psi4 wall time for execution: 0:00:40.73

*** Psi4 exiting successfully. Buy a developer a beer!
