
    -----------------------------------------------------------------------
          Psi4: An Open-Source Ab Initio Electronic Structure Package
                               Psi4 1.4a2.dev629 

                         Git: Rev {master} 2938fc2 dirty


    D. G. A. Smith, L. A. Burns, A. C. Simmonett, R. M. Parrish,
    M. C. Schieber, R. Galvelis, P. Kraus, H. Kruse, R. Di Remigio,
    A. Alenaizan, A. M. James, S. Lehtola, J. P. Misiewicz, M. Scheurer,
    R. A. Shaw, J. B. Schriber, Y. Xie, Z. L. Glick, D. A. Sirianni,
    J. S. O'Brien, J. M. Waldrop, A. Kumar, E. G. Hohenstein,
    B. P. Pritchard, B. R. Brooks, H. F. Schaefer III, A. Yu. Sokolov,
    K. Patkowski, A. E. DePrince III, U. Bozkaya, R. A. King,
    F. A. Evangelista, J. M. Turney, T. D. Crawford, C. D. Sherrill,
    J. Chem. Phys. 152(18) 184108 (2020). https://doi.org/10.1063/5.0006002

                            Additional Code Authors
    E. T. Seidl, C. L. Janssen, E. F. Valeev, M. L. Leininger,
    J. F. Gonthier, R. M. Richard, H. R. McAlexander, M. Saitow, X. Wang,
    P. Verma, and M. H. Lechner

             Previous Authors, Complete List of Code Contributors,
                       and Citations for Specific Modules
    https://github.com/psi4/psi4/blob/master/codemeta.json
    https://github.com/psi4/psi4/graphs/contributors
    http://psicode.org/psi4manual/master/introduction.html#citing-psifour

    -----------------------------------------------------------------------


    Psi4 started on: Sunday, 14 November 2021 04:09PM

    Process ID: 8021
    Host:       n085
    PSIDATADIR: /opt/psi/4/master/share/psi4
    Memory:     500.0 MiB
    Threads:    4
    
  ==> Input File <==

--------------------------------------------------------------------------
import os
memory 14 GB 
 
molecule {
 C   -3.6831279421    0.2458944649   -0.0000000000
 C   -1.0722066750   -0.9741140711   -0.0000000000
 C    1.0722066750    0.9741140711   -0.0000000000
 C    3.6831279421   -0.2458944649   -0.0000000000
 H   -5.1842525781   -1.1702687663    0.0000000000
 H   -3.9349467697    1.4379936610   -1.6667295520
 H   -3.9349467697    1.4379936610    1.6667295520
 H   -0.8753204536   -2.1986867863    1.6574065262
 H   -0.8753204536   -2.1986867863   -1.6574065262
 H    0.8753204536    2.1986867863    1.6574065262
 H    0.8753204536    2.1986867863   -1.6574065262
 H    5.1842525781    1.1702687663    0.0000000000
 H    3.9349467697   -1.4379936610   -1.6667295520
 H    3.9349467697   -1.4379936610    1.6667295520
units bohr
}

basis {

assign 6-31g_2dfp_

[ 6-31g_2dfp_ ]

spherical

!----------------------------------------------------------------------
! Basis Set Exchange
! Version v0.8.13
! https://www.basissetexchange.org
!----------------------------------------------------------------------
!   Basis set: 6-31G(2df,p)
! Description: 6-31G(2df,p)
!        Role: orbital
!     Version: 0  (Data from the original Basis Set Exchange)
!----------------------------------------------------------------------


****
H     0
S    3   1.00
     18.7311370              0.03349460
      2.8253937              0.23472695
      0.6401217              0.81375733
S    1   1.00
      0.1612778              1.00000000
P    1   1.00
      1.5000000              1.0000000
P    1   1.00
      0.3750000              1.0000000
****
B     0
S    6   1.00
   2068.8823000              0.0018663
    310.6495700              0.0142515
     70.6830330              0.0695516
     19.8610800              0.2325729
      6.2993048              0.4670787
      2.1270270              0.3634314
SP   3   1.00
      4.7279710             -0.1303938              0.0745976
      1.1903377             -0.1307889              0.3078467
      0.3594117              1.1309444              0.7434568
SP   1   1.00
      0.1267512              1.0000000              1.0000000
D    1   1.00
      0.8020000              1.0000000
D    1   1.00
      0.2005000              1.0000000
F    1   1.00
      0.5000000              1.0000000
****
C     0
S    6   1.00
   3047.5249000              0.0018347
    457.3695100              0.0140373
    103.9486900              0.0688426
     29.2101550              0.2321844
      9.2866630              0.4679413
      3.1639270              0.3623120
SP   3   1.00
      7.8682724             -0.1193324              0.0689991
      1.8812885             -0.1608542              0.3164240
      0.5442493              1.1434564              0.7443083
SP   1   1.00
      0.1687144              1.0000000              1.0000000
D    1   1.00
      1.2520000              1.0000000
D    1   1.00
      0.3130000              1.0000000
F    1   1.00
      0.8000000              1.0000000
****
N     0
S    6   1.00
   4173.5110000              0.0018348
    627.4579000              0.0139950
    142.9021000              0.0685870
     40.2343300              0.2322410
     12.8202100              0.4690700
      4.3904370              0.3604550
SP   3   1.00
     11.6263580             -0.1149610              0.0675800
      2.7162800             -0.1691180              0.3239070
      0.7722180              1.1458520              0.7408950
SP   1   1.00
      0.2120313              1.0000000              1.0000000
D    1   1.00
      1.8260000              1.0000000
D    1   1.00
      0.4565000              1.0000000
F    1   1.00
      1.0000000              1.0000000
****
O     0
S    6   1.00
   5484.6717000              0.0018311
    825.2349500              0.0139501
    188.0469600              0.0684451
     52.9645000              0.2327143
     16.8975700              0.4701930
      5.7996353              0.3585209
SP   3   1.00
     15.5396160             -0.1107775              0.0708743
      3.5999336             -0.1480263              0.3397528
      1.0137618              1.1307670              0.7271586
SP   1   1.00
      0.2700058              1.0000000              1.0000000
D    1   1.00
      2.5840000              1.0000000
D    1   1.00
      0.6460000              1.0000000
F    1   1.00
      1.4000000              1.0000000
****
F     0
S    6   1.00
   7001.7130900              0.0018196169
   1051.3660900              0.0139160796
    239.2856900              0.0684053245
     67.3974453              0.233185760
     21.5199573              0.471267439
      7.40310130             0.356618546
SP   3   1.00
     20.8479528             -0.108506975            0.0716287243
      4.80830834            -0.146451658            0.3459121030
      1.34406986             1.128688580            0.7224699570
SP   1   1.00
      0.358151393            1.0000000              1.0000000
D    1   1.00
      3.5000000              1.0000000
D    1   1.00
      0.8750000              1.0000000
F    1   1.00
      1.8500000              1.0000000
****
Al     0
S    6   1.00
  13983.1000000              0.00194267
   2098.7500000              0.0148599
    477.7050000              0.0728494
    134.3600000              0.2468300
     42.8709000              0.4872580
     14.5189000              0.3234960
SP   6   1.00
    239.6680000             -0.00292619             0.00460285
     57.4419000             -0.0374080              0.0331990
     18.2859000             -0.1144870              0.1362820
      6.5991400              0.1156350              0.3304760
      2.4904900              0.6125950              0.4491460
      0.9445400              0.3937990              0.2657040
SP   3   1.00
      1.2779000             -0.2276060             -0.0175130
      0.3975900              0.00144583             0.2445330
      0.1600950              1.0927900              0.8049340
SP   1   1.00
      0.0556577              1.0000000              1.0000000
D    1   1.00
      0.6500000              1.0000000
D    1   1.00
      0.1625000              1.0000000
F    1   1.00
      0.2500000              1.0000000
****
Si     0
S    6   1.00
  16115.9000000              0.00195948
   2425.5800000              0.01492880
    553.8670000              0.07284780
    156.3400000              0.24613000
     50.0683000              0.48591400
     17.0178000              0.32500200
SP   6   1.00
    292.7180000             -0.00278094             0.00443826
     69.8731000             -0.03571460             0.03266790
     22.3363000             -0.11498500             0.13472100
      8.1503900              0.09356340             0.32867800
      3.1345800              0.60301700             0.44964000
      1.2254300              0.41895900             0.26137200
SP   3   1.00
      1.7273800             -0.24463000            -0.01779510
      0.5729220              0.00431572             0.25353900
      0.2221920              1.09818000             0.80066900
SP   1   1.00
      0.0778369              1.00000000             1.00000000
D    1   1.00
      0.9000000              1.0000000
D    1   1.00
      0.2250000              1.0000000
F    1   1.00
      0.3200000              1.0000000
****
P     0
S    6   1.00
  19413.3000000              0.0018516
   2909.4200000              0.0142062
    661.3640000              0.0699995
    185.7590000              0.2400790
     59.1943000              0.4847620
     20.0310000              0.3352000
SP   6   1.00
    339.4780000             -0.00278217             0.00456462
     81.0101000             -0.0360499              0.03369360
     25.8780000             -0.1166310              0.13975500
      9.4522100              0.0968328              0.33936200
      3.6656600              0.6144180              0.45092100
      1.4674600              0.4037980              0.23858600
SP   3   1.00
      2.1562300             -0.2529230             -0.01776530
      0.7489970              0.0328517              0.27405800
      0.2831450              1.0812500              0.78542100
SP   1   1.00
      0.0998317              1.0000000              1.00000000
D    1   1.00
      1.1000000              1.0000000
D    1   1.00
      0.2750000              1.0000000
F    1   1.00
      0.4500000              1.0000000
****
S     0
S    6   1.00
  21917.1000000              0.0018690
   3301.4900000              0.0142300
    754.1460000              0.0696960
    212.7110000              0.2384870
     67.9896000              0.4833070
     23.0515000              0.3380740
SP   6   1.00
    423.7350000             -0.0023767              0.0040610
    100.7100000             -0.0316930              0.0306810
     32.1599000             -0.1133170              0.1304520
     11.8079000              0.0560900              0.3272050
      4.6311000              0.5922550              0.4528510
      1.8702500              0.4550060              0.2560420
SP   3   1.00
      2.6158400             -0.2503740             -0.0145110
      0.9221670              0.0669570              0.3102630
      0.3412870              1.0545100              0.7544830
SP   1   1.00
      0.1171670              1.0000000              1.0000000
D    1   1.00
      1.3000000              1.0000000
D    1   1.00
      0.3250000              1.0000000
F    1   1.00
      0.5500000              1.0000000
****
Cl     0
S    6   1.00
  25180.1000000              0.0018330
   3780.3500000              0.0140340
    860.4740000              0.0690970
    242.1450000              0.2374520
     77.3349000              0.4830340
     26.2470000              0.3398560
SP   6   1.00
    491.7650000             -0.0022974              0.0039894
    116.9840000             -0.0307140              0.0303180
     37.4153000             -0.1125280              0.1298800
     13.7834000              0.0450160              0.3279510
      5.4521500              0.5893530              0.4535270
      2.2258800              0.4652060              0.2521540
SP   3   1.00
      3.1864900             -0.2518300             -0.0142990
      1.1442700              0.0615890              0.3235720
      0.4203770              1.0601800              0.7435070
SP   1   1.00
      0.1426570              1.0000000              1.0000000
D    1   1.00
      1.5000000              1.0000000
D    1   1.00
      0.3750000              1.0000000
F    1   1.00
      0.7000000              1.0000000
****
}


set {
reference rhf                          
freeze_core true
e_convergence 10                       
d_convergence 10                      
dft_spherical_points 1202
dft_radial_points 99
}

e = energy('b3lyp')

print_out('Grab this energy {0}'.format(e))
--------------------------------------------------------------------------

  Memory set to  13.039 GiB by Python driver.

Scratch directory: /tmp/

*** tstart() called on n085
*** at Sun Nov 14 16:09:32 2021

   => Loading Basis Set <=

    Name: ANONYMOUSC0B0D608
    Role: ORBITAL
    Keyword: BASIS
    atoms 1-4  entry C          line    48 inputblock 6-31g_2dfp_ 
    atoms 5-14 entry H          line    15 inputblock 6-31g_2dfp_ 


         ---------------------------------------------------------
                                   SCF
               by Justin Turney, Rob Parrish, Andy Simmonett
                          and Daniel G. A. Smith
                              RKS Reference
                        4 Threads,  13351 MiB Core
         ---------------------------------------------------------

  ==> Geometry <==

    Molecular point group: c2h
    Full point group: C2h

    Geometry (in Bohr), charge = 0, multiplicity = 1:

       Center              X                  Y                   Z               Mass       
    ------------   -----------------  -----------------  -----------------  -----------------
         C           -3.683127942100     0.245894464900     0.000000000000    12.000000000000
         C           -1.072206675000    -0.974114071100     0.000000000000    12.000000000000
         C            1.072206675000     0.974114071100     0.000000000000    12.000000000000
         C            3.683127942100    -0.245894464900     0.000000000000    12.000000000000
         H           -5.184252578100    -1.170268766300     0.000000000000     1.007825032230
         H           -3.934946769700     1.437993661000    -1.666729552000     1.007825032230
         H           -3.934946769700     1.437993661000     1.666729552000     1.007825032230
         H           -0.875320453600    -2.198686786300     1.657406526200     1.007825032230
         H           -0.875320453600    -2.198686786300    -1.657406526200     1.007825032230
         H            0.875320453600     2.198686786300     1.657406526200     1.007825032230
         H            0.875320453600     2.198686786300    -1.657406526200     1.007825032230
         H            5.184252578100     1.170268766300     0.000000000000     1.007825032230
         H            3.934946769700    -1.437993661000    -1.666729552000     1.007825032230
         H            3.934946769700    -1.437993661000     1.666729552000     1.007825032230

  Running in c2h symmetry.

  Rotational constants: A =      0.78099  B =      0.12159  C =      0.11409 [cm^-1]
  Rotational constants: A =  23413.36382  B =   3645.07987  C =   3420.31836 [MHz]
  Nuclear repulsion =  130.718521332827464

  Charge       = 0
  Multiplicity = 1
  Electrons    = 34
  Nalpha       = 17
  Nbeta        = 17

  ==> Algorithm <==

  SCF Algorithm Type is DF.
  DIIS enabled.
  MOM disabled.
  Fractional occupation disabled.
  Guess Type is SAD.
  Energy threshold   = 1.00e-10
  Density threshold  = 1.00e-10
  Integral threshold = 0.00e+00

  ==> Primary Basis <==

  Basis Set: ANONYMOUSC0B0D608
    Blend: 6-31G_2DFP_
    Number of shells: 72
    Number of basis function: 184
    Number of Cartesian functions: 204
    Spherical Harmonics?: true
    Max angular momentum: 3

  ==> DFT Potential <==

   => Composite Functional: B3LYP <= 

    B3LYP Hyb-GGA Exchange-Correlation Functional

    P. J. Stephens, F. J. Devlin, C. F. Chabalowski, and M. J. Frisch, J. Phys. Chem. 98, 11623 (1994)

    Deriv               =              1
    GGA                 =           TRUE
    Meta                =          FALSE

    Exchange Hybrid     =           TRUE
    MP2 Hybrid          =          FALSE

   => Exchange Functionals <=

    0.0800   Slater exchange
    0.7200         Becke 88

   => Exact (HF) Exchange <=

    0.2000               HF 

   => Correlation Functionals <=

    0.1900   Vosko, Wilk & Nusair (VWN5_RPA)
    0.8100   Lee, Yang & Parr

   => Molecular Quadrature <=

    Radial Scheme          =       TREUTLER
    Pruning Scheme         =           NONE
    Nuclear Scheme         =       TREUTLER

    BS radius alpha        =              1
    Pruning alpha          =              1
    Radial Points          =             99
    Spherical Points       =           1202
    Total Points           =        1550392
    Total Blocks           =          10246
    Max Points             =            256
    Max Functions          =            180
    Weights Tolerance      =       1.00E-15

   => Loading Basis Set <=

    Name: (ANONYMOUSC0B0D608 AUX)
    Role: JKFIT
    Keyword: DF_BASIS_SCF
    atoms 1-4  entry C          line   198 file /opt/psi/4/master/share/psi4/basis/def2-universal-jkfit.gbs 
    atoms 5-14 entry H          line    18 file /opt/psi/4/master/share/psi4/basis/def2-universal-jkfit.gbs 

  ==> Integral Setup <==

  DFHelper Memory: AOs need 0.127 GiB; user supplied 3.474 GiB. Using in-core AOs.

  ==> MemDFJK: Density-Fitted J/K Matrices <==

    J tasked:                   Yes
    K tasked:                   Yes
    wK tasked:                   No
    OpenMP threads:               4
    Memory [MiB]:              3557
    Algorithm:                 Core
    Schwarz Cutoff:           1E-12
    Mask sparsity (%):       2.8828
    Fitting Condition:        1E-10

   => Auxiliary Basis Set <=

  Basis Set: (ANONYMOUSC0B0D608 AUX)
    Blend: DEF2-UNIVERSAL-JKFIT
    Number of shells: 160
    Number of basis function: 480
    Number of Cartesian functions: 556
    Spherical Harmonics?: true
    Max angular momentum: 4

  Cached 100.0% of DFT collocation blocks in 6.305 [GiB].

  Minimum eigenvalue in the overlap matrix is 1.5551459795E-03.
  Reciprocal condition number of the overlap matrix is 2.8813069194E-04.
    Using symmetric orthogonalization.

  ==> Pre-Iterations <==

  SCF Guess: Superposition of Atomic Densities via on-the-fly atomic UHF (no occupation information).

   -------------------------
    Irrep   Nso     Nmo    
   -------------------------
     Ag        56      56 
     Bg        36      36 
     Au        36      36 
     Bu        56      56 
   -------------------------
    Total     184     184
   -------------------------

  ==> Iterations <==

                           Total Energy        Delta E     RMS |[F,P]|

   @DF-RKS iter SAD:  -157.73245878058765   -1.57732e+02   0.00000e+00 
   @DF-RKS iter   1:  -158.05957575985951   -3.27117e-01   9.21524e-03 DIIS
   @DF-RKS iter   2:  -157.86176090134086    1.97815e-01   1.10462e-02 DIIS
   @DF-RKS iter   3:  -158.47197794784083   -6.10217e-01   6.67539e-04 DIIS
   @DF-RKS iter   4:  -158.47335658071768   -1.37863e-03   3.89824e-04 DIIS
   @DF-RKS iter   5:  -158.47400946357638   -6.52883e-04   6.20718e-05 DIIS
   @DF-RKS iter   6:  -158.47402566872807   -1.62052e-05   6.98793e-06 DIIS
   @DF-RKS iter   7:  -158.47402589596257   -2.27234e-07   1.37398e-06 DIIS
   @DF-RKS iter   8:  -158.47402590517032   -9.20775e-09   1.12940e-07 DIIS
   @DF-RKS iter   9:  -158.47402590523100   -6.06803e-11   1.70296e-08 DIIS
   @DF-RKS iter  10:  -158.47402590523237   -1.36424e-12   1.91269e-09 DIIS
   @DF-RKS iter  11:  -158.47402590523208    2.84217e-13   7.15153e-11 DIIS
  Energy and wave function converged.


  ==> Post-Iterations <==

    Orbital Energies [Eh]
    ---------------------

    Doubly Occupied:                                                      

       1Ag   -10.169431     1Bu   -10.169310     2Bu   -10.163415  
       2Ag   -10.163388     3Ag    -0.790335     3Bu    -0.720381  
       4Ag    -0.625707     4Bu    -0.572379     1Au    -0.465050  
       5Ag    -0.422234     5Bu    -0.414992     1Bg    -0.407420  
       6Bu    -0.364397     2Au    -0.346424     6Ag    -0.329987  
       2Bg    -0.319904     7Ag    -0.317339  

    Virtual:                                                              

       8Ag     0.079790     7Bu     0.104676     3Au     0.122241  
       8Bu     0.132031     9Ag     0.160769    10Ag     0.169860  
       9Bu     0.174349     3Bg     0.177305     4Bg     0.185675  
       4Au     0.186250    10Bu     0.236287    11Ag     0.240480  
      11Bu     0.250654    12Ag     0.393711     5Au     0.407271  
      12Bu     0.410099     5Bg     0.412331    13Ag     0.436243  
       6Au     0.448512    13Bu     0.475216     6Bg     0.492323  
      14Ag     0.517061    14Bu     0.548178    15Bu     0.563865  
      16Bu     0.581300    15Ag     0.585518    16Ag     0.603390  
       7Au     0.612725    17Ag     0.614127     8Au     0.620773  
       7Bg     0.626405     8Bg     0.635167     9Au     0.636303  
      17Bu     0.642327    18Bu     0.670737    18Ag     0.671953  
      19Bu     0.687003    10Au     0.792111     9Bg     0.798339  
      19Ag     0.856691    10Bg     0.885862    11Au     0.890390  
      11Bg     0.915043    20Bu     0.947899    20Ag     0.963580  
      12Bg     1.039730    21Ag     1.052955    21Bu     1.054136  
      22Bu     1.106546    22Ag     1.124612    12Au     1.137366  
      13Bg     1.161010    23Ag     1.174557    23Bu     1.204952  
      13Au     1.205109    24Bu     1.238465    24Ag     1.261114  
      14Au     1.279457    25Ag     1.306058    25Bu     1.329496  
      14Bg     1.334800    15Au     1.344771    26Ag     1.348630  
      26Bu     1.367005    27Ag     1.379441    16Au     1.425772  
      15Bg     1.458977    27Bu     1.463186    28Ag     1.490781  
      28Bu     1.506405    17Au     1.533587    29Ag     1.539063  
      16Bg     1.569325    30Ag     1.584882    17Bg     1.628008  
      29Bu     1.641575    30Bu     1.709459    31Ag     1.726134  
      31Bu     1.755439    18Bg     1.777909    32Bu     1.796575  
      32Ag     1.820428    33Ag     1.863449    18Au     1.896140  
      33Bu     2.031046    34Bu     2.090609    34Ag     2.120934  
      19Bg     2.182616    19Au     2.284865    35Ag     2.714836  
      35Bu     2.749876    36Ag     2.755538    20Au     2.828957  
      20Bg     2.831780    36Bu     2.899967    21Au     2.900469  
      21Bg     2.934327    22Au     2.957975    22Bg     2.966062  
      23Au     2.984023    37Bu     2.995284    37Ag     3.008675  
      23Bg     3.040443    24Bg     3.101773    38Bu     3.156329  
      38Ag     3.163703    24Au     3.167228    39Ag     3.237240  
      39Bu     3.262085    25Au     3.332498    40Ag     3.396771  
      40Bu     3.441399    26Au     3.444483    41Ag     3.470635  
      25Bg     3.481942    41Bu     3.507432    42Bu     3.574173  
      43Bu     3.589469    26Bg     3.603422    42Ag     3.607971  
      27Au     3.630678    43Ag     3.651325    44Bu     3.686828  
      28Au     3.693723    27Bg     3.694132    44Ag     3.758082  
      45Ag     3.833444    45Bu     3.855011    28Bg     3.977060  
      46Ag     3.992172    29Au     4.005977    46Bu     4.023790  
      29Bg     4.072939    47Bu     4.074623    48Bu     4.161761  
      47Ag     4.173720    48Ag     4.196273    30Bg     4.196450  
      30Au     4.216582    49Bu     4.245088    50Bu     4.293941  
      49Ag     4.321674    31Bg     4.362615    31Au     4.386582  
      32Au     4.426537    50Ag     4.430771    51Ag     4.482483  
      32Bg     4.526202    52Ag     4.535986    33Bg     4.542270  
      51Bu     4.557861    33Au     4.566175    34Bg     4.575669  
      34Au     4.611469    52Bu     4.698674    53Bu     4.783070  
      53Ag     4.788160    54Ag     4.934375    54Bu     5.004130  
      55Bu     5.097154    55Ag     5.179026    35Au     5.216126  
      56Ag     5.299205    56Bu     5.306984    35Bg     5.334425  
      36Au     5.378412    36Bg     5.411310  

    Final Occupation by Irrep:
             Ag    Bg    Au    Bu 
    DOCC [     7,    2,    2,    6 ]

  @DF-RKS Final Energy:  -158.47402590523208

   => Energetics <=

    Nuclear Repulsion Energy =            130.7185213328274642
    One-Electron Energy =                -470.0211207779543656
    Two-Electron Energy =                 201.4675906640473784
    DFT Exchange-Correlation Energy =     -20.6390171241525202
    Empirical Dispersion Energy =           0.0000000000000000
    VV10 Nonlocal Energy =                  0.0000000000000000
    Total Energy =                       -158.4740259052320823

Computation Completed


Properties will be evaluated at   0.000000,   0.000000,   0.000000 [a0]

Properties computed using the SCF density matrix

  Nuclear Dipole Moment: [e a0]
     X:     0.0000      Y:     0.0000      Z:     0.0000

  Electronic Dipole Moment: [e a0]
     X:     0.0000      Y:     0.0000      Z:     0.0000

  Dipole Moment: [e a0]
     X:     0.0000      Y:     0.0000      Z:     0.0000     Total:     0.0000

  Dipole Moment: [D]
     X:     0.0000      Y:     0.0000      Z:     0.0000     Total:     0.0000


*** tstop() called on n085 at Sun Nov 14 16:10:03 2021
Module time:
	user time   =     116.47 seconds =       1.94 minutes
	system time =       1.79 seconds =       0.03 minutes
	total time  =         31 seconds =       0.52 minutes
Total time:
	user time   =     116.47 seconds =       1.94 minutes
	system time =       1.79 seconds =       0.03 minutes
	total time  =         31 seconds =       0.52 minutes
Grab this energy -158.47402590523208
    Psi4 stopped on: Sunday, 14 November 2021 04:10PM
    Psi4 wall time for execution: 0:00:30.39

*** Psi4 exiting successfully. Buy a developer a beer!
