
    -----------------------------------------------------------------------
          Psi4: An Open-Source Ab Initio Electronic Structure Package
                               Psi4 1.4a2.dev629 

                         Git: Rev {master} 2938fc2 dirty


    D. G. A. Smith, L. A. Burns, A. C. Simmonett, R. M. Parrish,
    M. C. Schieber, R. Galvelis, P. Kraus, H. Kruse, R. Di Remigio,
    A. Alenaizan, A. M. James, S. Lehtola, J. P. Misiewicz, M. Scheurer,
    R. A. Shaw, J. B. Schriber, Y. Xie, Z. L. Glick, D. A. Sirianni,
    J. S. O'Brien, J. M. Waldrop, A. Kumar, E. G. Hohenstein,
    B. P. Pritchard, B. R. Brooks, H. F. Schaefer III, A. Yu. Sokolov,
    K. Patkowski, A. E. DePrince III, U. Bozkaya, R. A. King,
    F. A. Evangelista, J. M. Turney, T. D. Crawford, C. D. Sherrill,
    J. Chem. Phys. 152(18) 184108 (2020). https://doi.org/10.1063/5.0006002

                            Additional Code Authors
    E. T. Seidl, C. L. Janssen, E. F. Valeev, M. L. Leininger,
    J. F. Gonthier, R. M. Richard, H. R. McAlexander, M. Saitow, X. Wang,
    P. Verma, and M. H. Lechner

             Previous Authors, Complete List of Code Contributors,
                       and Citations for Specific Modules
    https://github.com/psi4/psi4/blob/master/codemeta.json
    https://github.com/psi4/psi4/graphs/contributors
    http://psicode.org/psi4manual/master/introduction.html#citing-psifour

    -----------------------------------------------------------------------


    Psi4 started on: Sunday, 14 November 2021 02:38PM

    Process ID: 17786
    Host:       n084
    PSIDATADIR: /opt/psi/4/master/share/psi4
    Memory:     500.0 MiB
    Threads:    4
    
  ==> Input File <==

--------------------------------------------------------------------------
import os
memory 14 GB 
 
molecule {
 C   -3.6854012888    0.2476567159    0.0008153695
 C   -1.0659818516   -0.9734684842   -0.0012736867
 C    1.0659818516    0.9734684842    0.0012736867
 C    3.6854012888   -0.2476567159   -0.0008153695
 H   -5.1853544330   -1.1682602726   -0.0002129737
 H   -3.9377984189    1.4413743027   -1.6676163155
 H   -3.9378007640    1.4415290263    1.6674216189
 H   -0.8678392062   -2.1975869248    1.6575247303
 H   -0.8678068485   -2.1978481318   -1.6571975074
 H    0.8678068485    2.1978481318    1.6571975074
 H    0.8678392062    2.1975869248   -1.6575247303
 H    5.1853544330    1.1682602726    0.0002129737
 H    3.9378007640   -1.4415290263   -1.6674216189
 H    3.9377984189   -1.4413743027    1.6676163155
units bohr
}

basis {

assign 6-31g_2dfp_

[ 6-31g_2dfp_ ]

spherical

!----------------------------------------------------------------------
! Basis Set Exchange
! Version v0.8.13
! https://www.basissetexchange.org
!----------------------------------------------------------------------
!   Basis set: 6-31G(2df,p)
! Description: 6-31G(2df,p)
!        Role: orbital
!     Version: 0  (Data from the original Basis Set Exchange)
!----------------------------------------------------------------------


****
H     0
S    3   1.00
     18.7311370              0.03349460
      2.8253937              0.23472695
      0.6401217              0.81375733
S    1   1.00
      0.1612778              1.00000000
P    1   1.00
      1.5000000              1.0000000
P    1   1.00
      0.3750000              1.0000000
****
B     0
S    6   1.00
   2068.8823000              0.0018663
    310.6495700              0.0142515
     70.6830330              0.0695516
     19.8610800              0.2325729
      6.2993048              0.4670787
      2.1270270              0.3634314
SP   3   1.00
      4.7279710             -0.1303938              0.0745976
      1.1903377             -0.1307889              0.3078467
      0.3594117              1.1309444              0.7434568
SP   1   1.00
      0.1267512              1.0000000              1.0000000
D    1   1.00
      0.8020000              1.0000000
D    1   1.00
      0.2005000              1.0000000
F    1   1.00
      0.5000000              1.0000000
****
C     0
S    6   1.00
   3047.5249000              0.0018347
    457.3695100              0.0140373
    103.9486900              0.0688426
     29.2101550              0.2321844
      9.2866630              0.4679413
      3.1639270              0.3623120
SP   3   1.00
      7.8682724             -0.1193324              0.0689991
      1.8812885             -0.1608542              0.3164240
      0.5442493              1.1434564              0.7443083
SP   1   1.00
      0.1687144              1.0000000              1.0000000
D    1   1.00
      1.2520000              1.0000000
D    1   1.00
      0.3130000              1.0000000
F    1   1.00
      0.8000000              1.0000000
****
N     0
S    6   1.00
   4173.5110000              0.0018348
    627.4579000              0.0139950
    142.9021000              0.0685870
     40.2343300              0.2322410
     12.8202100              0.4690700
      4.3904370              0.3604550
SP   3   1.00
     11.6263580             -0.1149610              0.0675800
      2.7162800             -0.1691180              0.3239070
      0.7722180              1.1458520              0.7408950
SP   1   1.00
      0.2120313              1.0000000              1.0000000
D    1   1.00
      1.8260000              1.0000000
D    1   1.00
      0.4565000              1.0000000
F    1   1.00
      1.0000000              1.0000000
****
O     0
S    6   1.00
   5484.6717000              0.0018311
    825.2349500              0.0139501
    188.0469600              0.0684451
     52.9645000              0.2327143
     16.8975700              0.4701930
      5.7996353              0.3585209
SP   3   1.00
     15.5396160             -0.1107775              0.0708743
      3.5999336             -0.1480263              0.3397528
      1.0137618              1.1307670              0.7271586
SP   1   1.00
      0.2700058              1.0000000              1.0000000
D    1   1.00
      2.5840000              1.0000000
D    1   1.00
      0.6460000              1.0000000
F    1   1.00
      1.4000000              1.0000000
****
F     0
S    6   1.00
   7001.7130900              0.0018196169
   1051.3660900              0.0139160796
    239.2856900              0.0684053245
     67.3974453              0.233185760
     21.5199573              0.471267439
      7.40310130             0.356618546
SP   3   1.00
     20.8479528             -0.108506975            0.0716287243
      4.80830834            -0.146451658            0.3459121030
      1.34406986             1.128688580            0.7224699570
SP   1   1.00
      0.358151393            1.0000000              1.0000000
D    1   1.00
      3.5000000              1.0000000
D    1   1.00
      0.8750000              1.0000000
F    1   1.00
      1.8500000              1.0000000
****
Al     0
S    6   1.00
  13983.1000000              0.00194267
   2098.7500000              0.0148599
    477.7050000              0.0728494
    134.3600000              0.2468300
     42.8709000              0.4872580
     14.5189000              0.3234960
SP   6   1.00
    239.6680000             -0.00292619             0.00460285
     57.4419000             -0.0374080              0.0331990
     18.2859000             -0.1144870              0.1362820
      6.5991400              0.1156350              0.3304760
      2.4904900              0.6125950              0.4491460
      0.9445400              0.3937990              0.2657040
SP   3   1.00
      1.2779000             -0.2276060             -0.0175130
      0.3975900              0.00144583             0.2445330
      0.1600950              1.0927900              0.8049340
SP   1   1.00
      0.0556577              1.0000000              1.0000000
D    1   1.00
      0.6500000              1.0000000
D    1   1.00
      0.1625000              1.0000000
F    1   1.00
      0.2500000              1.0000000
****
Si     0
S    6   1.00
  16115.9000000              0.00195948
   2425.5800000              0.01492880
    553.8670000              0.07284780
    156.3400000              0.24613000
     50.0683000              0.48591400
     17.0178000              0.32500200
SP   6   1.00
    292.7180000             -0.00278094             0.00443826
     69.8731000             -0.03571460             0.03266790
     22.3363000             -0.11498500             0.13472100
      8.1503900              0.09356340             0.32867800
      3.1345800              0.60301700             0.44964000
      1.2254300              0.41895900             0.26137200
SP   3   1.00
      1.7273800             -0.24463000            -0.01779510
      0.5729220              0.00431572             0.25353900
      0.2221920              1.09818000             0.80066900
SP   1   1.00
      0.0778369              1.00000000             1.00000000
D    1   1.00
      0.9000000              1.0000000
D    1   1.00
      0.2250000              1.0000000
F    1   1.00
      0.3200000              1.0000000
****
P     0
S    6   1.00
  19413.3000000              0.0018516
   2909.4200000              0.0142062
    661.3640000              0.0699995
    185.7590000              0.2400790
     59.1943000              0.4847620
     20.0310000              0.3352000
SP   6   1.00
    339.4780000             -0.00278217             0.00456462
     81.0101000             -0.0360499              0.03369360
     25.8780000             -0.1166310              0.13975500
      9.4522100              0.0968328              0.33936200
      3.6656600              0.6144180              0.45092100
      1.4674600              0.4037980              0.23858600
SP   3   1.00
      2.1562300             -0.2529230             -0.01776530
      0.7489970              0.0328517              0.27405800
      0.2831450              1.0812500              0.78542100
SP   1   1.00
      0.0998317              1.0000000              1.00000000
D    1   1.00
      1.1000000              1.0000000
D    1   1.00
      0.2750000              1.0000000
F    1   1.00
      0.4500000              1.0000000
****
S     0
S    6   1.00
  21917.1000000              0.0018690
   3301.4900000              0.0142300
    754.1460000              0.0696960
    212.7110000              0.2384870
     67.9896000              0.4833070
     23.0515000              0.3380740
SP   6   1.00
    423.7350000             -0.0023767              0.0040610
    100.7100000             -0.0316930              0.0306810
     32.1599000             -0.1133170              0.1304520
     11.8079000              0.0560900              0.3272050
      4.6311000              0.5922550              0.4528510
      1.8702500              0.4550060              0.2560420
SP   3   1.00
      2.6158400             -0.2503740             -0.0145110
      0.9221670              0.0669570              0.3102630
      0.3412870              1.0545100              0.7544830
SP   1   1.00
      0.1171670              1.0000000              1.0000000
D    1   1.00
      1.3000000              1.0000000
D    1   1.00
      0.3250000              1.0000000
F    1   1.00
      0.5500000              1.0000000
****
Cl     0
S    6   1.00
  25180.1000000              0.0018330
   3780.3500000              0.0140340
    860.4740000              0.0690970
    242.1450000              0.2374520
     77.3349000              0.4830340
     26.2470000              0.3398560
SP   6   1.00
    491.7650000             -0.0022974              0.0039894
    116.9840000             -0.0307140              0.0303180
     37.4153000             -0.1125280              0.1298800
     13.7834000              0.0450160              0.3279510
      5.4521500              0.5893530              0.4535270
      2.2258800              0.4652060              0.2521540
SP   3   1.00
      3.1864900             -0.2518300             -0.0142990
      1.1442700              0.0615890              0.3235720
      0.4203770              1.0601800              0.7435070
SP   1   1.00
      0.1426570              1.0000000              1.0000000
D    1   1.00
      1.5000000              1.0000000
D    1   1.00
      0.3750000              1.0000000
F    1   1.00
      0.7000000              1.0000000
****
}


set {
reference rhf                          
freeze_core true
e_convergence 10                       
d_convergence 10                      
dft_spherical_points 1202
dft_radial_points 99
}

e = energy('b3lyp')

print_out('Grab this energy {0}'.format(e))
--------------------------------------------------------------------------

  Memory set to  13.039 GiB by Python driver.

Scratch directory: /tmp/

*** tstart() called on n084
*** at Sun Nov 14 14:38:47 2021

   => Loading Basis Set <=

    Name: ANONYMOUSFDBBD35D
    Role: ORBITAL
    Keyword: BASIS
    atoms 1-4  entry C          line    48 inputblock 6-31g_2dfp_ 
    atoms 5-14 entry H          line    15 inputblock 6-31g_2dfp_ 


         ---------------------------------------------------------
                                   SCF
               by Justin Turney, Rob Parrish, Andy Simmonett
                          and Daniel G. A. Smith
                              RKS Reference
                        4 Threads,  13351 MiB Core
         ---------------------------------------------------------

  ==> Geometry <==

    Molecular point group: ci
    Full point group: Ci

    Geometry (in Bohr), charge = 0, multiplicity = 1:

       Center              X                  Y                   Z               Mass       
    ------------   -----------------  -----------------  -----------------  -----------------
         C           -3.685401288800     0.247656715900     0.000815369500    12.000000000000
         C           -1.065981851600    -0.973468484200    -0.001273686700    12.000000000000
         C            1.065981851600     0.973468484200     0.001273686700    12.000000000000
         C            3.685401288800    -0.247656715900    -0.000815369500    12.000000000000
         H           -5.185354433000    -1.168260272600    -0.000212973700     1.007825032230
         H           -3.937798418900     1.441374302700    -1.667616315500     1.007825032230
         H           -3.937800764000     1.441529026300     1.667421618900     1.007825032230
         H           -0.867839206200    -2.197586924800     1.657524730300     1.007825032230
         H           -0.867806848500    -2.197848131800    -1.657197507400     1.007825032230
         H            0.867806848500     2.197848131800     1.657197507400     1.007825032230
         H            0.867839206200     2.197586924800    -1.657524730300     1.007825032230
         H            5.185354433000     1.168260272600     0.000212973700     1.007825032230
         H            3.937800764000    -1.441529026300    -1.667421618900     1.007825032230
         H            3.937798418900    -1.441374302700     1.667616315500     1.007825032230

  Running in ci symmetry.

  Rotational constants: A =      0.78084  B =      0.12155  C =      0.11406 [cm^-1]
  Rotational constants: A =  23408.84964  B =   3643.95466  C =   3419.36114 [MHz]
  Nuclear repulsion =  130.683064845591474

  Charge       = 0
  Multiplicity = 1
  Electrons    = 34
  Nalpha       = 17
  Nbeta        = 17

  ==> Algorithm <==

  SCF Algorithm Type is DF.
  DIIS enabled.
  MOM disabled.
  Fractional occupation disabled.
  Guess Type is SAD.
  Energy threshold   = 1.00e-10
  Density threshold  = 1.00e-10
  Integral threshold = 0.00e+00

  ==> Primary Basis <==

  Basis Set: ANONYMOUSFDBBD35D
    Blend: 6-31G_2DFP_
    Number of shells: 72
    Number of basis function: 184
    Number of Cartesian functions: 204
    Spherical Harmonics?: true
    Max angular momentum: 3

  ==> DFT Potential <==

   => Composite Functional: B3LYP <= 

    B3LYP Hyb-GGA Exchange-Correlation Functional

    P. J. Stephens, F. J. Devlin, C. F. Chabalowski, and M. J. Frisch, J. Phys. Chem. 98, 11623 (1994)

    Deriv               =              1
    GGA                 =           TRUE
    Meta                =          FALSE

    Exchange Hybrid     =           TRUE
    MP2 Hybrid          =          FALSE

   => Exchange Functionals <=

    0.0800   Slater exchange
    0.7200         Becke 88

   => Exact (HF) Exchange <=

    0.2000               HF 

   => Correlation Functionals <=

    0.1900   Vosko, Wilk & Nusair (VWN5_RPA)
    0.8100   Lee, Yang & Parr

   => Molecular Quadrature <=

    Radial Scheme          =       TREUTLER
    Pruning Scheme         =           NONE
    Nuclear Scheme         =       TREUTLER

    BS radius alpha        =              1
    Pruning alpha          =              1
    Radial Points          =             99
    Spherical Points       =           1202
    Total Points           =        1550396
    Total Blocks           =          10268
    Max Points             =            256
    Max Functions          =            180
    Weights Tolerance      =       1.00E-15

   => Loading Basis Set <=

    Name: (ANONYMOUSFDBBD35D AUX)
    Role: JKFIT
    Keyword: DF_BASIS_SCF
    atoms 1-4  entry C          line   198 file /opt/psi/4/master/share/psi4/basis/def2-universal-jkfit.gbs 
    atoms 5-14 entry H          line    18 file /opt/psi/4/master/share/psi4/basis/def2-universal-jkfit.gbs 

  ==> Integral Setup <==

  DFHelper Memory: AOs need 0.127 GiB; user supplied 3.473 GiB. Using in-core AOs.

  ==> MemDFJK: Density-Fitted J/K Matrices <==

    J tasked:                   Yes
    K tasked:                   Yes
    wK tasked:                   No
    OpenMP threads:               4
    Memory [MiB]:              3556
    Algorithm:                 Core
    Schwarz Cutoff:           1E-12
    Mask sparsity (%):       2.9301
    Fitting Condition:        1E-10

   => Auxiliary Basis Set <=

  Basis Set: (ANONYMOUSFDBBD35D AUX)
    Blend: DEF2-UNIVERSAL-JKFIT
    Number of shells: 160
    Number of basis function: 480
    Number of Cartesian functions: 556
    Spherical Harmonics?: true
    Max angular momentum: 4

  Cached 100.0% of DFT collocation blocks in 6.305 [GiB].

  Minimum eigenvalue in the overlap matrix is 1.5690145893E-03.
  Reciprocal condition number of the overlap matrix is 2.7372490376E-04.
    Using symmetric orthogonalization.

  ==> Pre-Iterations <==

  SCF Guess: Superposition of Atomic Densities via on-the-fly atomic UHF (no occupation information).

   -------------------------
    Irrep   Nso     Nmo    
   -------------------------
     Ag        92      92 
     Au        92      92 
   -------------------------
    Total     184     184
   -------------------------

  ==> Iterations <==

                           Total Energy        Delta E     RMS |[F,P]|

   @DF-RKS iter SAD:  -157.72842260804029   -1.57728e+02   0.00000e+00 
   @DF-RKS iter   1:  -158.06066996903928   -3.32247e-01   6.65839e-03 DIIS
   @DF-RKS iter   2:  -157.86339365707397    1.97276e-01   7.98220e-03 DIIS
   @DF-RKS iter   3:  -158.47199276901441   -6.08599e-01   4.83594e-04 DIIS
   @DF-RKS iter   4:  -158.47337287302463   -1.38010e-03   2.82826e-04 DIIS
   @DF-RKS iter   5:  -158.47402961244518   -6.56739e-04   4.51312e-05 DIIS
   @DF-RKS iter   6:  -158.47404599230128   -1.63799e-05   5.02245e-06 DIIS
   @DF-RKS iter   7:  -158.47404621678439   -2.24483e-07   9.86561e-07 DIIS
   @DF-RKS iter   8:  -158.47404622585898   -9.07460e-09   8.19806e-08 DIIS
   @DF-RKS iter   9:  -158.47404622592029   -6.13056e-11   1.23504e-08 DIIS
   @DF-RKS iter  10:  -158.47404622592157   -1.27898e-12   1.38153e-09 DIIS
   @DF-RKS iter  11:  -158.47404622592168   -1.13687e-13   5.33225e-11 DIIS
  Energy and wave function converged.


  ==> Post-Iterations <==

    Orbital Energies [Eh]
    ---------------------

    Doubly Occupied:                                                      

       1Ag   -10.169439     1Au   -10.169311     2Au   -10.163782  
       2Ag   -10.163755     3Ag    -0.790355     3Au    -0.719395  
       4Ag    -0.626225     4Au    -0.572381     5Au    -0.465018  
       5Ag    -0.421989     6Au    -0.414833     6Ag    -0.406705  
       7Au    -0.364433     8Au    -0.346713     7Ag    -0.329180  
       8Ag    -0.319930     9Ag    -0.318190  

    Virtual:                                                              

      10Ag     0.079784     9Au     0.104614    10Au     0.122160  
      11Au     0.132027    11Ag     0.160747    12Ag     0.169492  
      12Au     0.174708    13Ag     0.176994    14Ag     0.185995  
      13Au     0.186040    14Au     0.236102    15Ag     0.239738  
      15Au     0.250518    16Ag     0.393795    16Au     0.407547  
      17Au     0.410603    17Ag     0.411999    18Ag     0.435729  
      18Au     0.448711    19Au     0.475139    19Ag     0.492219  
      20Ag     0.516299    20Au     0.547970    21Au     0.564545  
      22Au     0.580934    21Ag     0.584176    22Ag     0.603716  
      23Au     0.612324    23Ag     0.613901    24Au     0.620885  
      24Ag     0.626611    25Ag     0.634911    25Au     0.635837  
      26Au     0.642192    27Au     0.670587    26Ag     0.671661  
      28Au     0.687268    29Au     0.791123    27Ag     0.798909  
      28Ag     0.856827    29Ag     0.885601    30Au     0.890045  
      30Ag     0.914968    31Au     0.947467    31Ag     0.963373  
      32Ag     1.039434    32Au     1.053050    33Ag     1.053486  
      33Au     1.106569    34Ag     1.123679    34Au     1.137218  
      35Ag     1.159261    36Ag     1.173689    35Au     1.204491  
      36Au     1.205025    37Au     1.239566    37Ag     1.259862  
      38Au     1.279727    38Ag     1.305478    39Au     1.330006  
      39Ag     1.333981    40Au     1.345560    40Ag     1.347971  
      41Au     1.365717    41Ag     1.379012    42Au     1.426381  
      42Ag     1.459073    43Au     1.462733    43Ag     1.490222  
      44Au     1.506180    45Au     1.532834    44Ag     1.538853  
      45Ag     1.567511    46Ag     1.585934    47Ag     1.628888  
      46Au     1.642091    47Au     1.708989    48Ag     1.726857  
      48Au     1.754997    49Ag     1.777567    49Au     1.795742  
      50Ag     1.819854    51Ag     1.862099    50Au     1.895733  
      51Au     2.030083    52Au     2.088619    52Ag     2.123463  
      53Ag     2.180804    53Au     2.284514    54Ag     2.713691  
      54Au     2.749657    55Ag     2.755278    55Au     2.828864  
      56Ag     2.830207    56Au     2.899171    57Au     2.899969  
      57Ag     2.934332    58Au     2.957959    58Ag     2.966472  
      59Au     2.984616    60Au     2.996391    59Ag     3.007371  
      60Ag     3.039957    61Ag     3.101399    61Au     3.157424  
      62Ag     3.163105    62Au     3.168005    63Ag     3.235985  
      63Au     3.261607    64Au     3.331587    64Ag     3.394396  
      65Au     3.441518    66Au     3.444968    65Ag     3.471880  
      66Ag     3.481182    67Au     3.507912    68Au     3.574242  
      69Au     3.587590    67Ag     3.604196    68Ag     3.607527  
      70Au     3.629569    69Ag     3.651317    71Au     3.686241  
      70Ag     3.692229    72Au     3.694793    71Ag     3.757464  
      72Ag     3.830706    73Au     3.855950    73Ag     3.974209  
      74Ag     3.990833    74Au     4.004501    75Au     4.021223  
      75Ag     4.071845    76Au     4.073177    77Au     4.161994  
      76Ag     4.174067    77Ag     4.194908    78Ag     4.195272  
      78Au     4.217153    79Au     4.244939    80Au     4.292738  
      79Ag     4.320162    80Ag     4.364975    81Au     4.385718  
      82Au     4.425296    81Ag     4.430160    82Ag     4.478358  
      83Ag     4.523494    84Ag     4.537375    85Ag     4.541689  
      83Au     4.558864    84Au     4.565261    86Ag     4.574078  
      85Au     4.611318    86Au     4.695289    87Au     4.777690  
      87Ag     4.790327    88Ag     4.933883    88Au     5.003443  
      89Au     5.095512    89Ag     5.180517    90Au     5.215790  
      90Ag     5.296960    91Au     5.305423    91Ag     5.331705  
      92Au     5.374309    92Ag     5.413902  

    Final Occupation by Irrep:
             Ag    Au 
    DOCC [     9,    8 ]

  @DF-RKS Final Energy:  -158.47404622592168

   => Energetics <=

    Nuclear Repulsion Energy =            130.6830648455914741
    One-Electron Energy =                -469.9523556250429692
    Two-Electron Energy =                 201.4325377008875648
    DFT Exchange-Correlation Energy =     -20.6372931473577843
    Empirical Dispersion Energy =           0.0000000000000000
    VV10 Nonlocal Energy =                  0.0000000000000000
    Total Energy =                       -158.4740462259216827

Computation Completed


Properties will be evaluated at   0.000000,   0.000000,   0.000000 [a0]

Properties computed using the SCF density matrix

  Nuclear Dipole Moment: [e a0]
     X:     0.0000      Y:     0.0000      Z:     0.0000

  Electronic Dipole Moment: [e a0]
     X:     0.0000      Y:     0.0000      Z:     0.0000

  Dipole Moment: [e a0]
     X:     0.0000      Y:     0.0000      Z:     0.0000     Total:     0.0000

  Dipole Moment: [D]
     X:     0.0000      Y:     0.0000      Z:     0.0000     Total:     0.0000


*** tstop() called on n084 at Sun Nov 14 14:39:17 2021
Module time:
	user time   =     113.00 seconds =       1.88 minutes
	system time =       1.89 seconds =       0.03 minutes
	total time  =         30 seconds =       0.50 minutes
Total time:
	user time   =     113.00 seconds =       1.88 minutes
	system time =       1.89 seconds =       0.03 minutes
	total time  =         30 seconds =       0.50 minutes
Grab this energy -158.47404622592168
    Psi4 stopped on: Sunday, 14 November 2021 02:39PM
    Psi4 wall time for execution: 0:00:29.80

*** Psi4 exiting successfully. Buy a developer a beer!
