
    -----------------------------------------------------------------------
          Psi4: An Open-Source Ab Initio Electronic Structure Package
                               Psi4 1.4a2.dev629 

                         Git: Rev {master} 2938fc2 dirty


    D. G. A. Smith, L. A. Burns, A. C. Simmonett, R. M. Parrish,
    M. C. Schieber, R. Galvelis, P. Kraus, H. Kruse, R. Di Remigio,
    A. Alenaizan, A. M. James, S. Lehtola, J. P. Misiewicz, M. Scheurer,
    R. A. Shaw, J. B. Schriber, Y. Xie, Z. L. Glick, D. A. Sirianni,
    J. S. O'Brien, J. M. Waldrop, A. Kumar, E. G. Hohenstein,
    B. P. Pritchard, B. R. Brooks, H. F. Schaefer III, A. Yu. Sokolov,
    K. Patkowski, A. E. DePrince III, U. Bozkaya, R. A. King,
    F. A. Evangelista, J. M. Turney, T. D. Crawford, C. D. Sherrill,
    J. Chem. Phys. 152(18) 184108 (2020). https://doi.org/10.1063/5.0006002

                            Additional Code Authors
    E. T. Seidl, C. L. Janssen, E. F. Valeev, M. L. Leininger,
    J. F. Gonthier, R. M. Richard, H. R. McAlexander, M. Saitow, X. Wang,
    P. Verma, and M. H. Lechner

             Previous Authors, Complete List of Code Contributors,
                       and Citations for Specific Modules
    https://github.com/psi4/psi4/blob/master/codemeta.json
    https://github.com/psi4/psi4/graphs/contributors
    http://psicode.org/psi4manual/master/introduction.html#citing-psifour

    -----------------------------------------------------------------------


    Psi4 started on: Sunday, 14 November 2021 04:10PM

    Process ID: 12600
    Host:       n031
    PSIDATADIR: /opt/psi/4/master/share/psi4
    Memory:     500.0 MiB
    Threads:    4
    
  ==> Input File <==

--------------------------------------------------------------------------
import os
memory 14 GB 
 
molecule {
 C   -3.6824309237    0.2469957170    0.0018260084
 C   -1.0707720367   -0.9716012317   -0.0034718365
 C    1.0642905850    0.9747324047   -0.0034752240
 C    3.6871515314   -0.2493853041    0.0018290173
 H   -5.1817420037   -1.1696986340    0.0013843937
 H   -3.9393803382    1.4428828134   -1.6614813954
 H   -3.9309202033    1.4360231697    1.6725404870
 H   -0.8723633123   -2.1966320615    1.6511747604
 H   -0.8708153981   -2.1942895027   -1.6619772214
 H    0.8639800906    2.2013192310    1.6525755719
 H    0.8624115136    2.1989806435   -1.6633790110
 H    5.1890748288    1.1668890898    0.0013880355
 H    3.9449818743   -1.4465362172   -1.6626186777
 H    3.9365337924   -1.4396801180    1.6736850920
units bohr
}

basis {

assign 6-31g_2dfp_

[ 6-31g_2dfp_ ]

spherical

!----------------------------------------------------------------------
! Basis Set Exchange
! Version v0.8.13
! https://www.basissetexchange.org
!----------------------------------------------------------------------
!   Basis set: 6-31G(2df,p)
! Description: 6-31G(2df,p)
!        Role: orbital
!     Version: 0  (Data from the original Basis Set Exchange)
!----------------------------------------------------------------------


****
H     0
S    3   1.00
     18.7311370              0.03349460
      2.8253937              0.23472695
      0.6401217              0.81375733
S    1   1.00
      0.1612778              1.00000000
P    1   1.00
      1.5000000              1.0000000
P    1   1.00
      0.3750000              1.0000000
****
B     0
S    6   1.00
   2068.8823000              0.0018663
    310.6495700              0.0142515
     70.6830330              0.0695516
     19.8610800              0.2325729
      6.2993048              0.4670787
      2.1270270              0.3634314
SP   3   1.00
      4.7279710             -0.1303938              0.0745976
      1.1903377             -0.1307889              0.3078467
      0.3594117              1.1309444              0.7434568
SP   1   1.00
      0.1267512              1.0000000              1.0000000
D    1   1.00
      0.8020000              1.0000000
D    1   1.00
      0.2005000              1.0000000
F    1   1.00
      0.5000000              1.0000000
****
C     0
S    6   1.00
   3047.5249000              0.0018347
    457.3695100              0.0140373
    103.9486900              0.0688426
     29.2101550              0.2321844
      9.2866630              0.4679413
      3.1639270              0.3623120
SP   3   1.00
      7.8682724             -0.1193324              0.0689991
      1.8812885             -0.1608542              0.3164240
      0.5442493              1.1434564              0.7443083
SP   1   1.00
      0.1687144              1.0000000              1.0000000
D    1   1.00
      1.2520000              1.0000000
D    1   1.00
      0.3130000              1.0000000
F    1   1.00
      0.8000000              1.0000000
****
N     0
S    6   1.00
   4173.5110000              0.0018348
    627.4579000              0.0139950
    142.9021000              0.0685870
     40.2343300              0.2322410
     12.8202100              0.4690700
      4.3904370              0.3604550
SP   3   1.00
     11.6263580             -0.1149610              0.0675800
      2.7162800             -0.1691180              0.3239070
      0.7722180              1.1458520              0.7408950
SP   1   1.00
      0.2120313              1.0000000              1.0000000
D    1   1.00
      1.8260000              1.0000000
D    1   1.00
      0.4565000              1.0000000
F    1   1.00
      1.0000000              1.0000000
****
O     0
S    6   1.00
   5484.6717000              0.0018311
    825.2349500              0.0139501
    188.0469600              0.0684451
     52.9645000              0.2327143
     16.8975700              0.4701930
      5.7996353              0.3585209
SP   3   1.00
     15.5396160             -0.1107775              0.0708743
      3.5999336             -0.1480263              0.3397528
      1.0137618              1.1307670              0.7271586
SP   1   1.00
      0.2700058              1.0000000              1.0000000
D    1   1.00
      2.5840000              1.0000000
D    1   1.00
      0.6460000              1.0000000
F    1   1.00
      1.4000000              1.0000000
****
F     0
S    6   1.00
   7001.7130900              0.0018196169
   1051.3660900              0.0139160796
    239.2856900              0.0684053245
     67.3974453              0.233185760
     21.5199573              0.471267439
      7.40310130             0.356618546
SP   3   1.00
     20.8479528             -0.108506975            0.0716287243
      4.80830834            -0.146451658            0.3459121030
      1.34406986             1.128688580            0.7224699570
SP   1   1.00
      0.358151393            1.0000000              1.0000000
D    1   1.00
      3.5000000              1.0000000
D    1   1.00
      0.8750000              1.0000000
F    1   1.00
      1.8500000              1.0000000
****
Al     0
S    6   1.00
  13983.1000000              0.00194267
   2098.7500000              0.0148599
    477.7050000              0.0728494
    134.3600000              0.2468300
     42.8709000              0.4872580
     14.5189000              0.3234960
SP   6   1.00
    239.6680000             -0.00292619             0.00460285
     57.4419000             -0.0374080              0.0331990
     18.2859000             -0.1144870              0.1362820
      6.5991400              0.1156350              0.3304760
      2.4904900              0.6125950              0.4491460
      0.9445400              0.3937990              0.2657040
SP   3   1.00
      1.2779000             -0.2276060             -0.0175130
      0.3975900              0.00144583             0.2445330
      0.1600950              1.0927900              0.8049340
SP   1   1.00
      0.0556577              1.0000000              1.0000000
D    1   1.00
      0.6500000              1.0000000
D    1   1.00
      0.1625000              1.0000000
F    1   1.00
      0.2500000              1.0000000
****
Si     0
S    6   1.00
  16115.9000000              0.00195948
   2425.5800000              0.01492880
    553.8670000              0.07284780
    156.3400000              0.24613000
     50.0683000              0.48591400
     17.0178000              0.32500200
SP   6   1.00
    292.7180000             -0.00278094             0.00443826
     69.8731000             -0.03571460             0.03266790
     22.3363000             -0.11498500             0.13472100
      8.1503900              0.09356340             0.32867800
      3.1345800              0.60301700             0.44964000
      1.2254300              0.41895900             0.26137200
SP   3   1.00
      1.7273800             -0.24463000            -0.01779510
      0.5729220              0.00431572             0.25353900
      0.2221920              1.09818000             0.80066900
SP   1   1.00
      0.0778369              1.00000000             1.00000000
D    1   1.00
      0.9000000              1.0000000
D    1   1.00
      0.2250000              1.0000000
F    1   1.00
      0.3200000              1.0000000
****
P     0
S    6   1.00
  19413.3000000              0.0018516
   2909.4200000              0.0142062
    661.3640000              0.0699995
    185.7590000              0.2400790
     59.1943000              0.4847620
     20.0310000              0.3352000
SP   6   1.00
    339.4780000             -0.00278217             0.00456462
     81.0101000             -0.0360499              0.03369360
     25.8780000             -0.1166310              0.13975500
      9.4522100              0.0968328              0.33936200
      3.6656600              0.6144180              0.45092100
      1.4674600              0.4037980              0.23858600
SP   3   1.00
      2.1562300             -0.2529230             -0.01776530
      0.7489970              0.0328517              0.27405800
      0.2831450              1.0812500              0.78542100
SP   1   1.00
      0.0998317              1.0000000              1.00000000
D    1   1.00
      1.1000000              1.0000000
D    1   1.00
      0.2750000              1.0000000
F    1   1.00
      0.4500000              1.0000000
****
S     0
S    6   1.00
  21917.1000000              0.0018690
   3301.4900000              0.0142300
    754.1460000              0.0696960
    212.7110000              0.2384870
     67.9896000              0.4833070
     23.0515000              0.3380740
SP   6   1.00
    423.7350000             -0.0023767              0.0040610
    100.7100000             -0.0316930              0.0306810
     32.1599000             -0.1133170              0.1304520
     11.8079000              0.0560900              0.3272050
      4.6311000              0.5922550              0.4528510
      1.8702500              0.4550060              0.2560420
SP   3   1.00
      2.6158400             -0.2503740             -0.0145110
      0.9221670              0.0669570              0.3102630
      0.3412870              1.0545100              0.7544830
SP   1   1.00
      0.1171670              1.0000000              1.0000000
D    1   1.00
      1.3000000              1.0000000
D    1   1.00
      0.3250000              1.0000000
F    1   1.00
      0.5500000              1.0000000
****
Cl     0
S    6   1.00
  25180.1000000              0.0018330
   3780.3500000              0.0140340
    860.4740000              0.0690970
    242.1450000              0.2374520
     77.3349000              0.4830340
     26.2470000              0.3398560
SP   6   1.00
    491.7650000             -0.0022974              0.0039894
    116.9840000             -0.0307140              0.0303180
     37.4153000             -0.1125280              0.1298800
     13.7834000              0.0450160              0.3279510
      5.4521500              0.5893530              0.4535270
      2.2258800              0.4652060              0.2521540
SP   3   1.00
      3.1864900             -0.2518300             -0.0142990
      1.1442700              0.0615890              0.3235720
      0.4203770              1.0601800              0.7435070
SP   1   1.00
      0.1426570              1.0000000              1.0000000
D    1   1.00
      1.5000000              1.0000000
D    1   1.00
      0.3750000              1.0000000
F    1   1.00
      0.7000000              1.0000000
****
}


set {
reference rhf                          
freeze_core true
e_convergence 10                       
d_convergence 10                      
dft_spherical_points 1202
dft_radial_points 99
}

e = energy('b3lyp')

print_out('Grab this energy {0}'.format(e))
--------------------------------------------------------------------------

  Memory set to  13.039 GiB by Python driver.

Scratch directory: /tmp/

*** tstart() called on n031
*** at Sun Nov 14 16:10:48 2021

   => Loading Basis Set <=

    Name: ANONYMOUS1BF85A28
    Role: ORBITAL
    Keyword: BASIS
    atoms 1-4  entry C          line    48 inputblock 6-31g_2dfp_ 
    atoms 5-14 entry H          line    15 inputblock 6-31g_2dfp_ 


         ---------------------------------------------------------
                                   SCF
               by Justin Turney, Rob Parrish, Andy Simmonett
                          and Daniel G. A. Smith
                              RKS Reference
                        4 Threads,  13351 MiB Core
         ---------------------------------------------------------

  ==> Geometry <==

    Molecular point group: c1
    Full point group: C1

    Geometry (in Bohr), charge = 0, multiplicity = 1:

       Center              X                  Y                   Z               Mass       
    ------------   -----------------  -----------------  -----------------  -----------------
         C           -3.682097657716     0.246855360811     0.002449075075    12.000000000000
         C           -1.070438770716    -0.971741587889    -0.002848769825    12.000000000000
         C            1.064623850984     0.974592048511    -0.002852157325    12.000000000000
         C            3.687484797384    -0.249525660289     0.002452083975    12.000000000000
         H           -5.181408737716    -1.169838990189     0.002007460375     1.007825032230
         H           -3.939047072216     1.442742457211    -1.660858328725     1.007825032230
         H           -3.930586937316     1.435882813511     1.673163553675     1.007825032230
         H           -0.872030046316    -2.196772417689     1.651797827075     1.007825032230
         H           -0.870482132116    -2.194429858889    -1.661354154725     1.007825032230
         H            0.864313356584     2.201178874811     1.653198638575     1.007825032230
         H            0.862744779584     2.198840287311    -1.662755944325     1.007825032230
         H            5.189408094784     1.166748733611     0.002011102175     1.007825032230
         H            3.945315140284    -1.446676573389    -1.661995611025     1.007825032230
         H            3.936867058384    -1.439820474189     1.674308158675     1.007825032230

  Running in c1 symmetry.

  Rotational constants: A =      0.78091  B =      0.12156  C =      0.11406 [cm^-1]
  Rotational constants: A =  23411.15018  B =   3644.13625  C =   3419.57389 [MHz]
  Nuclear repulsion =  130.687674233668673

  Charge       = 0
  Multiplicity = 1
  Electrons    = 34
  Nalpha       = 17
  Nbeta        = 17

  ==> Algorithm <==

  SCF Algorithm Type is DF.
  DIIS enabled.
  MOM disabled.
  Fractional occupation disabled.
  Guess Type is SAD.
  Energy threshold   = 1.00e-10
  Density threshold  = 1.00e-10
  Integral threshold = 0.00e+00

  ==> Primary Basis <==

  Basis Set: ANONYMOUS1BF85A28
    Blend: 6-31G_2DFP_
    Number of shells: 72
    Number of basis function: 184
    Number of Cartesian functions: 204
    Spherical Harmonics?: true
    Max angular momentum: 3

  ==> DFT Potential <==

   => Composite Functional: B3LYP <= 

    B3LYP Hyb-GGA Exchange-Correlation Functional

    P. J. Stephens, F. J. Devlin, C. F. Chabalowski, and M. J. Frisch, J. Phys. Chem. 98, 11623 (1994)

    Deriv               =              1
    GGA                 =           TRUE
    Meta                =          FALSE

    Exchange Hybrid     =           TRUE
    MP2 Hybrid          =          FALSE

   => Exchange Functionals <=

    0.0800   Slater exchange
    0.7200         Becke 88

   => Exact (HF) Exchange <=

    0.2000               HF 

   => Correlation Functionals <=

    0.1900   Vosko, Wilk & Nusair (VWN5_RPA)
    0.8100   Lee, Yang & Parr

   => Molecular Quadrature <=

    Radial Scheme          =       TREUTLER
    Pruning Scheme         =           NONE
    Nuclear Scheme         =       TREUTLER

    BS radius alpha        =              1
    Pruning alpha          =              1
    Radial Points          =             99
    Spherical Points       =           1202
    Total Points           =        1550372
    Total Blocks           =          10251
    Max Points             =            256
    Max Functions          =            180
    Weights Tolerance      =       1.00E-15

   => Loading Basis Set <=

    Name: (ANONYMOUS1BF85A28 AUX)
    Role: JKFIT
    Keyword: DF_BASIS_SCF
    atoms 1-4  entry C          line   198 file /opt/psi/4/master/share/psi4/basis/def2-universal-jkfit.gbs 
    atoms 5-14 entry H          line    18 file /opt/psi/4/master/share/psi4/basis/def2-universal-jkfit.gbs 

  ==> Integral Setup <==

  DFHelper Memory: AOs need 0.127 GiB; user supplied 3.473 GiB. Using in-core AOs.

  ==> MemDFJK: Density-Fitted J/K Matrices <==

    J tasked:                   Yes
    K tasked:                   Yes
    wK tasked:                   No
    OpenMP threads:               4
    Memory [MiB]:              3556
    Algorithm:                 Core
    Schwarz Cutoff:           1E-12
    Mask sparsity (%):       2.9064
    Fitting Condition:        1E-10

   => Auxiliary Basis Set <=

  Basis Set: (ANONYMOUS1BF85A28 AUX)
    Blend: DEF2-UNIVERSAL-JKFIT
    Number of shells: 160
    Number of basis function: 480
    Number of Cartesian functions: 556
    Spherical Harmonics?: true
    Max angular momentum: 4

  Cached 100.0% of DFT collocation blocks in 6.306 [GiB].

  Minimum eigenvalue in the overlap matrix is 1.1403831993E-03.
  Reciprocal condition number of the overlap matrix is 1.8309664818E-04.
    Using symmetric orthogonalization.

  ==> Pre-Iterations <==

  SCF Guess: Superposition of Atomic Densities via on-the-fly atomic UHF (no occupation information).

   -------------------------
    Irrep   Nso     Nmo    
   -------------------------
     A        184     184 
   -------------------------
    Total     184     184
   -------------------------

  ==> Iterations <==

                           Total Energy        Delta E     RMS |[F,P]|

   @DF-RKS iter SAD:  -157.72906089021598   -1.57729e+02   0.00000e+00 
   @DF-RKS iter   1:  -158.06042637580134   -3.31365e-01   4.70961e-03 DIIS
   @DF-RKS iter   2:  -157.86268098075016    1.97745e-01   5.64737e-03 DIIS
   @DF-RKS iter   3:  -158.47198575517902   -6.09305e-01   3.41896e-04 DIIS
   @DF-RKS iter   4:  -158.47336600154091   -1.38025e-03   1.99874e-04 DIIS
   @DF-RKS iter   5:  -158.47402189737059   -6.55896e-04   3.18993e-05 DIIS
   @DF-RKS iter   6:  -158.47403825992930   -1.63626e-05   3.56998e-06 DIIS
   @DF-RKS iter   7:  -158.47403848561930   -2.25690e-07   7.42077e-07 DIIS
   @DF-RKS iter   8:  -158.47403849547217   -9.85287e-09   1.41301e-07 DIIS
   @DF-RKS iter   9:  -158.47403849572231   -2.50139e-10   7.07723e-08 DIIS
   @DF-RKS iter  10:  -158.47403849580533   -8.30198e-11   4.47775e-09 DIIS
   @DF-RKS iter  11:  -158.47403849580553   -1.98952e-13   1.40560e-09 DIIS
   @DF-RKS iter  12:  -158.47403849580581   -2.84217e-13   7.11874e-10 DIIS
   @DF-RKS iter  13:  -158.47403849580544    3.69482e-13   2.74788e-11 DIIS
  Energy and wave function converged.


  ==> Post-Iterations <==

    Orbital Energies [Eh]
    ---------------------

    Doubly Occupied:                                                      

       1A    -10.169734     2A    -10.169035     3A    -10.164132  
       4A    -10.163417     5A     -0.790370     6A     -0.719551  
       7A     -0.626160     8A     -0.572336     9A     -0.464996  
      10A     -0.421927    11A     -0.414878    12A     -0.406826  
      13A     -0.364481    14A     -0.346695    15A     -0.329471  
      16A     -0.319845    17A     -0.317906  

    Virtual:                                                              

      18A      0.079769    19A      0.104617    20A      0.122116  
      21A      0.131989    22A      0.160642    23A      0.169467  
      24A      0.174609    25A      0.177051    26A      0.185803  
      27A      0.186211    28A      0.236123    29A      0.240013  
      30A      0.250602    31A      0.393704    32A      0.407459  
      33A      0.410476    34A      0.412139    35A      0.435850  
      36A      0.448593    37A      0.475110    38A      0.492207  
      39A      0.516409    40A      0.547966    41A      0.564426  
      42A      0.580954    43A      0.584435    44A      0.603654  
      45A      0.612367    46A      0.613794    47A      0.620760  
      48A      0.626530    49A      0.634870    50A      0.636001  
      51A      0.642204    52A      0.670391    53A      0.671711  
      54A      0.687151    55A      0.791087    56A      0.798950  
      57A      0.856828    58A      0.885638    59A      0.890072  
      60A      0.915002    61A      0.947520    62A      0.963227  
      63A      1.039472    64A      1.052850    65A      1.053687  
      66A      1.106477    67A      1.123870    68A      1.137170  
      69A      1.159382    70A      1.173528    71A      1.204639  
      72A      1.204964    73A      1.239505    74A      1.260180  
      75A      1.279690    76A      1.305616    77A      1.329850  
      78A      1.334074    79A      1.345359    80A      1.347660  
      81A      1.366084    82A      1.379295    83A      1.426151  
      84A      1.458673    85A      1.462736    86A      1.489829  
      87A      1.506177    88A      1.532895    89A      1.539067  
      90A      1.568193    91A      1.585669    92A      1.628280  
      93A      1.642557    94A      1.709046    95A      1.726729  
      96A      1.754627    97A      1.778148    98A      1.795475  
      99A      1.819709   100A      1.862552   101A      1.896044  
     102A      2.029589   103A      2.088631   104A      2.123228  
     105A      2.180696   106A      2.284699   107A      2.713770  
     108A      2.749836   109A      2.755364   110A      2.828128  
     111A      2.830358   112A      2.899423   113A      2.900425  
     114A      2.934385   115A      2.957911   116A      2.966319  
     117A      2.984545   118A      2.995898   119A      3.007571  
     120A      3.040317   121A      3.101495   122A      3.157109  
     123A      3.162884   124A      3.167958   125A      3.235965  
     126A      3.261593   127A      3.331638   128A      3.394961  
     129A      3.441137   130A      3.445003   131A      3.471623  
     132A      3.481253   133A      3.507903   134A      3.574340  
     135A      3.588368   136A      3.604118   137A      3.607504  
     138A      3.629643   139A      3.651123   140A      3.686077  
     141A      3.691905   142A      3.695397   143A      3.757320  
     144A      3.831671   145A      3.855501   146A      3.973359  
     147A      3.991456   148A      4.004213   149A      4.021273  
     150A      4.072595   151A      4.073549   152A      4.161925  
     153A      4.173920   154A      4.194775   155A      4.195284  
     156A      4.216647   157A      4.244943   158A      4.292662  
     159A      4.320010   160A      4.363704   161A      4.386193  
     162A      4.426471   163A      4.429962   164A      4.479014  
     165A      4.524121   166A      4.537264   167A      4.541215  
     168A      4.559113   169A      4.564973   170A      4.574193  
     171A      4.611024   172A      4.694982   173A      4.778725  
     174A      4.789831   175A      4.933601   176A      5.003260  
     177A      5.095297   178A      5.180064   179A      5.215620  
     180A      5.296537   181A      5.306059   182A      5.331960  
     183A      5.374324   184A      5.413862  

    Final Occupation by Irrep:
              A 
    DOCC [    17 ]

  @DF-RKS Final Energy:  -158.47403849580544

   => Energetics <=

    Nuclear Repulsion Energy =            130.6876742336686732
    One-Electron Energy =                -469.9613317735758642
    Two-Electron Energy =                 201.4368765210086281
    DFT Exchange-Correlation Energy =     -20.6372574769069104
    Empirical Dispersion Energy =           0.0000000000000000
    VV10 Nonlocal Energy =                  0.0000000000000000
    Total Energy =                       -158.4740384958054449

Computation Completed


Properties will be evaluated at   0.000000,   0.000000,   0.000000 [a0]

Properties computed using the SCF density matrix

  Nuclear Dipole Moment: [e a0]
     X:     0.0025      Y:    -0.0011      Z:     0.0047

  Electronic Dipole Moment: [e a0]
     X:    -0.0034      Y:     0.0002      Z:    -0.0043

  Dipole Moment: [e a0]
     X:    -0.0008      Y:    -0.0009      Z:     0.0004     Total:     0.0013

  Dipole Moment: [D]
     X:    -0.0021      Y:    -0.0023      Z:     0.0010     Total:     0.0033


*** tstop() called on n031 at Sun Nov 14 16:11:29 2021
Module time:
	user time   =     157.37 seconds =       2.62 minutes
	system time =       1.54 seconds =       0.03 minutes
	total time  =         41 seconds =       0.68 minutes
Total time:
	user time   =     157.37 seconds =       2.62 minutes
	system time =       1.54 seconds =       0.03 minutes
	total time  =         41 seconds =       0.68 minutes
Grab this energy -158.47403849580544
    Psi4 stopped on: Sunday, 14 November 2021 04:11PM
    Psi4 wall time for execution: 0:00:40.76

*** Psi4 exiting successfully. Buy a developer a beer!
