
    -----------------------------------------------------------------------
          Psi4: An Open-Source Ab Initio Electronic Structure Package
                               Psi4 1.4a2.dev629 

                         Git: Rev {master} 2938fc2 dirty


    D. G. A. Smith, L. A. Burns, A. C. Simmonett, R. M. Parrish,
    M. C. Schieber, R. Galvelis, P. Kraus, H. Kruse, R. Di Remigio,
    A. Alenaizan, A. M. James, S. Lehtola, J. P. Misiewicz, M. Scheurer,
    R. A. Shaw, J. B. Schriber, Y. Xie, Z. L. Glick, D. A. Sirianni,
    J. S. O'Brien, J. M. Waldrop, A. Kumar, E. G. Hohenstein,
    B. P. Pritchard, B. R. Brooks, H. F. Schaefer III, A. Yu. Sokolov,
    K. Patkowski, A. E. DePrince III, U. Bozkaya, R. A. King,
    F. A. Evangelista, J. M. Turney, T. D. Crawford, C. D. Sherrill,
    J. Chem. Phys. 152(18) 184108 (2020). https://doi.org/10.1063/5.0006002

                            Additional Code Authors
    E. T. Seidl, C. L. Janssen, E. F. Valeev, M. L. Leininger,
    J. F. Gonthier, R. M. Richard, H. R. McAlexander, M. Saitow, X. Wang,
    P. Verma, and M. H. Lechner

             Previous Authors, Complete List of Code Contributors,
                       and Citations for Specific Modules
    https://github.com/psi4/psi4/blob/master/codemeta.json
    https://github.com/psi4/psi4/graphs/contributors
    http://psicode.org/psi4manual/master/introduction.html#citing-psifour

    -----------------------------------------------------------------------


    Psi4 started on: Sunday, 14 November 2021 02:46PM

    Process ID: 29681
    Host:       n065
    PSIDATADIR: /opt/psi/4/master/share/psi4
    Memory:     500.0 MiB
    Threads:    4
    
  ==> Input File <==

--------------------------------------------------------------------------
import os
memory 14 GB 
 
molecule {
 C   -3.6858239270    0.2476956400    0.0000000000
 C   -1.0675809946   -0.9717491701   -0.0000000000
 C    1.0677696950    0.9719455637    0.0000000000
 C    3.6843535005   -0.2469944556    0.0000000000
 H   -5.1838314914   -1.1646217042    0.0000000000
 H   -3.9386513644    1.4396823955   -1.6642159303
 H   -3.9386513644    1.4396823955    1.6642159303
 H   -0.8670355753   -2.1983361664    1.6576481769
 H   -0.8670355753   -2.1983361664   -1.6576481769
 H    0.8676647904    2.1979106461    1.6565541169
 H    0.8676647904    2.1979106461   -1.6565541169
 H    5.1870252918    1.1717813133    0.0000000000
 H    3.9370661121   -1.4432854688   -1.6707819342
 H    3.9370661121   -1.4432854688    1.6707819342
units bohr
}

basis {

assign 6-31g_2dfp_

[ 6-31g_2dfp_ ]

spherical

!----------------------------------------------------------------------
! Basis Set Exchange
! Version v0.8.13
! https://www.basissetexchange.org
!----------------------------------------------------------------------
!   Basis set: 6-31G(2df,p)
! Description: 6-31G(2df,p)
!        Role: orbital
!     Version: 0  (Data from the original Basis Set Exchange)
!----------------------------------------------------------------------


****
H     0
S    3   1.00
     18.7311370              0.03349460
      2.8253937              0.23472695
      0.6401217              0.81375733
S    1   1.00
      0.1612778              1.00000000
P    1   1.00
      1.5000000              1.0000000
P    1   1.00
      0.3750000              1.0000000
****
B     0
S    6   1.00
   2068.8823000              0.0018663
    310.6495700              0.0142515
     70.6830330              0.0695516
     19.8610800              0.2325729
      6.2993048              0.4670787
      2.1270270              0.3634314
SP   3   1.00
      4.7279710             -0.1303938              0.0745976
      1.1903377             -0.1307889              0.3078467
      0.3594117              1.1309444              0.7434568
SP   1   1.00
      0.1267512              1.0000000              1.0000000
D    1   1.00
      0.8020000              1.0000000
D    1   1.00
      0.2005000              1.0000000
F    1   1.00
      0.5000000              1.0000000
****
C     0
S    6   1.00
   3047.5249000              0.0018347
    457.3695100              0.0140373
    103.9486900              0.0688426
     29.2101550              0.2321844
      9.2866630              0.4679413
      3.1639270              0.3623120
SP   3   1.00
      7.8682724             -0.1193324              0.0689991
      1.8812885             -0.1608542              0.3164240
      0.5442493              1.1434564              0.7443083
SP   1   1.00
      0.1687144              1.0000000              1.0000000
D    1   1.00
      1.2520000              1.0000000
D    1   1.00
      0.3130000              1.0000000
F    1   1.00
      0.8000000              1.0000000
****
N     0
S    6   1.00
   4173.5110000              0.0018348
    627.4579000              0.0139950
    142.9021000              0.0685870
     40.2343300              0.2322410
     12.8202100              0.4690700
      4.3904370              0.3604550
SP   3   1.00
     11.6263580             -0.1149610              0.0675800
      2.7162800             -0.1691180              0.3239070
      0.7722180              1.1458520              0.7408950
SP   1   1.00
      0.2120313              1.0000000              1.0000000
D    1   1.00
      1.8260000              1.0000000
D    1   1.00
      0.4565000              1.0000000
F    1   1.00
      1.0000000              1.0000000
****
O     0
S    6   1.00
   5484.6717000              0.0018311
    825.2349500              0.0139501
    188.0469600              0.0684451
     52.9645000              0.2327143
     16.8975700              0.4701930
      5.7996353              0.3585209
SP   3   1.00
     15.5396160             -0.1107775              0.0708743
      3.5999336             -0.1480263              0.3397528
      1.0137618              1.1307670              0.7271586
SP   1   1.00
      0.2700058              1.0000000              1.0000000
D    1   1.00
      2.5840000              1.0000000
D    1   1.00
      0.6460000              1.0000000
F    1   1.00
      1.4000000              1.0000000
****
F     0
S    6   1.00
   7001.7130900              0.0018196169
   1051.3660900              0.0139160796
    239.2856900              0.0684053245
     67.3974453              0.233185760
     21.5199573              0.471267439
      7.40310130             0.356618546
SP   3   1.00
     20.8479528             -0.108506975            0.0716287243
      4.80830834            -0.146451658            0.3459121030
      1.34406986             1.128688580            0.7224699570
SP   1   1.00
      0.358151393            1.0000000              1.0000000
D    1   1.00
      3.5000000              1.0000000
D    1   1.00
      0.8750000              1.0000000
F    1   1.00
      1.8500000              1.0000000
****
Al     0
S    6   1.00
  13983.1000000              0.00194267
   2098.7500000              0.0148599
    477.7050000              0.0728494
    134.3600000              0.2468300
     42.8709000              0.4872580
     14.5189000              0.3234960
SP   6   1.00
    239.6680000             -0.00292619             0.00460285
     57.4419000             -0.0374080              0.0331990
     18.2859000             -0.1144870              0.1362820
      6.5991400              0.1156350              0.3304760
      2.4904900              0.6125950              0.4491460
      0.9445400              0.3937990              0.2657040
SP   3   1.00
      1.2779000             -0.2276060             -0.0175130
      0.3975900              0.00144583             0.2445330
      0.1600950              1.0927900              0.8049340
SP   1   1.00
      0.0556577              1.0000000              1.0000000
D    1   1.00
      0.6500000              1.0000000
D    1   1.00
      0.1625000              1.0000000
F    1   1.00
      0.2500000              1.0000000
****
Si     0
S    6   1.00
  16115.9000000              0.00195948
   2425.5800000              0.01492880
    553.8670000              0.07284780
    156.3400000              0.24613000
     50.0683000              0.48591400
     17.0178000              0.32500200
SP   6   1.00
    292.7180000             -0.00278094             0.00443826
     69.8731000             -0.03571460             0.03266790
     22.3363000             -0.11498500             0.13472100
      8.1503900              0.09356340             0.32867800
      3.1345800              0.60301700             0.44964000
      1.2254300              0.41895900             0.26137200
SP   3   1.00
      1.7273800             -0.24463000            -0.01779510
      0.5729220              0.00431572             0.25353900
      0.2221920              1.09818000             0.80066900
SP   1   1.00
      0.0778369              1.00000000             1.00000000
D    1   1.00
      0.9000000              1.0000000
D    1   1.00
      0.2250000              1.0000000
F    1   1.00
      0.3200000              1.0000000
****
P     0
S    6   1.00
  19413.3000000              0.0018516
   2909.4200000              0.0142062
    661.3640000              0.0699995
    185.7590000              0.2400790
     59.1943000              0.4847620
     20.0310000              0.3352000
SP   6   1.00
    339.4780000             -0.00278217             0.00456462
     81.0101000             -0.0360499              0.03369360
     25.8780000             -0.1166310              0.13975500
      9.4522100              0.0968328              0.33936200
      3.6656600              0.6144180              0.45092100
      1.4674600              0.4037980              0.23858600
SP   3   1.00
      2.1562300             -0.2529230             -0.01776530
      0.7489970              0.0328517              0.27405800
      0.2831450              1.0812500              0.78542100
SP   1   1.00
      0.0998317              1.0000000              1.00000000
D    1   1.00
      1.1000000              1.0000000
D    1   1.00
      0.2750000              1.0000000
F    1   1.00
      0.4500000              1.0000000
****
S     0
S    6   1.00
  21917.1000000              0.0018690
   3301.4900000              0.0142300
    754.1460000              0.0696960
    212.7110000              0.2384870
     67.9896000              0.4833070
     23.0515000              0.3380740
SP   6   1.00
    423.7350000             -0.0023767              0.0040610
    100.7100000             -0.0316930              0.0306810
     32.1599000             -0.1133170              0.1304520
     11.8079000              0.0560900              0.3272050
      4.6311000              0.5922550              0.4528510
      1.8702500              0.4550060              0.2560420
SP   3   1.00
      2.6158400             -0.2503740             -0.0145110
      0.9221670              0.0669570              0.3102630
      0.3412870              1.0545100              0.7544830
SP   1   1.00
      0.1171670              1.0000000              1.0000000
D    1   1.00
      1.3000000              1.0000000
D    1   1.00
      0.3250000              1.0000000
F    1   1.00
      0.5500000              1.0000000
****
Cl     0
S    6   1.00
  25180.1000000              0.0018330
   3780.3500000              0.0140340
    860.4740000              0.0690970
    242.1450000              0.2374520
     77.3349000              0.4830340
     26.2470000              0.3398560
SP   6   1.00
    491.7650000             -0.0022974              0.0039894
    116.9840000             -0.0307140              0.0303180
     37.4153000             -0.1125280              0.1298800
     13.7834000              0.0450160              0.3279510
      5.4521500              0.5893530              0.4535270
      2.2258800              0.4652060              0.2521540
SP   3   1.00
      3.1864900             -0.2518300             -0.0142990
      1.1442700              0.0615890              0.3235720
      0.4203770              1.0601800              0.7435070
SP   1   1.00
      0.1426570              1.0000000              1.0000000
D    1   1.00
      1.5000000              1.0000000
D    1   1.00
      0.3750000              1.0000000
F    1   1.00
      0.7000000              1.0000000
****
}


set {
reference rhf                          
freeze_core true
e_convergence 10                       
d_convergence 10                      
dft_spherical_points 1202
dft_radial_points 99
}

e = energy('b3lyp')

print_out('Grab this energy {0}'.format(e))
--------------------------------------------------------------------------

  Memory set to  13.039 GiB by Python driver.

Scratch directory: /tmp/

*** tstart() called on n065
*** at Sun Nov 14 14:46:32 2021

   => Loading Basis Set <=

    Name: ANONYMOUS60488791
    Role: ORBITAL
    Keyword: BASIS
    atoms 1-4  entry C          line    48 inputblock 6-31g_2dfp_ 
    atoms 5-14 entry H          line    15 inputblock 6-31g_2dfp_ 


         ---------------------------------------------------------
                                   SCF
               by Justin Turney, Rob Parrish, Andy Simmonett
                          and Daniel G. A. Smith
                              RKS Reference
                        4 Threads,  13351 MiB Core
         ---------------------------------------------------------

  ==> Geometry <==

    Molecular point group: cs
    Full point group: Cs

    Geometry (in Bohr), charge = 0, multiplicity = 1:

       Center              X                  Y                   Z               Mass       
    ------------   -----------------  -----------------  -----------------  -----------------
         C           -3.685581341220     0.247525759980     0.000000000000    12.000000000000
         C           -1.067338408820    -0.971919050120     0.000000000000    12.000000000000
         C            1.068012280780     0.971775683680     0.000000000000    12.000000000000
         C            3.684596086280    -0.247164335620     0.000000000000    12.000000000000
         H           -5.183588905620    -1.164791584220     0.000000000000     1.007825032230
         H           -3.938408778620     1.439512515480    -1.664215930300     1.007825032230
         H           -3.938408778620     1.439512515480     1.664215930300     1.007825032230
         H           -0.866792989520    -2.198506046420     1.657648176900     1.007825032230
         H           -0.866792989520    -2.198506046420    -1.657648176900     1.007825032230
         H            0.867907376180     2.197740766080     1.656554116900     1.007825032230
         H            0.867907376180     2.197740766080    -1.656554116900     1.007825032230
         H            5.187267877580     1.171611433280     0.000000000000     1.007825032230
         H            3.937308697880    -1.443455348820    -1.670781934200     1.007825032230
         H            3.937308697880    -1.443455348820     1.670781934200     1.007825032230

  Running in cs symmetry.

  Rotational constants: A =      0.78160  B =      0.12154  C =      0.11407 [cm^-1]
  Rotational constants: A =  23431.89083  B =   3643.74978  C =   3419.62377 [MHz]
  Nuclear repulsion =  130.696555256543206

  Charge       = 0
  Multiplicity = 1
  Electrons    = 34
  Nalpha       = 17
  Nbeta        = 17

  ==> Algorithm <==

  SCF Algorithm Type is DF.
  DIIS enabled.
  MOM disabled.
  Fractional occupation disabled.
  Guess Type is SAD.
  Energy threshold   = 1.00e-10
  Density threshold  = 1.00e-10
  Integral threshold = 0.00e+00

  ==> Primary Basis <==

  Basis Set: ANONYMOUS60488791
    Blend: 6-31G_2DFP_
    Number of shells: 72
    Number of basis function: 184
    Number of Cartesian functions: 204
    Spherical Harmonics?: true
    Max angular momentum: 3

  ==> DFT Potential <==

   => Composite Functional: B3LYP <= 

    B3LYP Hyb-GGA Exchange-Correlation Functional

    P. J. Stephens, F. J. Devlin, C. F. Chabalowski, and M. J. Frisch, J. Phys. Chem. 98, 11623 (1994)

    Deriv               =              1
    GGA                 =           TRUE
    Meta                =          FALSE

    Exchange Hybrid     =           TRUE
    MP2 Hybrid          =          FALSE

   => Exchange Functionals <=

    0.0800   Slater exchange
    0.7200         Becke 88

   => Exact (HF) Exchange <=

    0.2000               HF 

   => Correlation Functionals <=

    0.1900   Vosko, Wilk & Nusair (VWN5_RPA)
    0.8100   Lee, Yang & Parr

   => Molecular Quadrature <=

    Radial Scheme          =       TREUTLER
    Pruning Scheme         =           NONE
    Nuclear Scheme         =       TREUTLER

    BS radius alpha        =              1
    Pruning alpha          =              1
    Radial Points          =             99
    Spherical Points       =           1202
    Total Points           =        1550397
    Total Blocks           =          10238
    Max Points             =            256
    Max Functions          =            180
    Weights Tolerance      =       1.00E-15

   => Loading Basis Set <=

    Name: (ANONYMOUS60488791 AUX)
    Role: JKFIT
    Keyword: DF_BASIS_SCF
    atoms 1-4  entry C          line   198 file /opt/psi/4/master/share/psi4/basis/def2-universal-jkfit.gbs 
    atoms 5-14 entry H          line    18 file /opt/psi/4/master/share/psi4/basis/def2-universal-jkfit.gbs 

  ==> Integral Setup <==

  DFHelper Memory: AOs need 0.127 GiB; user supplied 3.474 GiB. Using in-core AOs.

  ==> MemDFJK: Density-Fitted J/K Matrices <==

    J tasked:                   Yes
    K tasked:                   Yes
    wK tasked:                   No
    OpenMP threads:               4
    Memory [MiB]:              3557
    Algorithm:                 Core
    Schwarz Cutoff:           1E-12
    Mask sparsity (%):       2.9301
    Fitting Condition:        1E-10

   => Auxiliary Basis Set <=

  Basis Set: (ANONYMOUS60488791 AUX)
    Blend: DEF2-UNIVERSAL-JKFIT
    Number of shells: 160
    Number of basis function: 480
    Number of Cartesian functions: 556
    Spherical Harmonics?: true
    Max angular momentum: 4

  Cached 100.0% of DFT collocation blocks in 6.304 [GiB].

  Minimum eigenvalue in the overlap matrix is 1.1385031277E-03.
  Reciprocal condition number of the overlap matrix is 1.9920545506E-04.
    Using symmetric orthogonalization.

  ==> Pre-Iterations <==

  SCF Guess: Superposition of Atomic Densities via on-the-fly atomic UHF (no occupation information).

   -------------------------
    Irrep   Nso     Nmo    
   -------------------------
     A'       112     112 
     A"        72      72 
   -------------------------
    Total     184     184
   -------------------------

  ==> Iterations <==

                           Total Energy        Delta E     RMS |[F,P]|

   @DF-RKS iter SAD:  -157.73011774310950   -1.57730e+02   0.00000e+00 
   @DF-RKS iter   1:  -158.06018408452042   -3.30066e-01   6.51031e-03 DIIS
   @DF-RKS iter   2:  -157.86188059644334    1.98303e-01   7.80923e-03 DIIS
   @DF-RKS iter   3:  -158.47198214188597   -6.10102e-01   4.73439e-04 DIIS
   @DF-RKS iter   4:  -158.47336663980292   -1.38450e-03   2.77017e-04 DIIS
   @DF-RKS iter   5:  -158.47402640022483   -6.59760e-04   4.39791e-05 DIIS
   @DF-RKS iter   6:  -158.47404268364306   -1.62834e-05   4.91429e-06 DIIS
   @DF-RKS iter   7:  -158.47404290868758   -2.25045e-07   9.67286e-07 DIIS
   @DF-RKS iter   8:  -158.47404291779279   -9.10521e-09   9.50770e-08 DIIS
   @DF-RKS iter   9:  -158.47404291785395   -6.11635e-11   5.24676e-08 DIIS
   @DF-RKS iter  10:  -158.47404291787785   -2.39027e-11   9.85419e-09 DIIS
   @DF-RKS iter  11:  -158.47404291787876   -9.09495e-13   1.32371e-09 DIIS
   @DF-RKS iter  12:  -158.47404291787882   -5.68434e-14   7.75371e-10 DIIS
   @DF-RKS iter  13:  -158.47404291787871    1.13687e-13   3.21918e-11 DIIS
  Energy and wave function converged.


  ==> Post-Iterations <==

    Orbital Energies [Eh]
    ---------------------

    Doubly Occupied:                                                      

       1Ap   -10.169516     2Ap   -10.169331     3Ap   -10.164387  
       4Ap   -10.163206     5Ap    -0.790480     6Ap    -0.719651  
       7Ap    -0.626235     8Ap    -0.572231     1App   -0.464913  
       9Ap    -0.422049    10Ap    -0.415134     2App   -0.406733  
      11Ap    -0.364508     3App   -0.346539    12Ap    -0.329478  
       4App   -0.319566    13Ap    -0.318228  

    Virtual:                                                              

      14Ap     0.079767    15Ap     0.104625     5App    0.121998  
      16Ap     0.131865    17Ap     0.160737    18Ap     0.169455  
      19Ap     0.174624     6App    0.176998     7App    0.185559  
       8App    0.186168    20Ap     0.236243    21Ap     0.240096  
      22Ap     0.250902    23Ap     0.393541     9App    0.407570  
      24Ap     0.410270    10App    0.412155    25Ap     0.435752  
      11App    0.448635    26Ap     0.475196    12App    0.492216  
      27Ap     0.516360    28Ap     0.548038    29Ap     0.564565  
      30Ap     0.581144    31Ap     0.584523    32Ap     0.603615  
      13App    0.612196    33Ap     0.613833    14App    0.620680  
      15App    0.626300    16App    0.634747    17App    0.635879  
      34Ap     0.642182    35Ap     0.670288    36Ap     0.671683  
      37Ap     0.687090    18App    0.791184    19App    0.798942  
      38Ap     0.856758    20App    0.885762    21App    0.890079  
      22App    0.915039    39Ap     0.947605    40Ap     0.963434  
      23App    1.039190    41Ap     1.052735    42Ap     1.053712  
      43Ap     1.106463    44Ap     1.123662    24App    1.137375  
      25App    1.159381    45Ap     1.173366    46Ap     1.204460  
      26App    1.204871    47Ap     1.239678    48Ap     1.260379  
      27App    1.279422    49Ap     1.305854    50Ap     1.330144  
      28App    1.333837    29App    1.345151    51Ap     1.347097  
      52Ap     1.366107    53Ap     1.379030    30App    1.426203  
      31App    1.458664    54Ap     1.463164    55Ap     1.490299  
      56Ap     1.506245    32App    1.532628    57Ap     1.539192  
      33App    1.568052    58Ap     1.585663    34App    1.628229  
      59Ap     1.643152    60Ap     1.709084    61Ap     1.726876  
      62Ap     1.754206    35App    1.777750    63Ap     1.794682  
      64Ap     1.820039    65Ap     1.863769    36App    1.895505  
      66Ap     2.029489    67Ap     2.088519    68Ap     2.123164  
      37App    2.180453    38App    2.285579    69Ap     2.713742  
      70Ap     2.750020    71Ap     2.755592    39App    2.828362  
      40App    2.829720    72Ap     2.899656    41App    2.900321  
      42App    2.934162    43App    2.958080    44App    2.966165  
      45App    2.984827    73Ap     2.995645    74Ap     3.007766  
      46App    3.040653    47App    3.101260    75Ap     3.157168  
      76Ap     3.163159    48App    3.167775    77Ap     3.235677  
      78Ap     3.262336    49App    3.331836    79Ap     3.394943  
      80Ap     3.440702    50App    3.445085    81Ap     3.471388  
      51App    3.481432    82Ap     3.507917    83Ap     3.574181  
      84Ap     3.588750    52App    3.604175    85Ap     3.607664  
      53App    3.629762    86Ap     3.651492    87Ap     3.686249  
      54App    3.692270    55App    3.695442    88Ap     3.756266  
      89Ap     3.831449    90Ap     3.856377    56App    3.974049  
      91Ap     3.991679    57App    4.004497    92Ap     4.020992  
      58App    4.072448    93Ap     4.073910    94Ap     4.162029  
      95Ap     4.174077    59App    4.194161    96Ap     4.195201  
      60App    4.217258    97Ap     4.244919    98Ap     4.292546  
      99Ap     4.319492    61App    4.363706    62App    4.385026  
      63App    4.425904   100Ap     4.429789   101Ap     4.479930  
      64App    4.523096   102Ap     4.538843    65App    4.540681  
     103Ap     4.559980    66App    4.564940    67App    4.573678  
      68App    4.610780   104Ap     4.695263   105Ap     4.779301  
     106Ap     4.791106   107Ap     4.933512   108Ap     5.002408  
     109Ap     5.094753   110Ap     5.179459    69App    5.214695  
     111Ap     5.294739   112Ap     5.308506    70App    5.331839  
      71App    5.374915    72App    5.413955  

    Final Occupation by Irrep:
             Ap   App 
    DOCC [    13,    4 ]

  @DF-RKS Final Energy:  -158.47404291787871

   => Energetics <=

    Nuclear Repulsion Energy =            130.6965552565432063
    One-Electron Energy =                -469.9783173928457813
    Two-Electron Energy =                 201.4448990727616433
    DFT Exchange-Correlation Energy =     -20.6371798543377665
    Empirical Dispersion Energy =           0.0000000000000000
    VV10 Nonlocal Energy =                  0.0000000000000000
    Total Energy =                       -158.4740429178787053

Computation Completed


Properties will be evaluated at   0.000000,   0.000000,   0.000000 [a0]

Properties computed using the SCF density matrix

  Nuclear Dipole Moment: [e a0]
     X:     0.0018      Y:    -0.0013      Z:     0.0000

  Electronic Dipole Moment: [e a0]
     X:    -0.0040      Y:     0.0026      Z:     0.0000

  Dipole Moment: [e a0]
     X:    -0.0022      Y:     0.0013      Z:     0.0000     Total:     0.0026

  Dipole Moment: [D]
     X:    -0.0056      Y:     0.0034      Z:     0.0000     Total:     0.0065


*** tstop() called on n065 at Sun Nov 14 14:47:05 2021
Module time:
	user time   =     124.72 seconds =       2.08 minutes
	system time =       1.83 seconds =       0.03 minutes
	total time  =         33 seconds =       0.55 minutes
Total time:
	user time   =     124.72 seconds =       2.08 minutes
	system time =       1.83 seconds =       0.03 minutes
	total time  =         33 seconds =       0.55 minutes
Grab this energy -158.4740429178787
    Psi4 stopped on: Sunday, 14 November 2021 02:47PM
    Psi4 wall time for execution: 0:00:32.53

*** Psi4 exiting successfully. Buy a developer a beer!
