
    -----------------------------------------------------------------------
          Psi4: An Open-Source Ab Initio Electronic Structure Package
                               Psi4 1.4a2.dev629 

                         Git: Rev {master} 2938fc2 dirty


    D. G. A. Smith, L. A. Burns, A. C. Simmonett, R. M. Parrish,
    M. C. Schieber, R. Galvelis, P. Kraus, H. Kruse, R. Di Remigio,
    A. Alenaizan, A. M. James, S. Lehtola, J. P. Misiewicz, M. Scheurer,
    R. A. Shaw, J. B. Schriber, Y. Xie, Z. L. Glick, D. A. Sirianni,
    J. S. O'Brien, J. M. Waldrop, A. Kumar, E. G. Hohenstein,
    B. P. Pritchard, B. R. Brooks, H. F. Schaefer III, A. Yu. Sokolov,
    K. Patkowski, A. E. DePrince III, U. Bozkaya, R. A. King,
    F. A. Evangelista, J. M. Turney, T. D. Crawford, C. D. Sherrill,
    J. Chem. Phys. 152(18) 184108 (2020). https://doi.org/10.1063/5.0006002

                            Additional Code Authors
    E. T. Seidl, C. L. Janssen, E. F. Valeev, M. L. Leininger,
    J. F. Gonthier, R. M. Richard, H. R. McAlexander, M. Saitow, X. Wang,
    P. Verma, and M. H. Lechner

             Previous Authors, Complete List of Code Contributors,
                       and Citations for Specific Modules
    https://github.com/psi4/psi4/blob/master/codemeta.json
    https://github.com/psi4/psi4/graphs/contributors
    http://psicode.org/psi4manual/master/introduction.html#citing-psifour

    -----------------------------------------------------------------------


    Psi4 started on: Sunday, 14 November 2021 03:33PM

    Process ID: 27156
    Host:       n083
    PSIDATADIR: /opt/psi/4/master/share/psi4
    Memory:     500.0 MiB
    Threads:    4
    
  ==> Input File <==

--------------------------------------------------------------------------
import os
memory 14 GB 
 
molecule {
 C   -3.6927955519    0.2485793515    0.0000704452
 C   -1.0707813355   -0.9731294935   -0.0014971140
 C    1.0707813355    0.9731294935   -0.0014971140
 C    3.6927955519   -0.2485793515    0.0000704452
 H   -5.1930660702   -1.1696078425    0.0022998096
 H   -3.9471266440    1.4410575396   -1.6682273455
 H   -3.9478161899    1.4423322562    1.6669572436
 H   -0.8716198925   -2.2006087611    1.6579041435
 H   -0.8715477113   -2.1938875765   -1.6575071824
 H    0.8716198925    2.2006087611    1.6579041435
 H    0.8715477113    2.1938875765   -1.6575071824
 H    5.1930660702    1.1696078425    0.0022998096
 H    3.9471266440   -1.4410575396   -1.6682273455
 H    3.9478161899   -1.4423322562    1.6669572436
units bohr
}

basis {

assign 6-31g_2dfp_

[ 6-31g_2dfp_ ]

spherical

!----------------------------------------------------------------------
! Basis Set Exchange
! Version v0.8.13
! https://www.basissetexchange.org
!----------------------------------------------------------------------
!   Basis set: 6-31G(2df,p)
! Description: 6-31G(2df,p)
!        Role: orbital
!     Version: 0  (Data from the original Basis Set Exchange)
!----------------------------------------------------------------------


****
H     0
S    3   1.00
     18.7311370              0.03349460
      2.8253937              0.23472695
      0.6401217              0.81375733
S    1   1.00
      0.1612778              1.00000000
P    1   1.00
      1.5000000              1.0000000
P    1   1.00
      0.3750000              1.0000000
****
B     0
S    6   1.00
   2068.8823000              0.0018663
    310.6495700              0.0142515
     70.6830330              0.0695516
     19.8610800              0.2325729
      6.2993048              0.4670787
      2.1270270              0.3634314
SP   3   1.00
      4.7279710             -0.1303938              0.0745976
      1.1903377             -0.1307889              0.3078467
      0.3594117              1.1309444              0.7434568
SP   1   1.00
      0.1267512              1.0000000              1.0000000
D    1   1.00
      0.8020000              1.0000000
D    1   1.00
      0.2005000              1.0000000
F    1   1.00
      0.5000000              1.0000000
****
C     0
S    6   1.00
   3047.5249000              0.0018347
    457.3695100              0.0140373
    103.9486900              0.0688426
     29.2101550              0.2321844
      9.2866630              0.4679413
      3.1639270              0.3623120
SP   3   1.00
      7.8682724             -0.1193324              0.0689991
      1.8812885             -0.1608542              0.3164240
      0.5442493              1.1434564              0.7443083
SP   1   1.00
      0.1687144              1.0000000              1.0000000
D    1   1.00
      1.2520000              1.0000000
D    1   1.00
      0.3130000              1.0000000
F    1   1.00
      0.8000000              1.0000000
****
N     0
S    6   1.00
   4173.5110000              0.0018348
    627.4579000              0.0139950
    142.9021000              0.0685870
     40.2343300              0.2322410
     12.8202100              0.4690700
      4.3904370              0.3604550
SP   3   1.00
     11.6263580             -0.1149610              0.0675800
      2.7162800             -0.1691180              0.3239070
      0.7722180              1.1458520              0.7408950
SP   1   1.00
      0.2120313              1.0000000              1.0000000
D    1   1.00
      1.8260000              1.0000000
D    1   1.00
      0.4565000              1.0000000
F    1   1.00
      1.0000000              1.0000000
****
O     0
S    6   1.00
   5484.6717000              0.0018311
    825.2349500              0.0139501
    188.0469600              0.0684451
     52.9645000              0.2327143
     16.8975700              0.4701930
      5.7996353              0.3585209
SP   3   1.00
     15.5396160             -0.1107775              0.0708743
      3.5999336             -0.1480263              0.3397528
      1.0137618              1.1307670              0.7271586
SP   1   1.00
      0.2700058              1.0000000              1.0000000
D    1   1.00
      2.5840000              1.0000000
D    1   1.00
      0.6460000              1.0000000
F    1   1.00
      1.4000000              1.0000000
****
F     0
S    6   1.00
   7001.7130900              0.0018196169
   1051.3660900              0.0139160796
    239.2856900              0.0684053245
     67.3974453              0.233185760
     21.5199573              0.471267439
      7.40310130             0.356618546
SP   3   1.00
     20.8479528             -0.108506975            0.0716287243
      4.80830834            -0.146451658            0.3459121030
      1.34406986             1.128688580            0.7224699570
SP   1   1.00
      0.358151393            1.0000000              1.0000000
D    1   1.00
      3.5000000              1.0000000
D    1   1.00
      0.8750000              1.0000000
F    1   1.00
      1.8500000              1.0000000
****
Al     0
S    6   1.00
  13983.1000000              0.00194267
   2098.7500000              0.0148599
    477.7050000              0.0728494
    134.3600000              0.2468300
     42.8709000              0.4872580
     14.5189000              0.3234960
SP   6   1.00
    239.6680000             -0.00292619             0.00460285
     57.4419000             -0.0374080              0.0331990
     18.2859000             -0.1144870              0.1362820
      6.5991400              0.1156350              0.3304760
      2.4904900              0.6125950              0.4491460
      0.9445400              0.3937990              0.2657040
SP   3   1.00
      1.2779000             -0.2276060             -0.0175130
      0.3975900              0.00144583             0.2445330
      0.1600950              1.0927900              0.8049340
SP   1   1.00
      0.0556577              1.0000000              1.0000000
D    1   1.00
      0.6500000              1.0000000
D    1   1.00
      0.1625000              1.0000000
F    1   1.00
      0.2500000              1.0000000
****
Si     0
S    6   1.00
  16115.9000000              0.00195948
   2425.5800000              0.01492880
    553.8670000              0.07284780
    156.3400000              0.24613000
     50.0683000              0.48591400
     17.0178000              0.32500200
SP   6   1.00
    292.7180000             -0.00278094             0.00443826
     69.8731000             -0.03571460             0.03266790
     22.3363000             -0.11498500             0.13472100
      8.1503900              0.09356340             0.32867800
      3.1345800              0.60301700             0.44964000
      1.2254300              0.41895900             0.26137200
SP   3   1.00
      1.7273800             -0.24463000            -0.01779510
      0.5729220              0.00431572             0.25353900
      0.2221920              1.09818000             0.80066900
SP   1   1.00
      0.0778369              1.00000000             1.00000000
D    1   1.00
      0.9000000              1.0000000
D    1   1.00
      0.2250000              1.0000000
F    1   1.00
      0.3200000              1.0000000
****
P     0
S    6   1.00
  19413.3000000              0.0018516
   2909.4200000              0.0142062
    661.3640000              0.0699995
    185.7590000              0.2400790
     59.1943000              0.4847620
     20.0310000              0.3352000
SP   6   1.00
    339.4780000             -0.00278217             0.00456462
     81.0101000             -0.0360499              0.03369360
     25.8780000             -0.1166310              0.13975500
      9.4522100              0.0968328              0.33936200
      3.6656600              0.6144180              0.45092100
      1.4674600              0.4037980              0.23858600
SP   3   1.00
      2.1562300             -0.2529230             -0.01776530
      0.7489970              0.0328517              0.27405800
      0.2831450              1.0812500              0.78542100
SP   1   1.00
      0.0998317              1.0000000              1.00000000
D    1   1.00
      1.1000000              1.0000000
D    1   1.00
      0.2750000              1.0000000
F    1   1.00
      0.4500000              1.0000000
****
S     0
S    6   1.00
  21917.1000000              0.0018690
   3301.4900000              0.0142300
    754.1460000              0.0696960
    212.7110000              0.2384870
     67.9896000              0.4833070
     23.0515000              0.3380740
SP   6   1.00
    423.7350000             -0.0023767              0.0040610
    100.7100000             -0.0316930              0.0306810
     32.1599000             -0.1133170              0.1304520
     11.8079000              0.0560900              0.3272050
      4.6311000              0.5922550              0.4528510
      1.8702500              0.4550060              0.2560420
SP   3   1.00
      2.6158400             -0.2503740             -0.0145110
      0.9221670              0.0669570              0.3102630
      0.3412870              1.0545100              0.7544830
SP   1   1.00
      0.1171670              1.0000000              1.0000000
D    1   1.00
      1.3000000              1.0000000
D    1   1.00
      0.3250000              1.0000000
F    1   1.00
      0.5500000              1.0000000
****
Cl     0
S    6   1.00
  25180.1000000              0.0018330
   3780.3500000              0.0140340
    860.4740000              0.0690970
    242.1450000              0.2374520
     77.3349000              0.4830340
     26.2470000              0.3398560
SP   6   1.00
    491.7650000             -0.0022974              0.0039894
    116.9840000             -0.0307140              0.0303180
     37.4153000             -0.1125280              0.1298800
     13.7834000              0.0450160              0.3279510
      5.4521500              0.5893530              0.4535270
      2.2258800              0.4652060              0.2521540
SP   3   1.00
      3.1864900             -0.2518300             -0.0142990
      1.1442700              0.0615890              0.3235720
      0.4203770              1.0601800              0.7435070
SP   1   1.00
      0.1426570              1.0000000              1.0000000
D    1   1.00
      1.5000000              1.0000000
D    1   1.00
      0.3750000              1.0000000
F    1   1.00
      0.7000000              1.0000000
****
}


set {
reference rhf                          
freeze_core true
e_convergence 10                       
d_convergence 10                      
dft_spherical_points 1202
dft_radial_points 99
}

e = energy('b3lyp')

print_out('Grab this energy {0}'.format(e))
--------------------------------------------------------------------------

  Memory set to  13.039 GiB by Python driver.

Scratch directory: /tmp/

*** tstart() called on n083
*** at Sun Nov 14 15:33:32 2021

   => Loading Basis Set <=

    Name: ANONYMOUSB707C0EC
    Role: ORBITAL
    Keyword: BASIS
    atoms 1-4  entry C          line    48 inputblock 6-31g_2dfp_ 
    atoms 5-14 entry H          line    15 inputblock 6-31g_2dfp_ 


         ---------------------------------------------------------
                                   SCF
               by Justin Turney, Rob Parrish, Andy Simmonett
                          and Daniel G. A. Smith
                              RKS Reference
                        4 Threads,  13351 MiB Core
         ---------------------------------------------------------

  ==> Geometry <==

    Molecular point group: c2
    Full point group: C2

    Geometry (in Bohr), charge = 0, multiplicity = 1:

       Center              X                  Y                   Z               Mass       
    ------------   -----------------  -----------------  -----------------  -----------------
         C           -3.692795551900     0.248579351500     0.000610481891    12.000000000000
         C           -1.070781335500    -0.973129493500    -0.000957077309    12.000000000000
         C            1.070781335500     0.973129493500    -0.000957077309    12.000000000000
         C            3.692795551900    -0.248579351500     0.000610481891    12.000000000000
         H           -5.193066070200    -1.169607842500     0.002839846291     1.007825032230
         H           -3.947126644000     1.441057539600    -1.667687308809     1.007825032230
         H           -3.947816189900     1.442332256200     1.667497280291     1.007825032230
         H           -0.871619892500    -2.200608761100     1.658444180191     1.007825032230
         H           -0.871547711300    -2.193887576500    -1.656967145709     1.007825032230
         H            0.871619892500     2.200608761100     1.658444180191     1.007825032230
         H            0.871547711300     2.193887576500    -1.656967145709     1.007825032230
         H            5.193066070200     1.169607842500     0.002839846291     1.007825032230
         H            3.947126644000    -1.441057539600    -1.667687308809     1.007825032230
         H            3.947816189900    -1.442332256200     1.667497280291     1.007825032230

  Running in c2 symmetry.

  Rotational constants: A =      0.78082  B =      0.12105  C =      0.11362 [cm^-1]
  Rotational constants: A =  23408.34929  B =   3628.88839  C =   3406.15318 [MHz]
  Nuclear repulsion =  130.522519494587385

  Charge       = 0
  Multiplicity = 1
  Electrons    = 34
  Nalpha       = 17
  Nbeta        = 17

  ==> Algorithm <==

  SCF Algorithm Type is DF.
  DIIS enabled.
  MOM disabled.
  Fractional occupation disabled.
  Guess Type is SAD.
  Energy threshold   = 1.00e-10
  Density threshold  = 1.00e-10
  Integral threshold = 0.00e+00

  ==> Primary Basis <==

  Basis Set: ANONYMOUSB707C0EC
    Blend: 6-31G_2DFP_
    Number of shells: 72
    Number of basis function: 184
    Number of Cartesian functions: 204
    Spherical Harmonics?: true
    Max angular momentum: 3

  ==> DFT Potential <==

   => Composite Functional: B3LYP <= 

    B3LYP Hyb-GGA Exchange-Correlation Functional

    P. J. Stephens, F. J. Devlin, C. F. Chabalowski, and M. J. Frisch, J. Phys. Chem. 98, 11623 (1994)

    Deriv               =              1
    GGA                 =           TRUE
    Meta                =          FALSE

    Exchange Hybrid     =           TRUE
    MP2 Hybrid          =          FALSE

   => Exchange Functionals <=

    0.0800   Slater exchange
    0.7200         Becke 88

   => Exact (HF) Exchange <=

    0.2000               HF 

   => Correlation Functionals <=

    0.1900   Vosko, Wilk & Nusair (VWN5_RPA)
    0.8100   Lee, Yang & Parr

   => Molecular Quadrature <=

    Radial Scheme          =       TREUTLER
    Pruning Scheme         =           NONE
    Nuclear Scheme         =       TREUTLER

    BS radius alpha        =              1
    Pruning alpha          =              1
    Radial Points          =             99
    Spherical Points       =           1202
    Total Points           =        1550538
    Total Blocks           =          10242
    Max Points             =            256
    Max Functions          =            180
    Weights Tolerance      =       1.00E-15

   => Loading Basis Set <=

    Name: (ANONYMOUSB707C0EC AUX)
    Role: JKFIT
    Keyword: DF_BASIS_SCF
    atoms 1-4  entry C          line   198 file /opt/psi/4/master/share/psi4/basis/def2-universal-jkfit.gbs 
    atoms 5-14 entry H          line    18 file /opt/psi/4/master/share/psi4/basis/def2-universal-jkfit.gbs 

  ==> Integral Setup <==

  DFHelper Memory: AOs need 0.127 GiB; user supplied 3.476 GiB. Using in-core AOs.

  ==> MemDFJK: Density-Fitted J/K Matrices <==

    J tasked:                   Yes
    K tasked:                   Yes
    wK tasked:                   No
    OpenMP threads:               4
    Memory [MiB]:              3559
    Algorithm:                 Core
    Schwarz Cutoff:           1E-12
    Mask sparsity (%):       2.9655
    Fitting Condition:        1E-10

   => Auxiliary Basis Set <=

  Basis Set: (ANONYMOUSB707C0EC AUX)
    Blend: DEF2-UNIVERSAL-JKFIT
    Number of shells: 160
    Number of basis function: 480
    Number of Cartesian functions: 556
    Spherical Harmonics?: true
    Max angular momentum: 4

  Cached 100.0% of DFT collocation blocks in 6.303 [GiB].

  Minimum eigenvalue in the overlap matrix is 1.5726416800E-03.
  Reciprocal condition number of the overlap matrix is 2.7297563723E-04.
    Using symmetric orthogonalization.

  ==> Pre-Iterations <==

  SCF Guess: Superposition of Atomic Densities via on-the-fly atomic UHF (no occupation information).

   -------------------------
    Irrep   Nso     Nmo    
   -------------------------
     A         92      92 
     B         92      92 
   -------------------------
    Total     184     184
   -------------------------

  ==> Iterations <==

                           Total Energy        Delta E     RMS |[F,P]|

   @DF-RKS iter SAD:  -157.72002495877601   -1.57720e+02   0.00000e+00 
   @DF-RKS iter   1:  -158.06213319975609   -3.42108e-01   6.64530e-03 DIIS
   @DF-RKS iter   2:  -157.86679477526752    1.95338e-01   7.95799e-03 DIIS
   @DF-RKS iter   3:  -158.47204081611301   -6.05246e-01   4.80962e-04 DIIS
   @DF-RKS iter   4:  -158.47340885632826   -1.36804e-03   2.81079e-04 DIIS
   @DF-RKS iter   5:  -158.47405787139968   -6.49015e-04   4.51537e-05 DIIS
   @DF-RKS iter   6:  -158.47407427663794   -1.64052e-05   5.00984e-06 DIIS
   @DF-RKS iter   7:  -158.47407449997633   -2.23338e-07   9.86732e-07 DIIS
   @DF-RKS iter   8:  -158.47407450905993   -9.08361e-09   8.19490e-08 DIIS
   @DF-RKS iter   9:  -158.47407450912115   -6.12204e-11   1.24897e-08 DIIS
   @DF-RKS iter  10:  -158.47407450912260   -1.44951e-12   1.45664e-09 DIIS
   @DF-RKS iter  11:  -158.47407450912263   -2.84217e-14   3.20634e-10 DIIS
   @DF-RKS iter  12:  -158.47407450912272   -8.52651e-14   7.00032e-11 DIIS
  Energy and wave function converged.


  ==> Post-Iterations <==

    Orbital Energies [Eh]
    ---------------------

    Doubly Occupied:                                                      

       1A    -10.169821     1B    -10.169697     2B    -10.164088  
       2A    -10.164061     3A     -0.789521     3B     -0.719203  
       4A     -0.626268     4B     -0.572280     5A     -0.464561  
       6A     -0.421543     5B     -0.414440     6B     -0.406752  
       7B     -0.364459     7A     -0.346939     8A     -0.329162  
       8B     -0.320008     9A     -0.317909  

    Virtual:                                                              

      10A      0.079714     9B      0.104471    11A      0.122442  
      10B      0.132273    12A      0.160561    13A      0.169167  
      11B      0.174152    12B      0.176886    13B      0.185617  
      14A      0.186071    14B      0.235090    15A      0.239570  
      15B      0.249889    16A      0.394358    17A      0.407262  
      16B      0.410285    17B      0.412140    18A      0.435925  
      19A      0.448715    18B      0.474611    19B      0.492341  
      20A      0.515871    20B      0.548127    21B      0.563933  
      22B      0.580085    21A      0.583135    22A      0.603212  
      23A      0.612224    24A      0.613655    25A      0.620039  
      23B      0.626133    24B      0.634844    26A      0.635794  
      25B      0.641727    26B      0.670090    27A      0.671483  
      27B      0.686810    28A      0.791218    28B      0.798785  
      29A      0.855419    29B      0.885441    30A      0.889672  
      30B      0.913864    31B      0.946704    31A      0.963587  
      32B      1.038040    33B      1.052781    32A      1.053839  
      34B      1.105245    33A      1.122808    34A      1.136382  
      35B      1.159382    35A      1.172967    36B      1.204381  
      36A      1.204533    37B      1.238487    37A      1.259600  
      38A      1.277694    39A      1.304371    38B      1.329658  
      39B      1.333596    40A      1.345516    41A      1.347265  
      40B      1.364998    42A      1.379476    43A      1.426380  
      41B      1.457974    42B      1.462227    44A      1.489672  
      43B      1.505594    45A      1.532351    46A      1.538547  
      44B      1.568447    47A      1.584709    45B      1.627511  
      46B      1.639474    47B      1.707707    48A      1.725228  
      48B      1.753462    49B      1.778395    50B      1.795633  
      49A      1.819050    50A      1.862059    51A      1.895196  
      51B      2.026393    52B      2.086752    52A      2.119076  
      53B      2.178060    53A      2.283722    54A      2.713302  
      54B      2.747463    55A      2.754192    56A      2.828561  
      55B      2.829174    56B      2.898619    57A      2.900498  
      57B      2.934344    58A      2.957347    58B      2.966291  
      59A      2.983716    59B      2.995760    60A      3.006696  
      60B      3.040385    61B      3.101286    62B      3.155200  
      61A      3.161882    62A      3.166696    63A      3.234296  
      63B      3.260497    64A      3.330884    65A      3.393561  
      64B      3.439165    66A      3.445724    67A      3.471462  
      65B      3.478905    66B      3.507465    67B      3.572191  
      68B      3.588466    69B      3.602961    68A      3.606277  
      69A      3.629956    70A      3.652221    70B      3.684365  
      71A      3.692350    71B      3.694001    72A      3.755602  
      73A      3.830691    72B      3.853704    73B      3.970500  
      74A      3.989462    75A      4.003567    74B      4.017684  
      75B      4.072880    76B      4.074091    77B      4.159789  
      76A      4.171727    78B      4.193860    77A      4.194599  
      78A      4.216149    79B      4.242994    80B      4.291882  
      79A      4.317799    81B      4.361944    80A      4.384910  
      81A      4.424651    82A      4.426175    83A      4.474917  
      82B      4.523670    84A      4.535716    83B      4.537974  
      84B      4.556661    85A      4.562997    85B      4.572591  
      86A      4.608612    86B      4.692492    87B      4.773005  
      87A      4.785527    88A      4.931596    88B      5.002192  
      89B      5.093665    89A      5.178256    90A      5.214337  
      91A      5.295929    90B      5.302762    91B      5.330441  
      92A      5.372373    92B      5.411221  

    Final Occupation by Irrep:
              A     B 
    DOCC [     9,    8 ]

  @DF-RKS Final Energy:  -158.47407450912272

   => Energetics <=

    Nuclear Repulsion Energy =            130.5225194945873852
    One-Electron Energy =                -469.6351195619881764
    Two-Electron Energy =                 201.2729409132527110
    DFT Exchange-Correlation Energy =     -20.6344153549746707
    Empirical Dispersion Energy =           0.0000000000000000
    VV10 Nonlocal Energy =                  0.0000000000000000
    Total Energy =                       -158.4740745091227154

Computation Completed


Properties will be evaluated at   0.000000,   0.000000,   0.000000 [a0]

Properties computed using the SCF density matrix

  Nuclear Dipole Moment: [e a0]
     X:     0.0000      Y:     0.0000      Z:     0.0041

  Electronic Dipole Moment: [e a0]
     X:     0.0000      Y:     0.0000      Z:    -0.0057

  Dipole Moment: [e a0]
     X:     0.0000      Y:     0.0000      Z:    -0.0016     Total:     0.0016

  Dipole Moment: [D]
     X:     0.0000      Y:     0.0000      Z:    -0.0041     Total:     0.0041


*** tstop() called on n083 at Sun Nov 14 15:34:00 2021
Module time:
	user time   =     108.06 seconds =       1.80 minutes
	system time =       1.73 seconds =       0.03 minutes
	total time  =         28 seconds =       0.47 minutes
Total time:
	user time   =     108.06 seconds =       1.80 minutes
	system time =       1.73 seconds =       0.03 minutes
	total time  =         28 seconds =       0.47 minutes
Grab this energy -158.47407450912272
    Psi4 stopped on: Sunday, 14 November 2021 03:34PM
    Psi4 wall time for execution: 0:00:28.24

*** Psi4 exiting successfully. Buy a developer a beer!
