
    -----------------------------------------------------------------------
          Psi4: An Open-Source Ab Initio Electronic Structure Package
                               Psi4 1.4a2.dev629 

                         Git: Rev {master} 2938fc2 dirty


    D. G. A. Smith, L. A. Burns, A. C. Simmonett, R. M. Parrish,
    M. C. Schieber, R. Galvelis, P. Kraus, H. Kruse, R. Di Remigio,
    A. Alenaizan, A. M. James, S. Lehtola, J. P. Misiewicz, M. Scheurer,
    R. A. Shaw, J. B. Schriber, Y. Xie, Z. L. Glick, D. A. Sirianni,
    J. S. O'Brien, J. M. Waldrop, A. Kumar, E. G. Hohenstein,
    B. P. Pritchard, B. R. Brooks, H. F. Schaefer III, A. Yu. Sokolov,
    K. Patkowski, A. E. DePrince III, U. Bozkaya, R. A. King,
    F. A. Evangelista, J. M. Turney, T. D. Crawford, C. D. Sherrill,
    J. Chem. Phys. 152(18) 184108 (2020). https://doi.org/10.1063/5.0006002

                            Additional Code Authors
    E. T. Seidl, C. L. Janssen, E. F. Valeev, M. L. Leininger,
    J. F. Gonthier, R. M. Richard, H. R. McAlexander, M. Saitow, X. Wang,
    P. Verma, and M. H. Lechner

             Previous Authors, Complete List of Code Contributors,
                       and Citations for Specific Modules
    https://github.com/psi4/psi4/blob/master/codemeta.json
    https://github.com/psi4/psi4/graphs/contributors
    http://psicode.org/psi4manual/master/introduction.html#citing-psifour

    -----------------------------------------------------------------------


    Psi4 started on: Sunday, 14 November 2021 03:24PM

    Process ID: 20036
    Host:       n084
    PSIDATADIR: /opt/psi/4/master/share/psi4
    Memory:     500.0 MiB
    Threads:    4
    
  ==> Input File <==

--------------------------------------------------------------------------
import os
memory 14 GB 
 
molecule {
 C   -3.6840373723    0.2487158524    0.0002370973
 C   -1.0654947393   -0.9731218633   -0.0002730543
 C    1.0695680772    0.9732115594   -0.0002708704
 C    3.6855556734   -0.2476659072    0.0002362436
 H   -5.1856630841   -1.1682526362   -0.0007484326
 H   -3.9374236886    1.4427088082   -1.6674933811
 H   -3.9392475351    1.4392513974    1.6679212149
 H   -0.8643888625   -2.1983042301    1.6575250849
 H   -0.8721921709   -2.1973065578   -1.6571627378
 H    0.8625857690    2.1982970795    1.6573727657
 H    0.8703944695    2.1973111462   -1.6570250657
 H    5.1851602581    1.1683388200   -0.0007465381
 H    3.9366782975   -1.4433180544   -1.6672562703
 H    3.9385049082   -1.4398654140    1.6676839438
units bohr
}

basis {

assign 6-31g_2dfp_

[ 6-31g_2dfp_ ]

spherical

!----------------------------------------------------------------------
! Basis Set Exchange
! Version v0.8.13
! https://www.basissetexchange.org
!----------------------------------------------------------------------
!   Basis set: 6-31G(2df,p)
! Description: 6-31G(2df,p)
!        Role: orbital
!     Version: 0  (Data from the original Basis Set Exchange)
!----------------------------------------------------------------------


****
H     0
S    3   1.00
     18.7311370              0.03349460
      2.8253937              0.23472695
      0.6401217              0.81375733
S    1   1.00
      0.1612778              1.00000000
P    1   1.00
      1.5000000              1.0000000
P    1   1.00
      0.3750000              1.0000000
****
B     0
S    6   1.00
   2068.8823000              0.0018663
    310.6495700              0.0142515
     70.6830330              0.0695516
     19.8610800              0.2325729
      6.2993048              0.4670787
      2.1270270              0.3634314
SP   3   1.00
      4.7279710             -0.1303938              0.0745976
      1.1903377             -0.1307889              0.3078467
      0.3594117              1.1309444              0.7434568
SP   1   1.00
      0.1267512              1.0000000              1.0000000
D    1   1.00
      0.8020000              1.0000000
D    1   1.00
      0.2005000              1.0000000
F    1   1.00
      0.5000000              1.0000000
****
C     0
S    6   1.00
   3047.5249000              0.0018347
    457.3695100              0.0140373
    103.9486900              0.0688426
     29.2101550              0.2321844
      9.2866630              0.4679413
      3.1639270              0.3623120
SP   3   1.00
      7.8682724             -0.1193324              0.0689991
      1.8812885             -0.1608542              0.3164240
      0.5442493              1.1434564              0.7443083
SP   1   1.00
      0.1687144              1.0000000              1.0000000
D    1   1.00
      1.2520000              1.0000000
D    1   1.00
      0.3130000              1.0000000
F    1   1.00
      0.8000000              1.0000000
****
N     0
S    6   1.00
   4173.5110000              0.0018348
    627.4579000              0.0139950
    142.9021000              0.0685870
     40.2343300              0.2322410
     12.8202100              0.4690700
      4.3904370              0.3604550
SP   3   1.00
     11.6263580             -0.1149610              0.0675800
      2.7162800             -0.1691180              0.3239070
      0.7722180              1.1458520              0.7408950
SP   1   1.00
      0.2120313              1.0000000              1.0000000
D    1   1.00
      1.8260000              1.0000000
D    1   1.00
      0.4565000              1.0000000
F    1   1.00
      1.0000000              1.0000000
****
O     0
S    6   1.00
   5484.6717000              0.0018311
    825.2349500              0.0139501
    188.0469600              0.0684451
     52.9645000              0.2327143
     16.8975700              0.4701930
      5.7996353              0.3585209
SP   3   1.00
     15.5396160             -0.1107775              0.0708743
      3.5999336             -0.1480263              0.3397528
      1.0137618              1.1307670              0.7271586
SP   1   1.00
      0.2700058              1.0000000              1.0000000
D    1   1.00
      2.5840000              1.0000000
D    1   1.00
      0.6460000              1.0000000
F    1   1.00
      1.4000000              1.0000000
****
F     0
S    6   1.00
   7001.7130900              0.0018196169
   1051.3660900              0.0139160796
    239.2856900              0.0684053245
     67.3974453              0.233185760
     21.5199573              0.471267439
      7.40310130             0.356618546
SP   3   1.00
     20.8479528             -0.108506975            0.0716287243
      4.80830834            -0.146451658            0.3459121030
      1.34406986             1.128688580            0.7224699570
SP   1   1.00
      0.358151393            1.0000000              1.0000000
D    1   1.00
      3.5000000              1.0000000
D    1   1.00
      0.8750000              1.0000000
F    1   1.00
      1.8500000              1.0000000
****
Al     0
S    6   1.00
  13983.1000000              0.00194267
   2098.7500000              0.0148599
    477.7050000              0.0728494
    134.3600000              0.2468300
     42.8709000              0.4872580
     14.5189000              0.3234960
SP   6   1.00
    239.6680000             -0.00292619             0.00460285
     57.4419000             -0.0374080              0.0331990
     18.2859000             -0.1144870              0.1362820
      6.5991400              0.1156350              0.3304760
      2.4904900              0.6125950              0.4491460
      0.9445400              0.3937990              0.2657040
SP   3   1.00
      1.2779000             -0.2276060             -0.0175130
      0.3975900              0.00144583             0.2445330
      0.1600950              1.0927900              0.8049340
SP   1   1.00
      0.0556577              1.0000000              1.0000000
D    1   1.00
      0.6500000              1.0000000
D    1   1.00
      0.1625000              1.0000000
F    1   1.00
      0.2500000              1.0000000
****
Si     0
S    6   1.00
  16115.9000000              0.00195948
   2425.5800000              0.01492880
    553.8670000              0.07284780
    156.3400000              0.24613000
     50.0683000              0.48591400
     17.0178000              0.32500200
SP   6   1.00
    292.7180000             -0.00278094             0.00443826
     69.8731000             -0.03571460             0.03266790
     22.3363000             -0.11498500             0.13472100
      8.1503900              0.09356340             0.32867800
      3.1345800              0.60301700             0.44964000
      1.2254300              0.41895900             0.26137200
SP   3   1.00
      1.7273800             -0.24463000            -0.01779510
      0.5729220              0.00431572             0.25353900
      0.2221920              1.09818000             0.80066900
SP   1   1.00
      0.0778369              1.00000000             1.00000000
D    1   1.00
      0.9000000              1.0000000
D    1   1.00
      0.2250000              1.0000000
F    1   1.00
      0.3200000              1.0000000
****
P     0
S    6   1.00
  19413.3000000              0.0018516
   2909.4200000              0.0142062
    661.3640000              0.0699995
    185.7590000              0.2400790
     59.1943000              0.4847620
     20.0310000              0.3352000
SP   6   1.00
    339.4780000             -0.00278217             0.00456462
     81.0101000             -0.0360499              0.03369360
     25.8780000             -0.1166310              0.13975500
      9.4522100              0.0968328              0.33936200
      3.6656600              0.6144180              0.45092100
      1.4674600              0.4037980              0.23858600
SP   3   1.00
      2.1562300             -0.2529230             -0.01776530
      0.7489970              0.0328517              0.27405800
      0.2831450              1.0812500              0.78542100
SP   1   1.00
      0.0998317              1.0000000              1.00000000
D    1   1.00
      1.1000000              1.0000000
D    1   1.00
      0.2750000              1.0000000
F    1   1.00
      0.4500000              1.0000000
****
S     0
S    6   1.00
  21917.1000000              0.0018690
   3301.4900000              0.0142300
    754.1460000              0.0696960
    212.7110000              0.2384870
     67.9896000              0.4833070
     23.0515000              0.3380740
SP   6   1.00
    423.7350000             -0.0023767              0.0040610
    100.7100000             -0.0316930              0.0306810
     32.1599000             -0.1133170              0.1304520
     11.8079000              0.0560900              0.3272050
      4.6311000              0.5922550              0.4528510
      1.8702500              0.4550060              0.2560420
SP   3   1.00
      2.6158400             -0.2503740             -0.0145110
      0.9221670              0.0669570              0.3102630
      0.3412870              1.0545100              0.7544830
SP   1   1.00
      0.1171670              1.0000000              1.0000000
D    1   1.00
      1.3000000              1.0000000
D    1   1.00
      0.3250000              1.0000000
F    1   1.00
      0.5500000              1.0000000
****
Cl     0
S    6   1.00
  25180.1000000              0.0018330
   3780.3500000              0.0140340
    860.4740000              0.0690970
    242.1450000              0.2374520
     77.3349000              0.4830340
     26.2470000              0.3398560
SP   6   1.00
    491.7650000             -0.0022974              0.0039894
    116.9840000             -0.0307140              0.0303180
     37.4153000             -0.1125280              0.1298800
     13.7834000              0.0450160              0.3279510
      5.4521500              0.5893530              0.4535270
      2.2258800              0.4652060              0.2521540
SP   3   1.00
      3.1864900             -0.2518300             -0.0142990
      1.1442700              0.0615890              0.3235720
      0.4203770              1.0601800              0.7435070
SP   1   1.00
      0.1426570              1.0000000              1.0000000
D    1   1.00
      1.5000000              1.0000000
D    1   1.00
      0.3750000              1.0000000
F    1   1.00
      0.7000000              1.0000000
****
}


set {
reference rhf                          
freeze_core true
e_convergence 10                       
d_convergence 10                      
dft_spherical_points 1202
dft_radial_points 99
}

e = energy('b3lyp')

print_out('Grab this energy {0}'.format(e))
--------------------------------------------------------------------------

  Memory set to  13.039 GiB by Python driver.

Scratch directory: /tmp/

*** tstart() called on n084
*** at Sun Nov 14 15:24:32 2021

   => Loading Basis Set <=

    Name: ANONYMOUS9F5F1023
    Role: ORBITAL
    Keyword: BASIS
    atoms 1-4  entry C          line    48 inputblock 6-31g_2dfp_ 
    atoms 5-14 entry H          line    15 inputblock 6-31g_2dfp_ 


         ---------------------------------------------------------
                                   SCF
               by Justin Turney, Rob Parrish, Andy Simmonett
                          and Daniel G. A. Smith
                              RKS Reference
                        4 Threads,  13351 MiB Core
         ---------------------------------------------------------

  ==> Geometry <==

    Molecular point group: c1
    Full point group: C1

    Geometry (in Bohr), charge = 0, multiplicity = 1:

       Center              X                  Y                   Z               Mass       
    ------------   -----------------  -----------------  -----------------  -----------------
         C           -3.685095673368     0.248500158287     0.000250456338    12.000000000000
         C           -1.066553040368    -0.973337557413    -0.000259695262    12.000000000000
         C            1.068509776132     0.972995865287    -0.000257511362    12.000000000000
         C            3.684497372332    -0.247881601313     0.000249602638    12.000000000000
         H           -5.186721385168    -1.168468330313    -0.000735073562     1.007825032230
         H           -3.938481989668     1.442493114087    -1.667480022062     1.007825032230
         H           -3.940305836168     1.439035703287     1.667934573938     1.007825032230
         H           -0.865447163568    -2.198519924213     1.657538443938     1.007825032230
         H           -0.873250471968    -2.197522251913    -1.657149378762     1.007825032230
         H            0.861527467932     2.198081385387     1.657386124738     1.007825032230
         H            0.869336168432     2.197095452087    -1.657011706662     1.007825032230
         H            5.184101957032     1.168123125887    -0.000733179062     1.007825032230
         H            3.935619996432    -1.443533748513    -1.667242911262     1.007825032230
         H            3.937446607132    -1.440081108113     1.667697302838     1.007825032230

  Running in c1 symmetry.

  Rotational constants: A =      0.78092  B =      0.12156  C =      0.11406 [cm^-1]
  Rotational constants: A =  23411.35369  B =   3644.13428  C =   3419.56920 [MHz]
  Nuclear repulsion =  130.687491103581834

  Charge       = 0
  Multiplicity = 1
  Electrons    = 34
  Nalpha       = 17
  Nbeta        = 17

  ==> Algorithm <==

  SCF Algorithm Type is DF.
  DIIS enabled.
  MOM disabled.
  Fractional occupation disabled.
  Guess Type is SAD.
  Energy threshold   = 1.00e-10
  Density threshold  = 1.00e-10
  Integral threshold = 0.00e+00

  ==> Primary Basis <==

  Basis Set: ANONYMOUS9F5F1023
    Blend: 6-31G_2DFP_
    Number of shells: 72
    Number of basis function: 184
    Number of Cartesian functions: 204
    Spherical Harmonics?: true
    Max angular momentum: 3

  ==> DFT Potential <==

   => Composite Functional: B3LYP <= 

    B3LYP Hyb-GGA Exchange-Correlation Functional

    P. J. Stephens, F. J. Devlin, C. F. Chabalowski, and M. J. Frisch, J. Phys. Chem. 98, 11623 (1994)

    Deriv               =              1
    GGA                 =           TRUE
    Meta                =          FALSE

    Exchange Hybrid     =           TRUE
    MP2 Hybrid          =          FALSE

   => Exchange Functionals <=

    0.0800   Slater exchange
    0.7200         Becke 88

   => Exact (HF) Exchange <=

    0.2000               HF 

   => Correlation Functionals <=

    0.1900   Vosko, Wilk & Nusair (VWN5_RPA)
    0.8100   Lee, Yang & Parr

   => Molecular Quadrature <=

    Radial Scheme          =       TREUTLER
    Pruning Scheme         =           NONE
    Nuclear Scheme         =       TREUTLER

    BS radius alpha        =              1
    Pruning alpha          =              1
    Radial Points          =             99
    Spherical Points       =           1202
    Total Points           =        1550408
    Total Blocks           =          10236
    Max Points             =            256
    Max Functions          =            180
    Weights Tolerance      =       1.00E-15

   => Loading Basis Set <=

    Name: (ANONYMOUS9F5F1023 AUX)
    Role: JKFIT
    Keyword: DF_BASIS_SCF
    atoms 1-4  entry C          line   198 file /opt/psi/4/master/share/psi4/basis/def2-universal-jkfit.gbs 
    atoms 5-14 entry H          line    18 file /opt/psi/4/master/share/psi4/basis/def2-universal-jkfit.gbs 

  ==> Integral Setup <==

  DFHelper Memory: AOs need 0.127 GiB; user supplied 3.472 GiB. Using in-core AOs.

  ==> MemDFJK: Density-Fitted J/K Matrices <==

    J tasked:                   Yes
    K tasked:                   Yes
    wK tasked:                   No
    OpenMP threads:               4
    Memory [MiB]:              3555
    Algorithm:                 Core
    Schwarz Cutoff:           1E-12
    Mask sparsity (%):       2.9241
    Fitting Condition:        1E-10

   => Auxiliary Basis Set <=

  Basis Set: (ANONYMOUS9F5F1023 AUX)
    Blend: DEF2-UNIVERSAL-JKFIT
    Number of shells: 160
    Number of basis function: 480
    Number of Cartesian functions: 556
    Spherical Harmonics?: true
    Max angular momentum: 4

  Cached 100.0% of DFT collocation blocks in 6.307 [GiB].

  Minimum eigenvalue in the overlap matrix is 1.1404247395E-03.
  Reciprocal condition number of the overlap matrix is 1.8310663864E-04.
    Using symmetric orthogonalization.

  ==> Pre-Iterations <==

  SCF Guess: Superposition of Atomic Densities via on-the-fly atomic UHF (no occupation information).

   -------------------------
    Irrep   Nso     Nmo    
   -------------------------
     A        184     184 
   -------------------------
    Total     184     184
   -------------------------

  ==> Iterations <==

                           Total Energy        Delta E     RMS |[F,P]|

   @DF-RKS iter SAD:  -157.72903992685298   -1.57729e+02   0.00000e+00 
   @DF-RKS iter   1:  -158.06044642054709   -3.31406e-01   4.70955e-03 DIIS
   @DF-RKS iter   2:  -157.86271114198536    1.97735e-01   5.64727e-03 DIIS
   @DF-RKS iter   3:  -158.47199709166165   -6.09286e-01   3.41890e-04 DIIS
   @DF-RKS iter   4:  -158.47337735172673   -1.38026e-03   1.99861e-04 DIIS
   @DF-RKS iter   5:  -158.47403315724790   -6.55806e-04   3.18947e-05 DIIS
   @DF-RKS iter   6:  -158.47404951562777   -1.63584e-05   3.55951e-06 DIIS
   @DF-RKS iter   7:  -158.47404974100516   -2.25377e-07   7.02939e-07 DIIS
   @DF-RKS iter   8:  -158.47404975018264   -9.17748e-09   6.99231e-08 DIIS
   @DF-RKS iter   9:  -158.47404975024563   -6.29825e-11   3.86525e-08 DIIS
   @DF-RKS iter  10:  -158.47404975027018   -2.45564e-11   6.69360e-09 DIIS
   @DF-RKS iter  11:  -158.47404975027075   -5.68434e-13   9.67811e-10 DIIS
   @DF-RKS iter  12:  -158.47404975027081   -5.68434e-14   5.90703e-10 DIIS
   @DF-RKS iter  13:  -158.47404975027052    2.84217e-13   2.14719e-11 DIIS
  Energy and wave function converged.


  ==> Post-Iterations <==

    Orbital Energies [Eh]
    ---------------------

    Doubly Occupied:                                                      

       1A    -10.169449     2A    -10.169321     3A    -10.163807  
       4A    -10.163743     5A     -0.790361     6A     -0.719557  
       7A     -0.626160     8A     -0.572335     9A     -0.464991  
      10A     -0.421921    11A     -0.414881    12A     -0.406828  
      13A     -0.364480    14A     -0.346695    15A     -0.329472  
      16A     -0.319846    17A     -0.317908  

    Virtual:                                                              

      18A      0.079769    19A      0.104617    20A      0.122117  
      21A      0.131990    22A      0.160643    23A      0.169472  
      24A      0.174606    25A      0.177056    26A      0.185796  
      27A      0.186213    28A      0.236175    29A      0.240016  
      30A      0.250551    31A      0.393709    32A      0.407476  
      33A      0.410475    34A      0.412123    35A      0.435848  
      36A      0.448595    37A      0.475112    38A      0.492207  
      39A      0.516409    40A      0.547968    41A      0.564428  
      42A      0.580961    43A      0.584410    44A      0.603650  
      45A      0.612365    46A      0.613796    47A      0.620762  
      48A      0.626526    49A      0.634868    50A      0.636003  
      51A      0.642198    52A      0.670475    53A      0.671625  
      54A      0.687150    55A      0.791136    56A      0.798898  
      57A      0.856833    58A      0.885662    59A      0.890046  
      60A      0.915006    61A      0.947509    62A      0.963227  
      63A      1.039476    64A      1.052853    65A      1.053687  
      66A      1.106476    67A      1.123877    68A      1.137205  
      69A      1.159381    70A      1.173519    71A      1.204629  
      72A      1.204949    73A      1.239501    74A      1.260180  
      75A      1.279691    76A      1.305631    77A      1.329888  
      78A      1.334038    79A      1.345350    80A      1.347677  
      81A      1.366068    82A      1.379259    83A      1.426160  
      84A      1.458686    85A      1.462741    86A      1.489862  
      87A      1.506153    88A      1.532869    89A      1.539095  
      90A      1.568175    91A      1.585670    92A      1.628285  
      93A      1.642576    94A      1.709079    95A      1.726688  
      96A      1.754628    97A      1.778145    98A      1.795507  
      99A      1.819686   100A      1.862559   101A      1.896043  
     102A      2.029565   103A      2.088663   104A      2.123163  
     105A      2.180713   106A      2.284683   107A      2.713792  
     108A      2.749808   109A      2.755364   110A      2.828774  
     111A      2.829710   112A      2.899422   113A      2.900421  
     114A      2.934391   115A      2.957911   116A      2.966328  
     117A      2.984545   118A      2.995893   119A      3.007554  
     120A      3.040325   121A      3.101498   122A      3.157127  
     123A      3.162969   124A      3.167871   125A      3.235964  
     126A      3.261577   127A      3.331641   128A      3.394965  
     129A      3.441153   130A      3.445021   131A      3.471621  
     132A      3.481256   133A      3.507917   134A      3.574359  
     135A      3.588373   136A      3.604121   137A      3.607478  
     138A      3.629612   139A      3.651150   140A      3.686089  
     141A      3.692296   142A      3.694977   143A      3.757334  
     144A      3.831681   145A      3.855492   146A      3.973555  
     147A      3.991474   148A      4.003987   149A      4.021268  
     150A      4.072482   151A      4.073683   152A      4.161912  
     153A      4.173902   154A      4.194811   155A      4.195286  
     156A      4.216618   157A      4.244947   158A      4.292659  
     159A      4.319974   160A      4.363701   161A      4.386214  
     162A      4.426485   163A      4.429983   164A      4.479090  
     165A      4.524174   166A      4.537297   167A      4.541187  
     168A      4.559105   169A      4.565144   170A      4.574049  
     171A      4.610872   172A      4.694921   173A      4.778715  
     174A      4.789733   175A      4.933616   176A      5.003229  
     177A      5.095309   178A      5.180052   179A      5.215623  
     180A      5.297121   181A      5.305428   182A      5.332134  
     183A      5.374276   184A      5.413732  

    Final Occupation by Irrep:
              A 
    DOCC [    17 ]

  @DF-RKS Final Energy:  -158.47404975027052

   => Energetics <=

    Nuclear Repulsion Energy =            130.6874911035818343
    One-Electron Energy =                -469.9610016845624614
    Two-Electron Energy =                 201.4367112383098117
    DFT Exchange-Correlation Energy =     -20.6372504075996943
    Empirical Dispersion Energy =           0.0000000000000000
    VV10 Nonlocal Energy =                  0.0000000000000000
    Total Energy =                       -158.4740497502705239

Computation Completed


Properties will be evaluated at   0.000000,   0.000000,   0.000000 [a0]

Properties computed using the SCF density matrix

  Nuclear Dipole Moment: [e a0]
     X:    -0.0080      Y:    -0.0016      Z:     0.0001

  Electronic Dipole Moment: [e a0]
     X:     0.0085      Y:     0.0017      Z:    -0.0004

  Dipole Moment: [e a0]
     X:     0.0005      Y:     0.0001      Z:    -0.0003     Total:     0.0006

  Dipole Moment: [D]
     X:     0.0013      Y:     0.0001      Z:    -0.0007     Total:     0.0014


*** tstop() called on n084 at Sun Nov 14 15:25:05 2021
Module time:
	user time   =     128.08 seconds =       2.13 minutes
	system time =       1.81 seconds =       0.03 minutes
	total time  =         33 seconds =       0.55 minutes
Total time:
	user time   =     128.08 seconds =       2.13 minutes
	system time =       1.81 seconds =       0.03 minutes
	total time  =         33 seconds =       0.55 minutes
Grab this energy -158.47404975027052
    Psi4 stopped on: Sunday, 14 November 2021 03:25PM
    Psi4 wall time for execution: 0:00:33.26

*** Psi4 exiting successfully. Buy a developer a beer!
