
    -----------------------------------------------------------------------
          Psi4: An Open-Source Ab Initio Electronic Structure Package
                               Psi4 1.4a2.dev629 

                         Git: Rev {master} 2938fc2 dirty


    D. G. A. Smith, L. A. Burns, A. C. Simmonett, R. M. Parrish,
    M. C. Schieber, R. Galvelis, P. Kraus, H. Kruse, R. Di Remigio,
    A. Alenaizan, A. M. James, S. Lehtola, J. P. Misiewicz, M. Scheurer,
    R. A. Shaw, J. B. Schriber, Y. Xie, Z. L. Glick, D. A. Sirianni,
    J. S. O'Brien, J. M. Waldrop, A. Kumar, E. G. Hohenstein,
    B. P. Pritchard, B. R. Brooks, H. F. Schaefer III, A. Yu. Sokolov,
    K. Patkowski, A. E. DePrince III, U. Bozkaya, R. A. King,
    F. A. Evangelista, J. M. Turney, T. D. Crawford, C. D. Sherrill,
    J. Chem. Phys. 152(18) 184108 (2020). https://doi.org/10.1063/5.0006002

                            Additional Code Authors
    E. T. Seidl, C. L. Janssen, E. F. Valeev, M. L. Leininger,
    J. F. Gonthier, R. M. Richard, H. R. McAlexander, M. Saitow, X. Wang,
    P. Verma, and M. H. Lechner

             Previous Authors, Complete List of Code Contributors,
                       and Citations for Specific Modules
    https://github.com/psi4/psi4/blob/master/codemeta.json
    https://github.com/psi4/psi4/graphs/contributors
    http://psicode.org/psi4manual/master/introduction.html#citing-psifour

    -----------------------------------------------------------------------


    Psi4 started on: Sunday, 14 November 2021 03:38PM

    Process ID: 3146
    Host:       n022
    PSIDATADIR: /opt/psi/4/master/share/psi4
    Memory:     500.0 MiB
    Threads:    4
    
  ==> Input File <==

--------------------------------------------------------------------------
import os
memory 14 GB 
 
molecule {
 C   -3.6850203686    0.2481962192    0.0013056883
 C   -1.0670062654   -0.9746541564    0.0005045260
 C    1.0680536839    0.9716824115    0.0005049291
 C    3.6845681432   -0.2481847856    0.0013064018
 H   -5.1847794793   -1.1680756814    0.0031584769
 H   -3.9377130573    1.4441141214   -1.6690118507
 H   -3.9393488025    1.4390980769    1.6652441503
 H   -0.8680543846   -2.1965781228    1.6524881355
 H   -0.8665097141   -2.1984157871   -1.6536904721
 H    0.8682728484    2.1971986513    1.6608650059
 H    0.8667234379    2.1990338040   -1.6620680475
 H    5.1860388249    1.1685152738    0.0031604837
 H    3.9365678727   -1.4434719716   -1.6699353911
 H    3.9382072608   -1.4384580533    1.6661679639
units bohr
}

basis {

assign 6-31g_2dfp_

[ 6-31g_2dfp_ ]

spherical

!----------------------------------------------------------------------
! Basis Set Exchange
! Version v0.8.13
! https://www.basissetexchange.org
!----------------------------------------------------------------------
!   Basis set: 6-31G(2df,p)
! Description: 6-31G(2df,p)
!        Role: orbital
!     Version: 0  (Data from the original Basis Set Exchange)
!----------------------------------------------------------------------


****
H     0
S    3   1.00
     18.7311370              0.03349460
      2.8253937              0.23472695
      0.6401217              0.81375733
S    1   1.00
      0.1612778              1.00000000
P    1   1.00
      1.5000000              1.0000000
P    1   1.00
      0.3750000              1.0000000
****
B     0
S    6   1.00
   2068.8823000              0.0018663
    310.6495700              0.0142515
     70.6830330              0.0695516
     19.8610800              0.2325729
      6.2993048              0.4670787
      2.1270270              0.3634314
SP   3   1.00
      4.7279710             -0.1303938              0.0745976
      1.1903377             -0.1307889              0.3078467
      0.3594117              1.1309444              0.7434568
SP   1   1.00
      0.1267512              1.0000000              1.0000000
D    1   1.00
      0.8020000              1.0000000
D    1   1.00
      0.2005000              1.0000000
F    1   1.00
      0.5000000              1.0000000
****
C     0
S    6   1.00
   3047.5249000              0.0018347
    457.3695100              0.0140373
    103.9486900              0.0688426
     29.2101550              0.2321844
      9.2866630              0.4679413
      3.1639270              0.3623120
SP   3   1.00
      7.8682724             -0.1193324              0.0689991
      1.8812885             -0.1608542              0.3164240
      0.5442493              1.1434564              0.7443083
SP   1   1.00
      0.1687144              1.0000000              1.0000000
D    1   1.00
      1.2520000              1.0000000
D    1   1.00
      0.3130000              1.0000000
F    1   1.00
      0.8000000              1.0000000
****
N     0
S    6   1.00
   4173.5110000              0.0018348
    627.4579000              0.0139950
    142.9021000              0.0685870
     40.2343300              0.2322410
     12.8202100              0.4690700
      4.3904370              0.3604550
SP   3   1.00
     11.6263580             -0.1149610              0.0675800
      2.7162800             -0.1691180              0.3239070
      0.7722180              1.1458520              0.7408950
SP   1   1.00
      0.2120313              1.0000000              1.0000000
D    1   1.00
      1.8260000              1.0000000
D    1   1.00
      0.4565000              1.0000000
F    1   1.00
      1.0000000              1.0000000
****
O     0
S    6   1.00
   5484.6717000              0.0018311
    825.2349500              0.0139501
    188.0469600              0.0684451
     52.9645000              0.2327143
     16.8975700              0.4701930
      5.7996353              0.3585209
SP   3   1.00
     15.5396160             -0.1107775              0.0708743
      3.5999336             -0.1480263              0.3397528
      1.0137618              1.1307670              0.7271586
SP   1   1.00
      0.2700058              1.0000000              1.0000000
D    1   1.00
      2.5840000              1.0000000
D    1   1.00
      0.6460000              1.0000000
F    1   1.00
      1.4000000              1.0000000
****
F     0
S    6   1.00
   7001.7130900              0.0018196169
   1051.3660900              0.0139160796
    239.2856900              0.0684053245
     67.3974453              0.233185760
     21.5199573              0.471267439
      7.40310130             0.356618546
SP   3   1.00
     20.8479528             -0.108506975            0.0716287243
      4.80830834            -0.146451658            0.3459121030
      1.34406986             1.128688580            0.7224699570
SP   1   1.00
      0.358151393            1.0000000              1.0000000
D    1   1.00
      3.5000000              1.0000000
D    1   1.00
      0.8750000              1.0000000
F    1   1.00
      1.8500000              1.0000000
****
Al     0
S    6   1.00
  13983.1000000              0.00194267
   2098.7500000              0.0148599
    477.7050000              0.0728494
    134.3600000              0.2468300
     42.8709000              0.4872580
     14.5189000              0.3234960
SP   6   1.00
    239.6680000             -0.00292619             0.00460285
     57.4419000             -0.0374080              0.0331990
     18.2859000             -0.1144870              0.1362820
      6.5991400              0.1156350              0.3304760
      2.4904900              0.6125950              0.4491460
      0.9445400              0.3937990              0.2657040
SP   3   1.00
      1.2779000             -0.2276060             -0.0175130
      0.3975900              0.00144583             0.2445330
      0.1600950              1.0927900              0.8049340
SP   1   1.00
      0.0556577              1.0000000              1.0000000
D    1   1.00
      0.6500000              1.0000000
D    1   1.00
      0.1625000              1.0000000
F    1   1.00
      0.2500000              1.0000000
****
Si     0
S    6   1.00
  16115.9000000              0.00195948
   2425.5800000              0.01492880
    553.8670000              0.07284780
    156.3400000              0.24613000
     50.0683000              0.48591400
     17.0178000              0.32500200
SP   6   1.00
    292.7180000             -0.00278094             0.00443826
     69.8731000             -0.03571460             0.03266790
     22.3363000             -0.11498500             0.13472100
      8.1503900              0.09356340             0.32867800
      3.1345800              0.60301700             0.44964000
      1.2254300              0.41895900             0.26137200
SP   3   1.00
      1.7273800             -0.24463000            -0.01779510
      0.5729220              0.00431572             0.25353900
      0.2221920              1.09818000             0.80066900
SP   1   1.00
      0.0778369              1.00000000             1.00000000
D    1   1.00
      0.9000000              1.0000000
D    1   1.00
      0.2250000              1.0000000
F    1   1.00
      0.3200000              1.0000000
****
P     0
S    6   1.00
  19413.3000000              0.0018516
   2909.4200000              0.0142062
    661.3640000              0.0699995
    185.7590000              0.2400790
     59.1943000              0.4847620
     20.0310000              0.3352000
SP   6   1.00
    339.4780000             -0.00278217             0.00456462
     81.0101000             -0.0360499              0.03369360
     25.8780000             -0.1166310              0.13975500
      9.4522100              0.0968328              0.33936200
      3.6656600              0.6144180              0.45092100
      1.4674600              0.4037980              0.23858600
SP   3   1.00
      2.1562300             -0.2529230             -0.01776530
      0.7489970              0.0328517              0.27405800
      0.2831450              1.0812500              0.78542100
SP   1   1.00
      0.0998317              1.0000000              1.00000000
D    1   1.00
      1.1000000              1.0000000
D    1   1.00
      0.2750000              1.0000000
F    1   1.00
      0.4500000              1.0000000
****
S     0
S    6   1.00
  21917.1000000              0.0018690
   3301.4900000              0.0142300
    754.1460000              0.0696960
    212.7110000              0.2384870
     67.9896000              0.4833070
     23.0515000              0.3380740
SP   6   1.00
    423.7350000             -0.0023767              0.0040610
    100.7100000             -0.0316930              0.0306810
     32.1599000             -0.1133170              0.1304520
     11.8079000              0.0560900              0.3272050
      4.6311000              0.5922550              0.4528510
      1.8702500              0.4550060              0.2560420
SP   3   1.00
      2.6158400             -0.2503740             -0.0145110
      0.9221670              0.0669570              0.3102630
      0.3412870              1.0545100              0.7544830
SP   1   1.00
      0.1171670              1.0000000              1.0000000
D    1   1.00
      1.3000000              1.0000000
D    1   1.00
      0.3250000              1.0000000
F    1   1.00
      0.5500000              1.0000000
****
Cl     0
S    6   1.00
  25180.1000000              0.0018330
   3780.3500000              0.0140340
    860.4740000              0.0690970
    242.1450000              0.2374520
     77.3349000              0.4830340
     26.2470000              0.3398560
SP   6   1.00
    491.7650000             -0.0022974              0.0039894
    116.9840000             -0.0307140              0.0303180
     37.4153000             -0.1125280              0.1298800
     13.7834000              0.0450160              0.3279510
      5.4521500              0.5893530              0.4535270
      2.2258800              0.4652060              0.2521540
SP   3   1.00
      3.1864900             -0.2518300             -0.0142990
      1.1442700              0.0615890              0.3235720
      0.4203770              1.0601800              0.7435070
SP   1   1.00
      0.1426570              1.0000000              1.0000000
D    1   1.00
      1.5000000              1.0000000
D    1   1.00
      0.3750000              1.0000000
F    1   1.00
      0.7000000              1.0000000
****
}


set {
reference rhf                          
freeze_core true
e_convergence 10                       
d_convergence 10                      
dft_spherical_points 1202
dft_radial_points 99
}

e = energy('b3lyp')

print_out('Grab this energy {0}'.format(e))
--------------------------------------------------------------------------

  Memory set to  13.039 GiB by Python driver.

Scratch directory: /tmp/

*** tstart() called on n022
*** at Sun Nov 14 15:38:03 2021

   => Loading Basis Set <=

    Name: ANONYMOUS7BAE415B
    Role: ORBITAL
    Keyword: BASIS
    atoms 1-4  entry C          line    48 inputblock 6-31g_2dfp_ 
    atoms 5-14 entry H          line    15 inputblock 6-31g_2dfp_ 


         ---------------------------------------------------------
                                   SCF
               by Justin Turney, Rob Parrish, Andy Simmonett
                          and Daniel G. A. Smith
                              RKS Reference
                        4 Threads,  13351 MiB Core
         ---------------------------------------------------------

  ==> Geometry <==

    Molecular point group: c1
    Full point group: C1

    Geometry (in Bohr), charge = 0, multiplicity = 1:

       Center              X                  Y                   Z               Mass       
    ------------   -----------------  -----------------  -----------------  -----------------
         C           -3.685133017770     0.248756502261     0.000620256864    12.000000000000
         C           -1.067118914570    -0.974093873339    -0.000180905436    12.000000000000
         C            1.067941034730     0.972242694561    -0.000180502336    12.000000000000
         C            3.684455494030    -0.247624502539     0.000620970364    12.000000000000
         H           -5.184892128470    -1.167515398339     0.002473045464     1.007825032230
         H           -3.937825706470     1.444674404461    -1.669697282136     1.007825032230
         H           -3.939461451670     1.439658359961     1.664558718864     1.007825032230
         H           -0.868167033770    -2.196017839739     1.651802704064     1.007825032230
         H           -0.866622363270    -2.197855504039    -1.654375903536     1.007825032230
         H            0.868160199230     2.197758934361     1.660179574464     1.007825032230
         H            0.866610788730     2.199594087061    -1.662753478936     1.007825032230
         H            5.185926175730     1.169075556861     0.002475052264     1.007825032230
         H            3.936455223530    -1.442911688539    -1.670620822536     1.007825032230
         H            3.938094611630    -1.437897770239     1.665482532464     1.007825032230

  Running in c1 symmetry.

  Rotational constants: A =      0.78091  B =      0.12156  C =      0.11406 [cm^-1]
  Rotational constants: A =  23411.24195  B =   3644.13829  C =   3419.57326 [MHz]
  Nuclear repulsion =  130.687594765325457

  Charge       = 0
  Multiplicity = 1
  Electrons    = 34
  Nalpha       = 17
  Nbeta        = 17

  ==> Algorithm <==

  SCF Algorithm Type is DF.
  DIIS enabled.
  MOM disabled.
  Fractional occupation disabled.
  Guess Type is SAD.
  Energy threshold   = 1.00e-10
  Density threshold  = 1.00e-10
  Integral threshold = 0.00e+00

  ==> Primary Basis <==

  Basis Set: ANONYMOUS7BAE415B
    Blend: 6-31G_2DFP_
    Number of shells: 72
    Number of basis function: 184
    Number of Cartesian functions: 204
    Spherical Harmonics?: true
    Max angular momentum: 3

  ==> DFT Potential <==

   => Composite Functional: B3LYP <= 

    B3LYP Hyb-GGA Exchange-Correlation Functional

    P. J. Stephens, F. J. Devlin, C. F. Chabalowski, and M. J. Frisch, J. Phys. Chem. 98, 11623 (1994)

    Deriv               =              1
    GGA                 =           TRUE
    Meta                =          FALSE

    Exchange Hybrid     =           TRUE
    MP2 Hybrid          =          FALSE

   => Exchange Functionals <=

    0.0800   Slater exchange
    0.7200         Becke 88

   => Exact (HF) Exchange <=

    0.2000               HF 

   => Correlation Functionals <=

    0.1900   Vosko, Wilk & Nusair (VWN5_RPA)
    0.8100   Lee, Yang & Parr

   => Molecular Quadrature <=

    Radial Scheme          =       TREUTLER
    Pruning Scheme         =           NONE
    Nuclear Scheme         =       TREUTLER

    BS radius alpha        =              1
    Pruning alpha          =              1
    Radial Points          =             99
    Spherical Points       =           1202
    Total Points           =        1550394
    Total Blocks           =          10291
    Max Points             =            256
    Max Functions          =            180
    Weights Tolerance      =       1.00E-15

   => Loading Basis Set <=

    Name: (ANONYMOUS7BAE415B AUX)
    Role: JKFIT
    Keyword: DF_BASIS_SCF
    atoms 1-4  entry C          line   198 file /opt/psi/4/master/share/psi4/basis/def2-universal-jkfit.gbs 
    atoms 5-14 entry H          line    18 file /opt/psi/4/master/share/psi4/basis/def2-universal-jkfit.gbs 

  ==> Integral Setup <==

  DFHelper Memory: AOs need 0.127 GiB; user supplied 3.473 GiB. Using in-core AOs.

  ==> MemDFJK: Density-Fitted J/K Matrices <==

    J tasked:                   Yes
    K tasked:                   Yes
    wK tasked:                   No
    OpenMP threads:               4
    Memory [MiB]:              3556
    Algorithm:                 Core
    Schwarz Cutoff:           1E-12
    Mask sparsity (%):       2.9301
    Fitting Condition:        1E-10

   => Auxiliary Basis Set <=

  Basis Set: (ANONYMOUS7BAE415B AUX)
    Blend: DEF2-UNIVERSAL-JKFIT
    Number of shells: 160
    Number of basis function: 480
    Number of Cartesian functions: 556
    Spherical Harmonics?: true
    Max angular momentum: 4

  Cached 100.0% of DFT collocation blocks in 6.306 [GiB].

  Minimum eigenvalue in the overlap matrix is 1.1404298376E-03.
  Reciprocal condition number of the overlap matrix is 1.8310708877E-04.
    Using symmetric orthogonalization.

  ==> Pre-Iterations <==

  SCF Guess: Superposition of Atomic Densities via on-the-fly atomic UHF (no occupation information).

   -------------------------
    Irrep   Nso     Nmo    
   -------------------------
     A        184     184 
   -------------------------
    Total     184     184
   -------------------------

  ==> Iterations <==

                           Total Energy        Delta E     RMS |[F,P]|

   @DF-RKS iter SAD:  -157.72902413121065   -1.57729e+02   0.00000e+00 
   @DF-RKS iter   1:  -158.06041473469119   -3.31391e-01   4.70959e-03 DIIS
   @DF-RKS iter   2:  -157.86267021670346    1.97745e-01   5.64734e-03 DIIS
   @DF-RKS iter   3:  -158.47197391093829   -6.09304e-01   3.41922e-04 DIIS
   @DF-RKS iter   4:  -158.47335441347244   -1.38050e-03   1.99883e-04 DIIS
   @DF-RKS iter   5:  -158.47401036988992   -6.55956e-04   3.18962e-05 DIIS
   @DF-RKS iter   6:  -158.47402672989682   -1.63600e-05   3.56207e-06 DIIS
   @DF-RKS iter   7:  -158.47402695532460   -2.25428e-07   7.14094e-07 DIIS
   @DF-RKS iter   8:  -158.47402696467447   -9.34986e-09   1.04189e-07 DIIS
   @DF-RKS iter   9:  -158.47402696477994   -1.05473e-10   7.05828e-08 DIIS
   @DF-RKS iter  10:  -158.47402696486580   -8.58620e-11   5.03926e-09 DIIS
   @DF-RKS iter  11:  -158.47402696486648   -6.82121e-13   7.02999e-10 DIIS
   @DF-RKS iter  12:  -158.47402696486643    5.68434e-14   3.07081e-10 DIIS
   @DF-RKS iter  13:  -158.47402696486654   -1.13687e-13   4.60668e-11 DIIS
  Energy and wave function converged.


  ==> Post-Iterations <==

    Orbital Energies [Eh]
    ---------------------

    Doubly Occupied:                                                      

       1A    -10.169792     2A    -10.168978     3A    -10.163824  
       4A    -10.163726     5A     -0.790362     6A     -0.719559  
       7A     -0.626165     8A     -0.572335     9A     -0.464991  
      10A     -0.421918    11A     -0.414887    12A     -0.406827  
      13A     -0.364481    14A     -0.346697    15A     -0.329471  
      16A     -0.319844    17A     -0.317908  

    Virtual:                                                              

      18A      0.079765    19A      0.104617    20A      0.122114  
      21A      0.131987    22A      0.160642    23A      0.169466  
      24A      0.174595    25A      0.177067    26A      0.185642  
      27A      0.186377    28A      0.236177    29A      0.240010  
      30A      0.250555    31A      0.393708    32A      0.407469  
      33A      0.410470    34A      0.412129    35A      0.435845  
      36A      0.448597    37A      0.475114    38A      0.492208  
      39A      0.516408    40A      0.547967    41A      0.564424  
      42A      0.580965    43A      0.584410    44A      0.603648  
      45A      0.612244    46A      0.613924    47A      0.620727  
      48A      0.626519    49A      0.634797    50A      0.636042  
      51A      0.642263    52A      0.670359    53A      0.671769  
      54A      0.687161    55A      0.791125    56A      0.798906  
      57A      0.856830    58A      0.885657    59A      0.890056  
      60A      0.915001    61A      0.947512    62A      0.963231  
      63A      1.039478    64A      1.052851    65A      1.053682  
      66A      1.106481    67A      1.123876    68A      1.137204  
      69A      1.159369    70A      1.173526    71A      1.204634  
      72A      1.204935    73A      1.239499    74A      1.260189  
      75A      1.279690    76A      1.305637    77A      1.329809  
      78A      1.334091    79A      1.345368    80A      1.347673  
      81A      1.366065    82A      1.379260    83A      1.426152  
      84A      1.458592    85A      1.462803    86A      1.489844  
      87A      1.506167    88A      1.532893    89A      1.539064  
      90A      1.568194    91A      1.585678    92A      1.628291  
      93A      1.642567    94A      1.709070    95A      1.726704  
      96A      1.754616    97A      1.778026    98A      1.795635  
      99A      1.819662   100A      1.862523   101A      1.896135  
     102A      2.029562   103A      2.088630   104A      2.123232  
     105A      2.180716   106A      2.284683   107A      2.713794  
     108A      2.749798   109A      2.755376   110A      2.828787  
     111A      2.829705   112A      2.899421   113A      2.900408  
     114A      2.934393   115A      2.957912   116A      2.966346  
     117A      2.984552   118A      2.995908   119A      3.007567  
     120A      3.040329   121A      3.101504   122A      3.157130  
     123A      3.163002   124A      3.167847   125A      3.235966  
     126A      3.261579   127A      3.331641   128A      3.394964  
     129A      3.441156   130A      3.445007   131A      3.471630  
     132A      3.481249   133A      3.507925   134A      3.574329  
     135A      3.588370   136A      3.604139   137A      3.607482  
     138A      3.629645   139A      3.651134   140A      3.686098  
     141A      3.692238   142A      3.695051   143A      3.757350  
     144A      3.831692   145A      3.855493   146A      3.973578  
     147A      3.991422   148A      4.003993   149A      4.021252  
     150A      4.072183   151A      4.073970   152A      4.161764  
     153A      4.173869   154A      4.194781   155A      4.195197  
     156A      4.216672   157A      4.245183   158A      4.292686  
     159A      4.319992   160A      4.363696   161A      4.386218  
     162A      4.426331   163A      4.430150   164A      4.479117  
     165A      4.524257   166A      4.537289   167A      4.541084  
     168A      4.559086   169A      4.565224   170A      4.574040  
     171A      4.610908   172A      4.694881   173A      4.778749  
     174A      4.789763   175A      4.933615   176A      5.003206  
     177A      5.095276   178A      5.180131   179A      5.215461  
     180A      5.297113   181A      5.305160   182A      5.332470  
     183A      5.373954   184A      5.414246  

    Final Occupation by Irrep:
              A 
    DOCC [    17 ]

  @DF-RKS Final Energy:  -158.47402696486654

   => Energetics <=

    Nuclear Repulsion Energy =            130.6875947653254570
    One-Electron Energy =                -469.9611394920349881
    Two-Electron Energy =                 201.4367767729526122
    DFT Exchange-Correlation Energy =     -20.6372590111096095
    Empirical Dispersion Energy =           0.0000000000000000
    VV10 Nonlocal Energy =                  0.0000000000000000
    Total Energy =                       -158.4740269648665389

Computation Completed


Properties will be evaluated at   0.000000,   0.000000,   0.000000 [a0]

Properties computed using the SCF density matrix

  Nuclear Dipole Moment: [e a0]
     X:    -0.0009      Y:     0.0042      Z:    -0.0052

  Electronic Dipole Moment: [e a0]
     X:     0.0010      Y:    -0.0066      Z:     0.0082

  Dipole Moment: [e a0]
     X:     0.0002      Y:    -0.0024      Z:     0.0030     Total:     0.0039

  Dipole Moment: [D]
     X:     0.0004      Y:    -0.0061      Z:     0.0077     Total:     0.0098


*** tstop() called on n022 at Sun Nov 14 15:38:51 2021
Module time:
	user time   =     186.96 seconds =       3.12 minutes
	system time =       1.67 seconds =       0.03 minutes
	total time  =         48 seconds =       0.80 minutes
Total time:
	user time   =     186.96 seconds =       3.12 minutes
	system time =       1.67 seconds =       0.03 minutes
	total time  =         48 seconds =       0.80 minutes
Grab this energy -158.47402696486654
    Psi4 stopped on: Sunday, 14 November 2021 03:38PM
    Psi4 wall time for execution: 0:00:48.17

*** Psi4 exiting successfully. Buy a developer a beer!
