
 Primary working directories    : /tmp/1065196.589.gen6.q
 Secondary working directories  : /tmp/1065196.589.gen6.q
 Wavefunction directory         : /home/vulcan/jj04645/wfu/
 Main file repository           : /tmp/1065196.589.gen6.q/

 ARCHNAME  : Linux/x86_64
 FC        : /opt/intel/compilers_and_libraries_2016.1.150/linux/bin/intel64/ifort
 FCVERSION : 16.0.1
 BLASLIB   : -mkl
 id        : ccgc

 Nodes     nprocs
 n079         1
 ga_uses_ma=false, calling ma_init with nominal heap.
 GA-space will be limited to   8.0 MW (determined by -G option)

 Using customized tuning parameters: mindgm=10; mindgv=16; mindgc=4; mindgr=1; noblas=0; mincuda=1000; minvec=7
 default implementation of scratch files=df  

 ***,Optimization of t-butanol
 memory,1000,m
 gthresh,energy=1.0d-12,orbital=1.0d-10,oneint=1.0d-16,twoint=1.0d-16,optgrad=1.0d-6,compress=1.0d-13
 geomtyp=xyz
 
 bohr
 geometry = {
  C   -0.0016371132   -0.0571904959   -0.0000000000
  O   -0.0277971218    2.6555858639   -0.0000000000
  C   -2.7745612691   -0.8311808047   -0.0000000000
  C    1.3413496448   -1.0172808501   -2.3706958986
  C    1.3413496448   -1.0172808501    2.3706958986
  H    1.7050284186    3.2093815681   -0.0000000000
  H   -2.9533522987   -2.8871935867   -0.0000000000
  H   -3.7172255020   -0.0806304065   -1.6741166982
  H   -3.7172255020   -0.0806304065    1.6741166982
  H    1.3174111351   -3.0766336368   -2.4525633631
  H    3.3119144194   -0.4029815666   -2.3833362646
  H    0.4175162756   -0.2747342117   -4.0538041999
  H    1.3174111351   -3.0766336368    2.4525633631
  H    3.3119144194   -0.4029815666    2.3833362646
  H    0.4175162756   -0.2747342117    4.0538041999
 }
 
 basis=VDZ
 {rhf;maxit,200}
 {ccsd(t);maxit,200}

 Variables initialized (661), CPU time= 0.01 sec
 Commands  initialized (458), CPU time= 0.00 sec, 486 directives.
 Default parameters read. Elapsed time= 0.04 sec

 Checking input...
 Passed
1


                                         ***  PROGRAM SYSTEM MOLPRO  ***
                         Copyright, University College Cardiff Consultants Limited, 2008

                                    Version 2010.1 linked May 16 2016 07:17:05


 **********************************************************************************************************************************
 LABEL *   Optimization of t-butanol                                                     
 Linux-4.4.3/n079(x86_64) 64 bit mpp version                                             DATE: 20-May-24          TIME: 12:38:34  
 **********************************************************************************************************************************

 SHA1:             9e8077add272b0f3cad6f7df79ec5211205f459d
 **********************************************************************************************************************************

 THRESHOLDS:

 ZERO    =  1.00D-12  ONEINT  =  1.00D-16  TWOINT  =  1.00D-16  PREFAC  =  1.00D-14  LOCALI  =  1.00D-09  EORDER  =  1.00D-04
 ENERGY  =  1.00D-12  ETEST   =  0.00D+00  EDENS   =  0.00D+00  THRDEDEF=  1.00D-06  GRADIENT=  1.00D-02  STEP    =  1.00D-03
 ORBITAL =  1.00D-10  CIVEC   =  1.00D-05  COEFF   =  1.00D-04  PRINTCI =  5.00D-02  PUNCHCI =  9.90D+01  OPTGRAD =  1.00D-06
 OPTENERG=  1.00D-06  OPTSTEP =  3.00D-04  THRGRAD =  1.00D-10  COMPRESS=  1.00D-13  VARMIN  =  1.00D-07  VARMAX  =  1.00D-03
 THRDOUB =  0.00D+00  THRDIV  =  1.00D-05  THRRED  =  1.00D-07  THRPSP  =  1.00D+00  THRDC   =  1.00D-10  THRCS   =  1.00D-10
 THRNRM  =  1.00D-08  THREQ   =  0.00D+00  THRDE   =  1.00D+00  THRREF  =  1.00D-05  SPARFAC =  1.00D+00  THRDLP  =  1.00D-07
 THRDIA  =  1.00D-10  THRDLS  =  1.00D-07  THRGPS  =  0.00D+00  THRKEX  =  0.00D+00  THRDIS  =  2.00D-01  THRVAR  =  1.00D-10
 THRLOC  =  1.00D-06  THRGAP  =  1.00D-06  THRLOCT = -1.00D+00  THRGAPT = -1.00D+00  THRORB  =  1.00D-06  THRMLTP =  0.00D+00
 THRCPQCI=  1.00D-10  KEXTA   =  0.00D+00  THRCOARS=  0.00D+00  SYMTOL  =  1.00D-06  GRADTOL =  1.00D-06  THROVL  =  1.00D-08
 THRORTH =  1.00D-08  GRID    =  1.00D-06  GRIDMAX =  1.00D-03  DTMAX   =  0.00D+00

 SETTING GEOMTYP        =    XYZ
 ZUNIT=BOHR
 

 Variable memory set to 1000000000 words,  buffer space   230000 words

 SETTING BASIS          =    VDZ


 Recomputing integrals since basis changed


 Using spherical harmonics

 Library entry C      S cc-pVDZ              selected for orbital group  1
 Library entry C      P cc-pVDZ              selected for orbital group  1
 Library entry C      D cc-pVDZ              selected for orbital group  1
 Library entry O      S cc-pVDZ              selected for orbital group  2
 Library entry O      P cc-pVDZ              selected for orbital group  2
 Library entry O      D cc-pVDZ              selected for orbital group  2
 Library entry H      S cc-pVDZ              selected for orbital group  4
 Library entry H      P cc-pVDZ              selected for orbital group  4

1PROGRAM * SEWARD (Integral evaluation for generally contracted gaussian basis sets)     Author: Roland Lindh, 1990

 Geometry written to block  1 of record 700


 Point group  Cs  



 ATOMIC COORDINATES

 NR  ATOM    CHARGE       X              Y              Z

   1  C       6.00   -0.001637113   -0.057190496    0.000000000
   2  O       8.00   -0.027797122    2.655585864    0.000000000
   3  C       6.00   -2.774561269   -0.831180805    0.000000000
   4  C       6.00    1.341349645   -1.017280850   -2.370695899
   5  C       6.00    1.341349645   -1.017280850    2.370695899
   6  H       1.00    1.705028419    3.209381568    0.000000000
   7  H       1.00   -2.953352299   -2.887193587    0.000000000
   8  H       1.00   -3.717225502   -0.080630407   -1.674116698
   9  H       1.00   -3.717225502   -0.080630407    1.674116698
  10  H       1.00    1.317411135   -3.076633637   -2.452563363
  11  H       1.00    1.317411135   -3.076633637    2.452563363
  12  H       1.00    3.311914419   -0.402981567   -2.383336265
  13  H       1.00    3.311914419   -0.402981567    2.383336265
  14  H       1.00    0.417516276   -0.274734212   -4.053804200
  15  H       1.00    0.417516276   -0.274734212    4.053804200

 Bond lengths in Bohr (Angstrom)

 1-2  2.712902491  1-3  2.878918091  1-4  2.888872784  1-5  2.888872784  2-6  1.819168501
     ( 1.435606168)     ( 1.523457840)     ( 1.528725637)     ( 1.528725637)     ( 0.962662510)

  3- 7  2.063771982   3- 8  2.062670229   3- 9  2.062670229   4-10  2.061118443   4-12  2.064133939
       ( 1.092101097)       ( 1.091518075)       ( 1.091518075)       ( 1.090696905)       ( 1.092292637)

  4-14  2.058566773   5-11  2.061118443   5-13  2.064133939   5-15  2.058566773
       ( 1.089346619)       ( 1.090696905)       ( 1.092292637)       ( 1.089346619)

 Bond angles

  1-2-6  107.17091859   1-3-7  110.56564859   1-3-8  110.02067679   1-3-9  110.02067679

  1- 4-10  111.05427723   1- 4-12  110.48289345   1- 4-14  110.02622558   1- 5-11  111.05427723

  1- 5-13  110.48289345   1- 5-15  110.02622558   2- 1- 3  105.04320471   2- 1- 4  109.68252792

  2-1-5  109.68252792   3-1-4  111.00306355   3-1-5  111.00306355   4-1-5  110.29583362

  7- 3- 8  108.83916949   7- 3- 9  108.83916949   8- 3- 9  108.51019466  10- 4-12  107.95054479

 10- 4-14  108.82712347  11- 5-13  107.95054479  11- 5-15  108.82712347  12- 4-14  108.42572350

 13- 5-15  108.42572350

 NUCLEAR CHARGE:                   42
 NUMBER OF PRIMITIVE AOS:         205
 NUMBER OF SYMMETRY AOS:          200
 NUMBER OF CONTRACTIONS:          120   (  72A'  +  48A"  )
 NUMBER OF CORE ORBITALS:           5   (   4A'  +   1A"  )
 NUMBER OF VALENCE ORBITALS:       30   (  19A'  +  11A"  )


 NUCLEAR REPULSION ENERGY  199.70705195


 Eigenvalues of metric

         1 0.261E-02 0.488E-02 0.834E-02 0.168E-01 0.192E-01 0.251E-01 0.300E-01 0.337E-01
         2 0.490E-02 0.191E-01 0.239E-01 0.301E-01 0.341E-01 0.349E-01 0.373E-01 0.442E-01


 Contracted 2-electron integrals neglected if value below      1.0D-16
 AO integral compression algorithm  1   Integral accuracy      1.0D-16

     119.538 MB (compressed) written to integral file ( 98.2%)

     Node minimum: 119.538 MB, node maximum: 119.538 MB


 NUMBER OF SORTED TWO-ELECTRON INTEGRALS:   13418166.     BUFFER LENGTH:  32768
 NUMBER OF SEGMENTS:   1  SEGMENT LENGTH:   13418166      RECORD LENGTH: 524288

 Memory used in sort:      13.98 MW

 SORT1 READ    15222547. AND WROTE    13374769. INTEGRALS IN     39 RECORDS. CPU TIME:     0.15 SEC, REAL TIME:     0.23 SEC
 SORT2 READ    13374769. AND WROTE    13418166. INTEGRALS IN    456 RECORDS. CPU TIME:     0.13 SEC, REAL TIME:     0.19 SEC

 FILE SIZES:   FILE 1:   109.4 MBYTE,  FILE 4:   163.6 MBYTE,   TOTAL:    273.1 MBYTE

 OPERATOR DM      FOR CENTER  0  COORDINATES:    0.000000    0.000000    0.000000


 **********************************************************************************************************************************
 DATASETS  * FILE   NREC   LENGTH (MB)   RECORD NAMES
              1      19      109.53       500      610      700      900      950      970     1000      129      960     1100   
                                          VAR    BASINP    GEOM    SYMINP    ZMAT    AOBASIS   BASIS     P2S    ABASIS      S 
                                         1400     1410     1200     1210     1080     1600     1650     1300     1700   
                                           T        V       H0       H01     AOSYM     SMH    MOLCAS    ERIS     OPER   

 PROGRAMS   *        TOTAL       INT
 CPU TIMES  *         1.93      1.89
 REAL TIME  *         2.64 SEC
 DISK USED  *       393.55 MB      
 GA USED    *         0.00 MB       (max)       0.00 MB       (current)
 **********************************************************************************************************************************

1PROGRAM * RHF-SCF (CLOSED SHELL)       Authors: W. Meyer, H.-J. Werner


 NUMBER OF ELECTRONS:      21+   21-
 CONVERGENCE THRESHOLDS:    1.00E-10 (Density)    1.00E-13 (Energy)
 MAX. NUMBER OF ITERATIONS:      200
 INTERPOLATION TYPE:            DIIS
 INTERPOLATION STEPS:              2 (START)      1 (STEP)
 LEVEL SHIFTS:                  0.00 (CLOSED)  0.00 (OPEN) 



 Orbital guess generated from atomic densities. Full valence occupancy:   23  12

 Molecular orbital dump at record        2100.2

 Initial alpha occupancy:  14   7
 Initial beta  occupancy:  14   7
 Wave function symmetry:    1

 ITERATION    DDIFF          GRAD             ENERGY        2-EL.EN.            DIPOLE MOMENTS         DIIS
    1      0.000D+00      0.000D+00      -232.08667935    561.223703    0.88736   -0.62454    0.00000    0
    2      0.000D+00      0.852D-02      -232.16305062    556.001761    0.41036   -0.32580    0.00000    1
    3      0.169D-01      0.366D-02      -232.17372392    557.997033    0.53032   -0.43140    0.00000    2
    4      0.538D-02      0.101D-02      -232.17502320    557.769739    0.50367   -0.39535    0.00000    3
    5      0.195D-02      0.266D-03      -232.17510065    557.707022    0.50309   -0.40762    0.00000    4
    6      0.425D-03      0.493D-04      -232.17510369    557.726998    0.50246   -0.40597    0.00000    5
    7      0.124D-03      0.908D-05      -232.17510384    557.721398    0.50241   -0.40614    0.00000    6
    8      0.255D-04      0.290D-05      -232.17510385    557.722979    0.50242   -0.40624    0.00000    7
    9      0.553D-05      0.948D-06      -232.17510385    557.722624    0.50239   -0.40625    0.00000    7
   10      0.215D-05      0.265D-06      -232.17510385    557.722679    0.50239   -0.40627    0.00000    7
   11      0.702D-06      0.541D-07      -232.17510385    557.722668    0.50239   -0.40628    0.00000    7
   12      0.171D-06      0.164D-07      -232.17510385    557.722676    0.50239   -0.40628    0.00000    7
   13      0.333D-07      0.717D-08      -232.17510385    557.722674    0.50239   -0.40628    0.00000    7
   14      0.140D-07      0.232D-08      -232.17510385    557.722674    0.50239   -0.40628    0.00000    8
   15      0.413D-08      0.607D-09      -232.17510385    557.722674    0.50239   -0.40628    0.00000    8
   16      0.147D-08      0.150D-09      -232.17510385    557.722674    0.50239   -0.40628    0.00000    7
   17      0.346D-09      0.411D-10      -232.17510385    557.722674    0.50239   -0.40628    0.00000    7
   18      0.107D-09      0.118D-10      -232.17510385    557.722674    0.50239   -0.40628    0.00000    8
   19      0.238D-10      0.299D-11      -232.17510385    557.722674    0.50239   -0.40628    0.00000    0

 Final occupancy:  14   7

 !RHF STATE 1.1 Energy               -232.175103849389
 Nuclear energy                       199.70705195
 One-electron energy                 -710.74349269
 Two-electron energy                  278.86133689
 Virial quotient                       -1.00081109
 !RHF STATE 1.1 Dipole moment           0.50239260    -0.40627614     0.00000000
 Dipole moment /Debye                   1.27687099    -1.03258331     0.00000000

 Orbital energies:

         1.1          2.1          3.1          4.1          5.1          6.1          7.1          8.1          9.1         10.1
    -20.545060   -11.281990   -11.219590   -11.214574    -1.352126    -1.064424    -0.938848    -0.766894    -0.665673    -0.621203

        11.1         12.1         13.1         14.1         15.1         16.1
     -0.574117    -0.527922    -0.505585    -0.458860     0.167002     0.220279

         1.2          2.2          3.2          4.2          5.2          6.2          7.2          8.2          9.2
    -11.219608    -0.940225    -0.618191    -0.554065    -0.514911    -0.500177    -0.426366     0.241437     0.255528


 **********************************************************************************************************************************
 DATASETS  * FILE   NREC   LENGTH (MB)   RECORD NAMES
              1      19      109.53       500      610      700      900      950      970     1000      129      960     1100   
                                          VAR    BASINP    GEOM    SYMINP    ZMAT    AOBASIS   BASIS     P2S    ABASIS      S 
                                         1400     1410     1200     1210     1080     1600     1650     1300     1700   
                                           T        V       H0       H01     AOSYM     SMH    MOLCAS    ERIS     OPER   

              2       3        0.66       700     1000     2100   
                                         GEOM     BASIS     RHF  

 PROGRAMS   *        TOTAL       RHF       INT
 CPU TIMES  *         2.97      1.04      1.89
 REAL TIME  *         3.88 SEC
 DISK USED  *       393.55 MB      
 GA USED    *         0.00 MB       (max)       0.00 MB       (current)
 **********************************************************************************************************************************


1PROGRAM * CCSD (Closed-shell coupled cluster)     Authors: C. Hampel, H.-J. Werner, 1991, M. Deegan, P.J. Knowles, 1992


 Convergence thresholds:  THRVAR = 1.00D-08  THRDEN = 1.00D-12

 CCSD(T)     terms to be evaluated (factor= 1.000)


 Number of core orbitals:           5 (   4   1 )
 Number of closed-shell orbitals:  16 (  10   6 )
 Number of external orbitals:      99 (  58  41 )

 Molecular orbitals read from record     2100.2  Type=RHF/CANONICAL (state 1.1)

 Number of N-1 electron functions:              16
 Number of N-2 electron functions:             136
 Number of singly external CSFs:               826
 Number of doubly external CSFs:            629212
 Total number of CSFs:                      630039

 Length of J-op  integral file:               0.00 MB
 Length of K-op  integral file:               0.55 MB
 Length of 3-ext integral record:             0.00 MB

 Memory could be reduced to 10.83 Mwords without degradation in triples

 Integral transformation finished. Total CPU:   0.36 sec, npass=  1  Memory used:   6.19 MW

 Reference energy:                   -232.17510385

 MP2 singlet pair energy:              -0.49743435
 MP2 triplet pair energy:              -0.27473422
 MP2 correlation energy:               -0.77216857
 MP2 total energy:                   -232.94727242

 SCS-MP2 correlation energy:           -0.76786696   (PS=  1.200000  PT=  0.333333)
 SCS-MP2 total energy:               -232.94297081

 ITER.      SQ.NORM     CORR.ENERGY   TOTAL ENERGY   ENERGY CHANGE        DEN1      VAR(S)    VAR(P)  DIIS     TIME
   1      1.27337917    -0.82934509  -233.00444894    -0.05717652    -0.03606362  0.25D-02  0.44D-02  1  1     1.18
   2      1.29451684    -0.83365533  -233.00875918    -0.00431024    -0.02217789  0.67D-04  0.42D-03  2  2     2.02
   3      1.29902508    -0.83386397  -233.00896781    -0.00020864    -0.00276815  0.24D-04  0.24D-04  3  3     2.87
   4      1.30028845    -0.83386957  -233.00897342    -0.00000560    -0.00060130  0.64D-06  0.21D-05  4  4     3.71
   5      1.30051915    -0.83387848  -233.00898233    -0.00000891    -0.00008078  0.19D-06  0.15D-06  5  5     4.55
   6      1.30056020    -0.83387521  -233.00897906     0.00000327    -0.00001314  0.26D-07  0.14D-07  6  6     5.41
   7      1.30056715    -0.83387399  -233.00897784     0.00000122    -0.00000072  0.38D-08  0.17D-08  6  1     6.26
   8      1.30057073    -0.83387400  -233.00897785    -0.00000001    -0.00000041  0.68D-09  0.22D-09  6  2     7.11
   9      1.30057131    -0.83387393  -233.00897778     0.00000007     0.00000056  0.63D-10  0.39D-10  6  4     7.96
  10      1.30057189    -0.83387392  -233.00897777     0.00000001    -0.00000001  0.50D-11  0.38D-11  6  3     8.81
  11      1.30057186    -0.83387392  -233.00897777    -0.00000000     0.00000005  0.79D-12  0.46D-12  6  5     9.66
  12      1.30057180    -0.83387393  -233.00897778    -0.00000000     0.00000003  0.14D-12  0.66D-13  6  6    10.51
  13      1.30057175    -0.83387393  -233.00897778    -0.00000000     0.00000003  0.11D-13  0.10D-13  6  2    11.35
  14      1.30057173    -0.83387393  -233.00897778    -0.00000000     0.00000001  0.17D-14  0.61D-15  6  1    12.20
  15      1.30057173    -0.83387393  -233.00897778    -0.00000000     0.00000000  0.22D-15  0.13D-15  6  4    13.05
  16      1.30057173    -0.83387393  -233.00897778     0.00000000    -0.00000000  0.34D-16  0.20D-16  6  3    13.89
  17      1.30057173    -0.83387393  -233.00897778     0.00000000    -0.00000000  0.33D-17  0.25D-17  6  5    14.73
  18      1.30057173    -0.83387393  -233.00897778    -0.00000000    -0.00000000  0.87D-18  0.34D-18  6  6    15.58
  19      1.30057173    -0.83387393  -233.00897778    -0.00000000    -0.00000000  0.21D-18  0.62D-19  6  2    16.42
  20      1.30057173    -0.83387393  -233.00897778    -0.00000000     0.00000000  0.32D-19  0.12D-19  6  1    17.27
  21      1.30057173    -0.83387393  -233.00897778    -0.00000000     0.00000000  0.40D-20  0.21D-20  6  4    18.12
  22      1.30057173    -0.83387393  -233.00897778     0.00000000    -0.00000000  0.68D-21  0.31D-21  6  3    18.97

 Norm of t1 vector:      0.06601880      S-energy:    -0.00000000      T1 diagnostic:  0.00825235
                                                                       D1 diagnostic:  0.02162123


 Total CPU time for triples:     13.87 sec


 RESULTS
 =======

  Reference energy                   -232.175103849389
  CCSD singlet pair energy             -0.580785989529
  CCSD triplet pair energy             -0.253087940773
  CCSD correlation energy              -0.833873930303

  Triples (T) contribution             -0.023235894945
  Total correlation energy             -0.857109825248

  CCSD total energy                  -233.008977779692
  CCSD[T] energy                     -233.032909191927
  CCSD-T energy                      -233.031878251200
 !CCSD(T) total energy               -233.032213674637

 Timing summary (sec):

 STEP                 CPU(USER)    SYS     CPU(TOT)    WALL
 Transformation          0.38      0.08      0.46      0.45
 CCSD iterations        18.59      0.81     19.40     19.45
 Triples                13.87      0.53     14.40     14.40

 Program statistics:

 Available memory in ccsd:               999998876
 Min. memory needed in ccsd:               1681381
 Max. memory used in ccsd:                 2239583
 Max. memory used in cckext:               2333618 (22 integral passes)



 **********************************************************************************************************************************
 DATASETS  * FILE   NREC   LENGTH (MB)   RECORD NAMES
              1      20      153.09       500      610      700      900      950      970     1000      129      960     1100   
                                          VAR    BASINP    GEOM    SYMINP    ZMAT    AOBASIS   BASIS     P2S    ABASIS      S 
                                         1400     1410     1200     1210     1080     1600     1650     1300     1700     1380   
                                           T        V       H0       H01     AOSYM     SMH    MOLCAS    ERIS     OPER     JKOP   

              2       3        0.66       700     1000     2100   
                                         GEOM     BASIS     RHF  

 PROGRAMS   *        TOTAL   CCSD(T)       RHF       INT
 CPU TIMES  *        35.82     32.85      1.04      1.89
 REAL TIME  *        38.22 SEC
 DISK USED  *       393.55 MB      
 GA USED    *         0.00 MB       (max)       0.00 MB       (current)
 **********************************************************************************************************************************

        CCSD(T)         RHF-SCF 
   -233.03221367   -232.17510385
 **********************************************************************************************************************************
 Variable memory released
