
 Primary working directories    : /tmp/943417.399.gen6.q
 Secondary working directories  : /tmp/943417.399.gen6.q
 Wavefunction directory         : /home/vulcan/mel64643/wfu/
 Main file repository           : /tmp/943417.399.gen6.q/

 ARCHNAME  : Linux/x86_64
 FC        : /opt/intel/compilers_and_libraries_2016.1.150/linux/bin/intel64/ifort
 FCVERSION : 16.0.1
 BLASLIB   : -mkl
 id        : ccgc

 Nodes     nprocs
 n076         1
 ga_uses_ma=false, calling ma_init with nominal heap.
 GA-space will be limited to   8.0 MW (determined by -G option)

 Using customized tuning parameters: mindgm=10; mindgv=16; mindgc=4; mindgr=1; noblas=0; mincuda=1000; minvec=7
 default implementation of scratch files=df  

 ***,Optimization of nh3_nitrosmethane
 memory,1000,m
 gthresh,energy=1.0d-12,orbital=1.0d-10,oneint=1.0d-16,twoint=1.0d-16,optgrad=1.0d-6,compress=1.0d-13
 geomtyp=xyz
 
 bohr
 geometry = {
  N   -5.2248105094   -0.1837573559    0.0049964985
  H   -6.2925620748    0.2319695793   -1.5337087632
  H   -3.7606925816    1.0595565632   -0.0043094918
  H   -6.3058461751    0.2304265072    1.5348166807
  H   -0.9267846318   -2.3986332964   -0.0000533053
  H    1.8872485625   -3.4368220264   -1.6620002906
  H    1.8876335443   -3.4368029408    1.6612535776
  C    1.1337115589   -2.4694499231   -0.0002915964
  N    2.2647781478    0.0981078052   -0.0004373702
  O    0.7014426492    1.7824620968   -0.0002659392
 }
 
 basis=cc-pvdz
 {rhf;maxit,200}
 {ccsd(t);maxit,200}

 Variables initialized (661), CPU time= 0.00 sec
 Commands  initialized (458), CPU time= 0.00 sec, 486 directives.
 Default parameters read. Elapsed time= 0.05 sec

 Checking input...
 Passed
1


                                         ***  PROGRAM SYSTEM MOLPRO  ***
                         Copyright, University College Cardiff Consultants Limited, 2008

                                    Version 2010.1 linked May 16 2016 07:17:05


 **********************************************************************************************************************************
 LABEL *   Optimization of nh3_nitrosmethane                                             
 Linux-4.4.3/n076(x86_64) 64 bit mpp version                                             DATE: 25-Oct-23          TIME: 17:14:04  
 **********************************************************************************************************************************

 SHA1:             9e8077add272b0f3cad6f7df79ec5211205f459d
 **********************************************************************************************************************************

 THRESHOLDS:

 ZERO    =  1.00D-12  ONEINT  =  1.00D-16  TWOINT  =  1.00D-16  PREFAC  =  1.00D-14  LOCALI  =  1.00D-09  EORDER  =  1.00D-04
 ENERGY  =  1.00D-12  ETEST   =  0.00D+00  EDENS   =  0.00D+00  THRDEDEF=  1.00D-06  GRADIENT=  1.00D-02  STEP    =  1.00D-03
 ORBITAL =  1.00D-10  CIVEC   =  1.00D-05  COEFF   =  1.00D-04  PRINTCI =  5.00D-02  PUNCHCI =  9.90D+01  OPTGRAD =  1.00D-06
 OPTENERG=  1.00D-06  OPTSTEP =  3.00D-04  THRGRAD =  1.00D-10  COMPRESS=  1.00D-13  VARMIN  =  1.00D-07  VARMAX  =  1.00D-03
 THRDOUB =  0.00D+00  THRDIV  =  1.00D-05  THRRED  =  1.00D-07  THRPSP  =  1.00D+00  THRDC   =  1.00D-10  THRCS   =  1.00D-10
 THRNRM  =  1.00D-08  THREQ   =  0.00D+00  THRDE   =  1.00D+00  THRREF  =  1.00D-05  SPARFAC =  1.00D+00  THRDLP  =  1.00D-07
 THRDIA  =  1.00D-10  THRDLS  =  1.00D-07  THRGPS  =  0.00D+00  THRKEX  =  0.00D+00  THRDIS  =  2.00D-01  THRVAR  =  1.00D-10
 THRLOC  =  1.00D-06  THRGAP  =  1.00D-06  THRLOCT = -1.00D+00  THRGAPT = -1.00D+00  THRORB  =  1.00D-06  THRMLTP =  0.00D+00
 THRCPQCI=  1.00D-10  KEXTA   =  0.00D+00  THRCOARS=  0.00D+00  SYMTOL  =  1.00D-06  GRADTOL =  1.00D-06  THROVL  =  1.00D-08
 THRORTH =  1.00D-08  GRID    =  1.00D-06  GRIDMAX =  1.00D-03  DTMAX   =  0.00D+00

 SETTING GEOMTYP        =    XYZ
 ZUNIT=BOHR
 

 Variable memory set to 1000000000 words,  buffer space   230000 words

 SETTING BASIS          =    CC-PVDZ


 Recomputing integrals since basis changed


 Using spherical harmonics

 Library entry N      S cc-pVDZ              selected for orbital group  1
 Library entry N      P cc-pVDZ              selected for orbital group  1
 Library entry N      D cc-pVDZ              selected for orbital group  1
 Library entry H      S cc-pVDZ              selected for orbital group  2
 Library entry H      P cc-pVDZ              selected for orbital group  2
 Library entry C      S cc-pVDZ              selected for orbital group  3
 Library entry C      P cc-pVDZ              selected for orbital group  3
 Library entry C      D cc-pVDZ              selected for orbital group  3
 Library entry O      S cc-pVDZ              selected for orbital group  5
 Library entry O      P cc-pVDZ              selected for orbital group  5
 Library entry O      D cc-pVDZ              selected for orbital group  5

1PROGRAM * SEWARD (Integral evaluation for generally contracted gaussian basis sets)     Author: Roland Lindh, 1990

 Geometry written to block  1 of record 700


 Point group  C1  



 ATOMIC COORDINATES

 NR  ATOM    CHARGE       X              Y              Z

   1  N       7.00   -5.224810509   -0.183757356    0.004996498
   2  H       1.00   -6.292562075    0.231969579   -1.533708763
   3  H       1.00   -3.760692582    1.059556563   -0.004309492
   4  H       1.00   -6.305846175    0.230426507    1.534816681
   5  H       1.00   -0.926784632   -2.398633296   -0.000053305
   6  H       1.00    1.887248562   -3.436822026   -1.662000291
   7  H       1.00    1.887633544   -3.436802941    1.661253578
   8  C       6.00    1.133711559   -2.469449923   -0.000291596
   9  N       7.00    2.264778148    0.098107805   -0.000437370
  10  O       8.00    0.701442649    1.782462097   -0.000265939

 Bond lengths in Bohr (Angstrom)

 1-2  1.918472354  1-3  1.920822066  1-4  1.918472354  5-8  2.061712784  6-8  2.065164058
     ( 1.015211846)     ( 1.016455260)     ( 1.015211846)     ( 1.091011417)     ( 1.092837752)

  7- 8  2.065164058   8- 9  2.805648648   9-10  2.298057286
       ( 1.092837752)       ( 1.484685321)       ( 1.216079541)

 Bond angles

  2-1-3  106.26512220   2-1-4  106.21038488   3-1-4  107.07540678   5-8-6  112.38617565

  5-8-7  112.38617565   5-8-9  111.80615632   6-8-7  107.14290661   6-8-9  106.35175773

  7- 8- 9  106.35175773   8- 9-10  113.35946297

 NUCLEAR CHARGE:                   34
 NUMBER OF PRIMITIVE AOS:         150
 NUMBER OF SYMMETRY AOS:          146
 NUMBER OF CONTRACTIONS:           86   (  86A   )
 NUMBER OF CORE ORBITALS:           4   (   4A   )
 NUMBER OF VALENCE ORBITALS:       22   (  22A   )


 NUCLEAR REPULSION ENERGY  117.38797992


 Eigenvalues of metric

         1 0.629E-02 0.971E-02 0.152E-01 0.180E-01 0.298E-01 0.370E-01 0.391E-01 0.407E-01


 Contracted 2-electron integrals neglected if value below      1.0D-16
 AO integral compression algorithm  1   Integral accuracy      1.0D-16

     51.905 MB (compressed) written to integral file ( 81.4%)

     Node minimum: 51.905 MB, node maximum: 51.905 MB


 NUMBER OF SORTED TWO-ELECTRON INTEGRALS:    6999411.     BUFFER LENGTH:  32768
 NUMBER OF SEGMENTS:   1  SEGMENT LENGTH:    6999411      RECORD LENGTH: 524288

 Memory used in sort:       7.56 MW

 SORT1 READ     8004340. AND WROTE     6870900. INTEGRALS IN     20 RECORDS. CPU TIME:     0.07 SEC, REAL TIME:     0.11 SEC
 SORT2 READ     6870900. AND WROTE     6999411. INTEGRALS IN    198 RECORDS. CPU TIME:     0.08 SEC, REAL TIME:     0.11 SEC

 FILE SIZES:   FILE 1:    47.9 MBYTE,  FILE 4:    83.9 MBYTE,   TOTAL:    131.8 MBYTE

 OPERATOR DM      FOR CENTER  0  COORDINATES:    0.000000    0.000000    0.000000


 **********************************************************************************************************************************
 DATASETS  * FILE   NREC   LENGTH (MB)   RECORD NAMES
              1      19       48.01       500      610      700      900      950      970     1000      129      960     1100   
                                          VAR    BASINP    GEOM    SYMINP    ZMAT    AOBASIS   BASIS     P2S    ABASIS      S 
                                         1400     1410     1200     1210     1080     1600     1650     1300     1700   
                                           T        V       H0       H01     AOSYM     SMH    MOLCAS    ERIS     OPER   

 PROGRAMS   *        TOTAL       INT
 CPU TIMES  *         0.75      0.71
 REAL TIME  *         1.05 SEC
 DISK USED  *       184.52 MB      
 GA USED    *         0.00 MB       (max)       0.00 MB       (current)
 **********************************************************************************************************************************

1PROGRAM * RHF-SCF (CLOSED SHELL)       Authors: W. Meyer, H.-J. Werner


 NUMBER OF ELECTRONS:      17+   17-    SPACE SYMMETRY=1    SPIN SYMMETRY: Singlet 
 CONVERGENCE THRESHOLDS:    1.00E-10 (Density)    1.00E-13 (Energy)
 MAX. NUMBER OF ITERATIONS:      200
 INTERPOLATION TYPE:            DIIS
 INTERPOLATION STEPS:              2 (START)      1 (STEP)
 LEVEL SHIFTS:                  0.00 (CLOSED)  0.00 (OPEN) 



 Orbital guess generated from atomic densities. Full valence occupancy:   26

 Molecular orbital dump at record        2100.2

 ITERATION    DDIFF          GRAD             ENERGY        2-EL.EN.            DIPOLE MOMENTS         DIIS
    1      0.000D+00      0.000D+00      -224.94598955    393.795211    0.10489   -0.57415   -0.00532    0
    2      0.000D+00      0.101D-01      -225.00726971    393.242573   -0.59096   -0.30407   -0.00221    1
    3      0.189D-01      0.693D-02      -225.03993171    393.759970   -0.24865   -0.51577   -0.00287    2
    4      0.825D-02      0.139D-02      -225.04209583    393.651345   -0.32758   -0.42395   -0.00297    3
    5      0.216D-02      0.531D-03      -225.04247292    393.647208   -0.32894   -0.45050   -0.00285    4
    6      0.909D-03      0.129D-03      -225.04250959    393.669486   -0.33383   -0.44867   -0.00287    5
    7      0.305D-03      0.512D-04      -225.04251541    393.657280   -0.33543   -0.44889   -0.00286    6
    8      0.124D-03      0.198D-04      -225.04251626    393.662854   -0.33620   -0.44886   -0.00287    7
    9      0.433D-04      0.826D-05      -225.04251643    393.661509   -0.33638   -0.44856   -0.00287    8
   10      0.225D-04      0.230D-05      -225.04251645    393.661331   -0.33644   -0.44840   -0.00287    8
   11      0.659D-05      0.695D-06      -225.04251645    393.661382   -0.33646   -0.44833   -0.00287    8
   12      0.187D-05      0.221D-06      -225.04251645    393.661345   -0.33646   -0.44831   -0.00287    8
   13      0.755D-06      0.700D-07      -225.04251645    393.661339   -0.33646   -0.44831   -0.00287    8
   14      0.181D-06      0.348D-07      -225.04251645    393.661340   -0.33646   -0.44830   -0.00287    8
   15      0.909D-07      0.832D-08      -225.04251645    393.661340   -0.33646   -0.44830   -0.00287    8
   16      0.167D-07      0.480D-08      -225.04251645    393.661340   -0.33646   -0.44830   -0.00287    8
   17      0.135D-07      0.353D-08      -225.04251645    393.661341   -0.33646   -0.44830   -0.00287    8
   18      0.227D-07      0.177D-08      -225.04251645    393.661340   -0.33646   -0.44830   -0.00287    8
   19      0.153D-07      0.615D-09      -225.04251645    393.661340   -0.33646   -0.44830   -0.00287    9
   20      0.503D-08      0.125D-09      -225.04251645    393.661340   -0.33646   -0.44830   -0.00287    9
   21      0.416D-09      0.339D-10      -225.04251645    393.661340   -0.33646   -0.44830   -0.00287    9
   22      0.103D-09      0.787D-11      -225.04251645    393.661340   -0.33646   -0.44830   -0.00287    8
   23      0.219D-10      0.270D-11      -225.04251645    393.661340   -0.33646   -0.44830   -0.00287    9
   24      0.702D-11      0.124D-11      -225.04251645    393.661340   -0.33646   -0.44830   -0.00287    8
   25      0.254D-11      0.266D-12      -225.04251645    393.661340   -0.33646   -0.44830   -0.00287    0

 Final occupancy:  17

 !RHF STATE 1.1 Energy               -225.042516450572
 Nuclear energy                       117.38797992
 One-electron energy                 -539.26116648
 Two-electron energy                  196.83067011
 Virial quotient                       -1.00156697
 !RHF STATE 1.1 Dipole moment          -0.33646397    -0.44830456    -0.00286822
 Dipole moment /Debye                  -0.85515010    -1.13940191    -0.00728980

 Orbital energies:

         1.1          2.1          3.1          4.1          5.1          6.1          7.1          8.1          9.1         10.1
    -20.625991   -15.699094   -15.537313   -11.265822    -1.506723    -1.130676    -1.070109    -0.855376    -0.684903    -0.667589

        11.1         12.1         13.1         14.1         15.1         16.1         17.1         18.1         19.1
     -0.630406    -0.615576    -0.613264    -0.551339    -0.527351    -0.420175    -0.398204     0.109542     0.187019


 **********************************************************************************************************************************
 DATASETS  * FILE   NREC   LENGTH (MB)   RECORD NAMES
              1      19       48.01       500      610      700      900      950      970     1000      129      960     1100   
                                          VAR    BASINP    GEOM    SYMINP    ZMAT    AOBASIS   BASIS     P2S    ABASIS      S 
                                         1400     1410     1200     1210     1080     1600     1650     1300     1700   
                                           T        V       H0       H01     AOSYM     SMH    MOLCAS    ERIS     OPER   

              2       3        0.57       700     1000     2100   
                                         GEOM     BASIS     RHF  

 PROGRAMS   *        TOTAL       RHF       INT
 CPU TIMES  *         1.94      1.19      0.71
 REAL TIME  *         2.38 SEC
 DISK USED  *       184.52 MB      
 GA USED    *         0.00 MB       (max)       0.00 MB       (current)
 **********************************************************************************************************************************


1PROGRAM * CCSD (Closed-shell coupled cluster)     Authors: C. Hampel, H.-J. Werner, 1991, M. Deegan, P.J. Knowles, 1992


 Convergence thresholds:  THRVAR = 1.00D-08  THRDEN = 1.00D-12

 CCSD(T)     terms to be evaluated (factor= 1.000)


 Number of core orbitals:           4 (   4 )
 Number of closed-shell orbitals:  13 (  13 )
 Number of external orbitals:      69 (  69 )

 Molecular orbitals read from record     2100.2  Type=RHF/CANONICAL (state 1.1)

 Number of N-1 electron functions:              13
 Number of N-2 electron functions:              91
 Number of singly external CSFs:               897
 Number of doubly external CSFs:            402753
 Total number of CSFs:                      403651

 Length of J-op  integral file:               0.00 MB
 Length of K-op  integral file:               0.54 MB
 Length of 3-ext integral record:             0.00 MB

 Memory could be reduced to 6.46 Mwords without degradation in triples

 Integral transformation finished. Total CPU:   0.25 sec, npass=  1  Memory used:   5.81 MW

 Reference energy:                   -225.04251645

 MP2 singlet pair energy:              -0.42989994
 MP2 triplet pair energy:              -0.25006974
 MP2 correlation energy:               -0.67996969
 MP2 total energy:                   -225.72248614

 SCS-MP2 correlation energy:           -0.67147888   (PS=  1.200000  PT=  0.333333)
 SCS-MP2 total energy:               -225.71399533

 ITER.      SQ.NORM     CORR.ENERGY   TOTAL ENERGY   ENERGY CHANGE        DEN1      VAR(S)    VAR(P)  DIIS     TIME
   1      1.22681473    -0.71575818  -225.75827463    -0.03578849    -0.01323608  0.44D-02  0.46D-02  1  1     0.92
   2      1.24749855    -0.71906824  -225.76158469    -0.00331006    -0.02058419  0.13D-03  0.82D-03  2  2     1.60
   3      1.25646823    -0.71975599  -225.76227244    -0.00068775    -0.00431001  0.10D-03  0.59D-04  3  3     2.29
   4      1.26019380    -0.71974680  -225.76226325     0.00000919    -0.00126836  0.77D-05  0.10D-04  4  4     2.97
   5      1.26162691    -0.71976646  -225.76228291    -0.00001966    -0.00032471  0.14D-05  0.17D-05  5  5     3.64
   6      1.26202696    -0.71973876  -225.76225521     0.00002770    -0.00004720  0.78D-07  0.36D-06  6  6     4.33
   7      1.26211751    -0.71973691  -225.76225336     0.00000185    -0.00000216  0.20D-07  0.96D-07  6  2     5.02
   8      1.26213993    -0.71973699  -225.76225344    -0.00000008     0.00000224  0.86D-08  0.24D-07  6  5     5.71
   9      1.26213513    -0.71973785  -225.76225430    -0.00000087     0.00000163  0.17D-08  0.27D-08  6  1     6.39
  10      1.26213506    -0.71973812  -225.76225457    -0.00000027    -0.00000144  0.39D-09  0.30D-09  6  3     7.08
  11      1.26213354    -0.71973839  -225.76225484    -0.00000027     0.00000088  0.78D-10  0.49D-10  6  4     7.76
  12      1.26213281    -0.71973845  -225.76225490    -0.00000006     0.00000022  0.19D-10  0.11D-10  6  6     8.44
  13      1.26213207    -0.71973848  -225.76225493    -0.00000003     0.00000017  0.37D-11  0.17D-11  6  2     9.13
  14      1.26213170    -0.71973850  -225.76225495    -0.00000002     0.00000012  0.88D-12  0.49D-12  6  1     9.81
  15      1.26213144    -0.71973851  -225.76225496    -0.00000001     0.00000005  0.20D-12  0.82D-13  6  5    10.49
  16      1.26213137    -0.71973851  -225.76225497    -0.00000000     0.00000001  0.12D-12  0.35D-13  6  3    11.17
  17      1.26213134    -0.71973852  -225.76225497    -0.00000000     0.00000001  0.71D-13  0.14D-13  6  4    11.85
  18      1.26213132    -0.71973852  -225.76225497    -0.00000000    -0.00000000  0.43D-13  0.54D-14  6  6    12.54
  19      1.26213132    -0.71973852  -225.76225497     0.00000000    -0.00000000  0.17D-13  0.25D-14  6  2    13.22
  20      1.26213132    -0.71973852  -225.76225497     0.00000000     0.00000000  0.58D-14  0.16D-14  6  1    13.91
  21      1.26213133    -0.71973852  -225.76225497     0.00000000    -0.00000000  0.12D-14  0.81D-15  6  3    14.59
  22      1.26213133    -0.71973852  -225.76225497     0.00000000     0.00000000  0.18D-15  0.19D-15  6  5    15.28
  23      1.26213133    -0.71973852  -225.76225497     0.00000000    -0.00000000  0.50D-16  0.60D-16  6  4    15.97
  24      1.26213133    -0.71973852  -225.76225497    -0.00000000     0.00000000  0.30D-17  0.13D-16  6  6    16.65
  25      1.26213133    -0.71973852  -225.76225497     0.00000000    -0.00000000  0.98D-18  0.35D-17  6  2    17.33
  26      1.26213133    -0.71973852  -225.76225497     0.00000000    -0.00000000  0.16D-18  0.35D-18  6  5    18.02
  27      1.26213133    -0.71973852  -225.76225497    -0.00000000    -0.00000000  0.91D-19  0.62D-19  6  1    18.70
  28      1.26213133    -0.71973852  -225.76225497     0.00000000    -0.00000000  0.18D-19  0.82D-20  6  3    19.39
  29      1.26213133    -0.71973852  -225.76225497     0.00000000    -0.00000000  0.58D-20  0.18D-20  6  4    20.07
  30      1.26213133    -0.71973852  -225.76225497     0.00000000    -0.00000000  0.35D-20  0.69D-21  6  6    20.75
  31      1.26213133    -0.71973852  -225.76225497     0.00000000    -0.00000000  0.13D-20  0.23D-21  6  2    21.43

 Norm of t1 vector:      0.10010721      S-energy:     0.00000000      T1 diagnostic:  0.01388237
                                                                       D1 diagnostic:  0.05077341

 Doubles amplitudes (print threshold =  0.500E-01):

         I         J         SYM. A    SYM. B    A         B      T(IJ, AB)

         7         7         1         1         1         1     -0.06136168
        11         7         1         1         1         1     -0.06605180
        11        11         1         1         1         1     -0.09580887


 Total CPU time for triples:      6.17 sec


 RESULTS
 =======

  Reference energy                   -225.042516450572
  CCSD singlet pair energy             -0.499042586200
  CCSD triplet pair energy             -0.220695930248
  CCSD correlation energy              -0.719738516447

  Triples (T) contribution             -0.021674032369
  Total correlation energy             -0.741412548816

  CCSD total energy                  -225.762254967019
  CCSD[T] energy                     -225.785304268038
  CCSD-T energy                      -225.783525506586
 !CCSD(T) total energy               -225.783928999388

 Timing summary (sec):

 STEP                 CPU(USER)    SYS     CPU(TOT)    WALL
 Transformation          0.26      0.04      0.30      0.31
 CCSD iterations        21.17      0.70     21.87     22.00
 Triples                 6.17      0.16      6.33      6.32

 Program statistics:

 Available memory in ccsd:               999999224
 Min. memory needed in ccsd:               1143606
 Max. memory used in ccsd:                 1480488
 Max. memory used in cckext:               1471436 (31 integral passes)



 **********************************************************************************************************************************
 DATASETS  * FILE   NREC   LENGTH (MB)   RECORD NAMES
              1      20       73.64       500      610      700      900      950      970     1000      129      960     1100   
                                          VAR    BASINP    GEOM    SYMINP    ZMAT    AOBASIS   BASIS     P2S    ABASIS      S 
                                         1400     1410     1200     1210     1080     1600     1650     1300     1700     1380   
                                           T        V       H0       H01     AOSYM     SMH    MOLCAS    ERIS     OPER     JKOP   

              2       3        0.57       700     1000     2100   
                                         GEOM     BASIS     RHF  

 PROGRAMS   *        TOTAL   CCSD(T)       RHF       INT
 CPU TIMES  *        29.55     27.61      1.19      0.71
 REAL TIME  *        31.04 SEC
 DISK USED  *       197.16 MB      
 GA USED    *         0.00 MB       (max)       0.00 MB       (current)
 **********************************************************************************************************************************

        CCSD(T)         RHF-SCF 
   -225.78392900   -225.04251645
 **********************************************************************************************************************************
 Variable memory released
