
 Primary working directories    : /tmp/879303.648.gen6.q
 Secondary working directories  : /tmp/879303.648.gen6.q
 Wavefunction directory         : /home/vulcan/lo21740/wfu/
 Main file repository           : /tmp/879303.648.gen6.q/

 ARCHNAME  : Linux/x86_64
 FC        : /opt/intel/compilers_and_libraries_2016.1.150/linux/bin/intel64/ifort
 FCVERSION : 16.0.1
 BLASLIB   : -mkl
 id        : ccgc

 Nodes     nprocs
 n081         1
 ga_uses_ma=false, calling ma_init with nominal heap.
 GA-space will be limited to   8.0 MW (determined by -G option)

 Using customized tuning parameters: mindgm=10; mindgv=16; mindgc=4; mindgr=1; noblas=0; mincuda=1000; minvec=7
 default implementation of scratch files=df  

 ***,Optimization of formamide
 memory,1000,m
 gthresh,energy=1.0d-12,orbital=1.0d-10,oneint=1.0d-16,twoint=1.0d-16,optgrad=1.0d-6,compress=1.0d-13
 geomtyp=xyz
 
 bohr
 geometry = {
  C   -3.8261675230    0.0880406075    0.0000000000
  O   -2.7309752253    2.1378407188   -0.0000000000
  N   -2.6823860492   -2.1756151911   -0.0000000000
  H   -3.7442272952   -3.7509141161    0.0000000000
  H   -0.7496884552   -2.3062680916   -0.0000000000
  H   -5.8994893930   -0.0270705594   -0.0000000000
  C    3.8233349632   -0.0828927480    0.0000000000
  O    2.7304627302   -2.1408443350    0.0000000000
  N    2.6815043892    2.1791654658   -0.0000000000
  H    3.7444919976    3.7488984576   -0.0000000000
  H    0.7519703869    2.3041068703   -0.0000000000
  H    5.9011694740    0.0255529211    0.0000000000
 }
 
 basis=AVDZ, H=VDZ
 {rhf;maxit,200}
 {ccsd(t);maxit,200}

 Variables initialized (661), CPU time= 0.01 sec
 Commands  initialized (458), CPU time= 0.00 sec, 486 directives.
 Default parameters read. Elapsed time= 0.05 sec

 Checking input...
 Passed
1


                                         ***  PROGRAM SYSTEM MOLPRO  ***
                         Copyright, University College Cardiff Consultants Limited, 2008

                                    Version 2010.1 linked May 16 2016 07:17:05


 **********************************************************************************************************************************
 LABEL *   Optimization of formamide                                                     
 Linux-4.4.3/n081(x86_64) 64 bit mpp version                                             DATE: 23-May-23          TIME: 18:17:08  
 **********************************************************************************************************************************

 SHA1:             9e8077add272b0f3cad6f7df79ec5211205f459d
 **********************************************************************************************************************************

 THRESHOLDS:

 ZERO    =  1.00D-12  ONEINT  =  1.00D-16  TWOINT  =  1.00D-16  PREFAC  =  1.00D-14  LOCALI  =  1.00D-09  EORDER  =  1.00D-04
 ENERGY  =  1.00D-12  ETEST   =  0.00D+00  EDENS   =  0.00D+00  THRDEDEF=  1.00D-06  GRADIENT=  1.00D-02  STEP    =  1.00D-03
 ORBITAL =  1.00D-10  CIVEC   =  1.00D-05  COEFF   =  1.00D-04  PRINTCI =  5.00D-02  PUNCHCI =  9.90D+01  OPTGRAD =  1.00D-06
 OPTENERG=  1.00D-06  OPTSTEP =  3.00D-04  THRGRAD =  1.00D-10  COMPRESS=  1.00D-13  VARMIN  =  1.00D-07  VARMAX  =  1.00D-03
 THRDOUB =  0.00D+00  THRDIV  =  1.00D-05  THRRED  =  1.00D-07  THRPSP  =  1.00D+00  THRDC   =  1.00D-10  THRCS   =  1.00D-10
 THRNRM  =  1.00D-08  THREQ   =  0.00D+00  THRDE   =  1.00D+00  THRREF  =  1.00D-05  SPARFAC =  1.00D+00  THRDLP  =  1.00D-07
 THRDIA  =  1.00D-10  THRDLS  =  1.00D-07  THRGPS  =  0.00D+00  THRKEX  =  0.00D+00  THRDIS  =  2.00D-01  THRVAR  =  1.00D-10
 THRLOC  =  1.00D-06  THRGAP  =  1.00D-06  THRLOCT = -1.00D+00  THRGAPT = -1.00D+00  THRORB  =  1.00D-06  THRMLTP =  0.00D+00
 THRCPQCI=  1.00D-10  KEXTA   =  0.00D+00  THRCOARS=  0.00D+00  SYMTOL  =  1.00D-06  GRADTOL =  1.00D-06  THROVL  =  1.00D-08
 THRORTH =  1.00D-08  GRID    =  1.00D-06  GRIDMAX =  1.00D-03  DTMAX   =  0.00D+00

 SETTING GEOMTYP        =    XYZ
 ZUNIT=BOHR
 

 Variable memory set to 1000000000 words,  buffer space   230000 words

 SETTING BASIS          =    AVDZ,H=VDZ


 Recomputing integrals since basis changed


 Using spherical harmonics

 Library entry C      S aug-cc-pVDZ          selected for orbital group  1
 Library entry C      P aug-cc-pVDZ          selected for orbital group  1
 Library entry C      D aug-cc-pVDZ          selected for orbital group  1
 Library entry O      S aug-cc-pVDZ          selected for orbital group  2
 Library entry O      P aug-cc-pVDZ          selected for orbital group  2
 Library entry O      D aug-cc-pVDZ          selected for orbital group  2
 Library entry N      S aug-cc-pVDZ          selected for orbital group  3
 Library entry N      P aug-cc-pVDZ          selected for orbital group  3
 Library entry N      D aug-cc-pVDZ          selected for orbital group  3
 Library entry H      S cc-pVDZ              selected for orbital group  4
 Library entry H      P cc-pVDZ              selected for orbital group  4

1PROGRAM * SEWARD (Integral evaluation for generally contracted gaussian basis sets)     Author: Roland Lindh, 1990

 Geometry written to block  1 of record 700


 Point group  Cs  



 ATOMIC COORDINATES

 NR  ATOM    CHARGE       X              Y              Z

   1  C       6.00   -3.826167523    0.088040608    0.000000000
   2  O       8.00   -2.730975225    2.137840719    0.000000000
   3  N       7.00   -2.682386049   -2.175615191    0.000000000
   4  H       1.00   -3.744227295   -3.750914116    0.000000000
   5  H       1.00   -0.749688455   -2.306268092    0.000000000
   6  H       1.00   -5.899489393   -0.027070559    0.000000000
   7  C       6.00    3.823334963   -0.082892748    0.000000000
   8  O       8.00    2.730462730   -2.140844335    0.000000000
   9  N       7.00    2.681504389    2.179165466    0.000000000
  10  H       1.00    3.744491998    3.748898458    0.000000000
  11  H       1.00    0.751970387    2.304106870    0.000000000
  12  H       1.00    5.901169474    0.025552921    0.000000000

 Bond lengths in Bohr (Angstrom)

 1-2  2.324032415  1-3  2.536212458  1-6  2.076514907  3-4  1.899756178  3-5  1.937108714
     ( 1.229824987)     ( 1.342105830)     ( 1.098844363)     ( 1.005307672)     ( 1.025073783)

  7- 8  2.330136145   7- 9  2.533906948   7-12  2.080662567   9-10  1.895785938   9-11  1.933574881
       ( 1.233054942)       ( 1.340885807)       ( 1.101039210)       ( 1.003206711)       ( 1.023203759)

 Bond angles

  1-3-4  119.21119807   1-3-5  120.67397275   2-1-3  125.07816889   2-1-6  121.29305285

  3- 1- 6  113.62877826   4- 3- 5  120.11482919   7- 9-10  119.11152738   7- 9-11  120.48835620

  8- 7- 9  125.24602193   8- 7-12  120.95812457   9- 7-12  113.79585349  10- 9-11  120.40011641

 NUCLEAR CHARGE:                   48
 NUMBER OF PRIMITIVE AOS:         264
 NUMBER OF SYMMETRY AOS:          252
 NUMBER OF CONTRACTIONS:          168   ( 120A'  +  48A"  )
 NUMBER OF CORE ORBITALS:           6   (   6A'  +   0A"  )
 NUMBER OF VALENCE ORBITALS:       30   (  24A'  +   6A"  )


 NUCLEAR REPULSION ENERGY  230.56749052


 Eigenvalues of metric

         1 0.415E-03 0.624E-03 0.114E-02 0.134E-02 0.161E-02 0.168E-02 0.365E-02 0.437E-02
         2 0.210E-01 0.255E-01 0.333E-01 0.381E-01 0.522E-01 0.591E-01 0.104E+00 0.140E+00


 Contracted 2-electron integrals neglected if value below      1.0D-16
 AO integral compression algorithm  1   Integral accuracy      1.0D-16

     435.683 MB (compressed) written to integral file ( 92.7%)

     Node minimum: 435.683 MB, node maximum: 435.683 MB


 NUMBER OF SORTED TWO-ELECTRON INTEGRALS:   52662786.     BUFFER LENGTH:  32768
 NUMBER OF SEGMENTS:   4  SEGMENT LENGTH:   15997996      RECORD LENGTH: 524288

 Memory used in sort:      16.56 MW

 SORT1 READ    58802937. AND WROTE    51997194. INTEGRALS IN    151 RECORDS. CPU TIME:     0.62 SEC, REAL TIME:     0.90 SEC
 SORT2 READ    51997194. AND WROTE    52662786. INTEGRALS IN   1662 RECORDS. CPU TIME:     0.43 SEC, REAL TIME:     0.61 SEC

 FILE SIZES:   FILE 1:   399.8 MBYTE,  FILE 4:   633.4 MBYTE,   TOTAL:   1033.1 MBYTE

 OPERATOR DM      FOR CENTER  0  COORDINATES:    0.000000    0.000000    0.000000


 **********************************************************************************************************************************
 DATASETS  * FILE   NREC   LENGTH (MB)   RECORD NAMES
              1      19      399.94       500      610      700      900      950      970     1000      129      960     1100   
                                          VAR    BASINP    GEOM    SYMINP    ZMAT    AOBASIS   BASIS     P2S    ABASIS      S 
                                         1400     1410     1200     1210     1080     1600     1650     1300     1700   
                                           T        V       H0       H01     AOSYM     SMH    MOLCAS    ERIS     OPER   

 PROGRAMS   *        TOTAL       INT
 CPU TIMES  *         5.01      4.97
 REAL TIME  *         5.88 SEC
 DISK USED  *         1.47 GB      
 GA USED    *         0.00 MB       (max)       0.00 MB       (current)
 **********************************************************************************************************************************

1PROGRAM * RHF-SCF (CLOSED SHELL)       Authors: W. Meyer, H.-J. Werner


 NUMBER OF ELECTRONS:      24+   24-
 CONVERGENCE THRESHOLDS:    1.00E-10 (Density)    1.00E-13 (Energy)
 MAX. NUMBER OF ITERATIONS:      200
 INTERPOLATION TYPE:            DIIS
 INTERPOLATION STEPS:              2 (START)      1 (STEP)
 LEVEL SHIFTS:                  0.00 (CLOSED)  0.00 (OPEN) 



 Orbital guess generated from atomic densities. Full valence occupancy:   30   6

 Molecular orbital dump at record        2100.2

 Initial alpha occupancy:  20   4
 Initial beta  occupancy:  20   4
 Wave function symmetry:    1

 ITERATION    DDIFF          GRAD             ENERGY        2-EL.EN.            DIPOLE MOMENTS         DIIS
    1      0.000D+00      0.000D+00      -337.80401174    704.794595    0.00185    0.01525    0.00000    0
    2      0.000D+00      0.834D-02      -337.88146001    699.186151    0.00201    0.00592    0.00000    1
    3      0.159D-01      0.608D-02      -337.93920470    701.926753    0.00208    0.01151    0.00000    2
    4      0.630D-02      0.803D-03      -337.94141119    701.830696    0.00154    0.01010    0.00000    3
    5      0.139D-02      0.276D-03      -337.94167659    701.764664    0.00175    0.01097    0.00000    4
    6      0.497D-03      0.903D-04      -337.94173702    701.790192    0.00160    0.01057    0.00000    5
    7      0.214D-03      0.400D-04      -337.94174782    701.781465    0.00168    0.01090    0.00000    6
    8      0.106D-03      0.119D-04      -337.94174874    701.786810    0.00159    0.01058    0.00000    7
    9      0.326D-04      0.396D-05      -337.94174881    701.784784    0.00167    0.01087    0.00000    8
   10      0.872D-05      0.162D-05      -337.94174883    701.784728    0.00162    0.01071    0.00000    8
   11      0.389D-05      0.650D-06      -337.94174883    701.785010    0.00164    0.01077    0.00000    8
   12      0.118D-05      0.172D-06      -337.94174883    701.784956    0.00164    0.01076    0.00000    8
   13      0.468D-06      0.469D-07      -337.94174883    701.784944    0.00164    0.01076    0.00000    8
   14      0.109D-06      0.201D-07      -337.94174883    701.784951    0.00164    0.01076    0.00000    8
   15      0.448D-07      0.362D-08      -337.94174883    701.784951    0.00164    0.01076    0.00000    8
   16      0.973D-08      0.922D-09      -337.94174883    701.784950    0.00164    0.01076    0.00000    8
   17      0.203D-08      0.279D-09      -337.94174883    701.784950    0.00164    0.01076    0.00000    7
   18      0.564D-09      0.783D-10      -337.94174883    701.784950    0.00164    0.01076    0.00000    7
   19      0.189D-09      0.225D-10      -337.94174883    701.784950    0.00164    0.01076    0.00000    7
   20      0.423D-10      0.136D-10      -337.94174883    701.784950    0.00164    0.01076    0.00000    8
   21      0.247D-10      0.385D-11      -337.94174883    701.784950    0.00164    0.01076    0.00000    7
   22      0.951D-11      0.214D-11      -337.94174883    701.784950    0.00164    0.01076    0.00000    0

 Final occupancy:  20   4

 !RHF STATE 1.1 Energy               -337.941748828223
 Nuclear energy                       230.56749052
 One-electron energy                 -919.40171451
 Two-electron energy                  350.89247517
 Virial quotient                       -1.00173565
 !RHF STATE 1.1 Dipole moment           0.00163711     0.01076250     0.00000000
 Dipole moment /Debye                   0.00416084     0.02735375     0.00000000

 Orbital energies:

         1.1          2.1          3.1          4.1          5.1          6.1          7.1          8.1          9.1         10.1
    -20.540680   -20.540555   -15.589904   -15.589162   -11.368391   -11.367795    -1.389429    -1.384298    -1.219430    -1.213026

        11.1         12.1         13.1         14.1         15.1         16.1         17.1         18.1         19.1         20.1
     -0.861048    -0.835884    -0.750303    -0.741325    -0.705781    -0.645128    -0.619066    -0.593543    -0.454283    -0.428967

        21.1         22.1
      0.067931     0.068760

         1.2          2.2          3.2          4.2          5.2          6.2
     -0.574000    -0.565931    -0.420517    -0.409936     0.093986     0.104167


 **********************************************************************************************************************************
 DATASETS  * FILE   NREC   LENGTH (MB)   RECORD NAMES
              1      19      399.94       500      610      700      900      950      970     1000      129      960     1100   
                                          VAR    BASINP    GEOM    SYMINP    ZMAT    AOBASIS   BASIS     P2S    ABASIS      S 
                                         1400     1410     1200     1210     1080     1600     1650     1300     1700   
                                           T        V       H0       H01     AOSYM     SMH    MOLCAS    ERIS     OPER   

              2       3        0.80       700     1000     2100   
                                         GEOM     BASIS     RHF  

 PROGRAMS   *        TOTAL       RHF       INT
 CPU TIMES  *        10.57      5.56      4.97
 REAL TIME  *        12.27 SEC
 DISK USED  *         1.47 GB      
 GA USED    *         0.00 MB       (max)       0.00 MB       (current)
 **********************************************************************************************************************************


1PROGRAM * CCSD (Closed-shell coupled cluster)     Authors: C. Hampel, H.-J. Werner, 1991, M. Deegan, P.J. Knowles, 1992


 Convergence thresholds:  THRVAR = 1.00D-08  THRDEN = 1.00D-12

 CCSD(T)     terms to be evaluated (factor= 1.000)


 Number of core orbitals:           6 (   6   0 )
 Number of closed-shell orbitals:  18 (  14   4 )
 Number of external orbitals:     144 ( 100  44 )

 Molecular orbitals read from record     2100.2  Type=RHF/CANONICAL (state 1.1)

 Number of N-1 electron functions:              18
 Number of N-2 electron functions:             171
 Number of singly external CSFs:              1576
 Number of doubly external CSFs:           1759312
 Total number of CSFs:                     1760889

 Length of J-op  integral file:               0.00 MB
 Length of K-op  integral file:               1.19 MB
 Length of 3-ext integral record:             0.00 MB

 Memory could be reduced to 36.48 Mwords without degradation in triples

 Integral transformation finished. Total CPU:   1.65 sec, npass=  1  Memory used:  15.90 MW

 Reference energy:                   -337.94174883

 MP2 singlet pair energy:              -0.61947178
 MP2 triplet pair energy:              -0.40479702
 MP2 correlation energy:               -1.02426880
 MP2 total energy:                   -338.96601763

 SCS-MP2 correlation energy:           -0.99523984   (PS=  1.200000  PT=  0.333333)
 SCS-MP2 total energy:               -338.93698866

 ITER.      SQ.NORM     CORR.ENERGY   TOTAL ENERGY   ENERGY CHANGE        DEN1      VAR(S)    VAR(P)  DIIS     TIME
   1      1.31854918    -1.05297740  -338.99472622    -0.02870860     0.00237360  0.10D-01  0.60D-02  1  1     5.61
   2      1.34396624    -1.05492345  -338.99667228    -0.00194605    -0.02584718  0.22D-03  0.11D-02  2  2     9.66
   3      1.35651656    -1.05581654  -338.99756537    -0.00089309    -0.00553450  0.22D-03  0.51D-04  3  3    13.73
   4      1.36170088    -1.05555315  -338.99730198     0.00026339    -0.00168315  0.21D-04  0.92D-05  4  4    17.80
   5      1.36381887    -1.05549679  -338.99724562     0.00005636    -0.00044196  0.26D-05  0.11D-05  5  5    21.86
   6      1.36432583    -1.05546741  -338.99721624     0.00002939    -0.00004740  0.24D-06  0.17D-06  6  6    25.94
   7      1.36445291    -1.05545552  -338.99720435     0.00001189    -0.00000759  0.32D-07  0.22D-07  6  2    29.98
   8      1.36447697    -1.05545537  -338.99720420     0.00000015     0.00000001  0.58D-08  0.26D-08  6  1    34.03
   9      1.36447933    -1.05545507  -338.99720390     0.00000030     0.00000183  0.92D-09  0.46D-09  6  4    38.11
  10      1.36448341    -1.05545501  -338.99720384     0.00000006    -0.00000043  0.26D-09  0.46D-10  6  3    42.19
  11      1.36448364    -1.05545508  -338.99720391    -0.00000007     0.00000015  0.39D-10  0.11D-10  6  5    46.27
  12      1.36448345    -1.05545510  -338.99720393    -0.00000002     0.00000009  0.51D-11  0.27D-11  6  6    50.32
  13      1.36448315    -1.05545514  -338.99720396    -0.00000004     0.00000013  0.80D-12  0.34D-12  6  2    54.39
  14      1.36448299    -1.05545514  -338.99720397    -0.00000001     0.00000004  0.10D-12  0.67D-13  6  1    58.46
  15      1.36448293    -1.05545515  -338.99720398    -0.00000000     0.00000001  0.20D-13  0.13D-13  6  4    62.52
  16      1.36448290    -1.05545515  -338.99720398    -0.00000000     0.00000000  0.36D-14  0.20D-14  6  3    66.59
  17      1.36448289    -1.05545515  -338.99720398    -0.00000000    -0.00000000  0.84D-15  0.34D-15  6  5    70.66
  18      1.36448288    -1.05545515  -338.99720398    -0.00000000     0.00000000  0.11D-15  0.78D-16  6  6    74.73
  19      1.36448288    -1.05545515  -338.99720398    -0.00000000     0.00000000  0.31D-16  0.12D-16  6  2    78.79
  20      1.36448288    -1.05545515  -338.99720398    -0.00000000     0.00000000  0.48D-17  0.19D-17  6  1    82.85
  21      1.36448288    -1.05545515  -338.99720398    -0.00000000     0.00000000  0.78D-18  0.51D-18  6  4    86.91
  22      1.36448288    -1.05545515  -338.99720398    -0.00000000     0.00000000  0.27D-18  0.11D-18  6  3    90.98
  23      1.36448288    -1.05545515  -338.99720398    -0.00000000     0.00000000  0.64D-19  0.20D-19  6  5    95.04
  24      1.36448288    -1.05545515  -338.99720398    -0.00000000    -0.00000000  0.13D-19  0.53D-20  6  6    99.12
  25      1.36448288    -1.05545515  -338.99720398    -0.00000000    -0.00000000  0.34D-20  0.11D-20  6  4   103.19
  26      1.36448288    -1.05545515  -338.99720398     0.00000000    -0.00000000  0.30D-21  0.16D-21  6  2   107.25

 Norm of t1 vector:      0.14788389      S-energy:     0.00000000      T1 diagnostic:  0.01742828
                                                                       D1 diagnostic:  0.05899801


 Total CPU time for triples:     90.85 sec


 RESULTS
 =======

  Reference energy                   -337.941748828223
  CCSD singlet pair energy             -0.696566100745
  CCSD triplet pair energy             -0.358889050575
  CCSD correlation energy              -1.055455151320

  Triples (T) contribution             -0.039248498171
  Total correlation energy             -1.094703649491

  CCSD total energy                  -338.997203979543
  CCSD[T] energy                     -339.039643936382
  CCSD-T energy                      -339.035357505223
 !CCSD(T) total energy               -339.036452477714

 Timing summary (sec):

 STEP                 CPU(USER)    SYS     CPU(TOT)    WALL
 Transformation          1.71      0.18      1.89      1.88
 CCSD iterations       105.54      3.13    108.67    108.75
 Triples                90.85      2.41     93.26     93.28

 Program statistics:

 Available memory in ccsd:               999998604
 Min. memory needed in ccsd:               4522204
 Max. memory used in ccsd:                 6130884
 Max. memory used in cckext:               6038575 (26 integral passes)



 **********************************************************************************************************************************
 DATASETS  * FILE   NREC   LENGTH (MB)   RECORD NAMES
              1      20      544.15       500      610      700      900      950      970     1000      129      960     1100   
                                          VAR    BASINP    GEOM    SYMINP    ZMAT    AOBASIS   BASIS     P2S    ABASIS      S 
                                         1400     1410     1200     1210     1080     1600     1650     1300     1700     1380   
                                           T        V       H0       H01     AOSYM     SMH    MOLCAS    ERIS     OPER     JKOP   

              2       3        0.80       700     1000     2100   
                                         GEOM     BASIS     RHF  

 PROGRAMS   *        TOTAL   CCSD(T)       RHF       INT
 CPU TIMES  *       208.68    198.11      5.56      4.97
 REAL TIME  *       216.22 SEC
 DISK USED  *         1.47 GB      
 GA USED    *         0.00 MB       (max)       0.00 MB       (current)
 **********************************************************************************************************************************

        CCSD(T)         RHF-SCF 
   -339.03645248   -337.94174883
 **********************************************************************************************************************************
 Variable memory released
