
 Primary working directories    : /tmp/1049102.1551.gen4.q
 Secondary working directories  : /tmp/1049102.1551.gen4.q
 Wavefunction directory         : /home/vulcan/mel64643/wfu/
 Main file repository           : /tmp/1049102.1551.gen4.q/

 ARCHNAME  : Linux/x86_64
 FC        : /opt/intel/compilers_and_libraries_2016.1.150/linux/bin/intel64/ifort
 FCVERSION : 16.0.1
 BLASLIB   : -mkl
 id        : ccgc

 Nodes     nprocs
 n065         1
 ga_uses_ma=false, calling ma_init with nominal heap.
 GA-space will be limited to   8.0 MW (determined by -G option)

 Using customized tuning parameters: mindgm=10; mindgv=16; mindgc=4; mindgr=1; noblas=0; mincuda=1000; minvec=7
 default implementation of scratch files=df  

 ***,Optimization of h2o_3
 memory,1000,m
 gthresh,energy=1.0d-12,orbital=1.0d-10,oneint=1.0d-16,twoint=1.0d-16,optgrad=1.0d-6,compress=1.0d-13
 geomtyp=xyz
 
 
 
 bohr
 geometry = {
  C    0.9139607878    1.4044649231   -2.2730494679
  C    0.7392555816    2.7090552904    0.0180696417
  C    0.9994482522    1.4065454685    2.3024099527
  C    1.4327479641   -1.2006072178    2.2956333277
  C    1.6081804109   -2.5047059784    0.0045557979
  C    1.3480462906   -1.2019724261   -2.2795805019
  H    0.7031947768    2.4130020815   -4.0430926109
  H    0.3879330473    4.7265350018    0.0233757891
  H    0.8587992854    2.4171728401    4.0784414096
  H    1.6317827350   -2.2102074787    4.0668433207
  H    1.9419970620   -4.5256353931   -0.0007311378
  H    1.4816031314   -2.2132159913   -4.0560948745
  N   -5.4434238754   -0.3557255067   -0.0642065971
  H   -5.5831102075   -1.5533983138   -1.5566413703
  H   -6.0775621804   -1.3286437956    1.4630259173
  H   -3.5619211948   -0.0744531019    0.2011190805
 }
 
 basis=aug-cc-pvdz, H=cc-pvdz
 {rhf;maxit,200}
 {ccsd(t)}

 Variables initialized (661), CPU time= 0.01 sec
 Commands  initialized (458), CPU time= 0.00 sec, 486 directives.
 Default parameters read. Elapsed time= 0.05 sec

 Checking input...
 Passed
1


                                         ***  PROGRAM SYSTEM MOLPRO  ***
                         Copyright, University College Cardiff Consultants Limited, 2008

                                    Version 2010.1 linked May 16 2016 07:17:05


 **********************************************************************************************************************************
 LABEL *   Optimization of h2o_3                                                         
 Linux-4.4.3/n065(x86_64) 64 bit mpp version                                             DATE: 21-Mar-24          TIME: 08:50:37  
 **********************************************************************************************************************************

 SHA1:             9e8077add272b0f3cad6f7df79ec5211205f459d
 **********************************************************************************************************************************

 THRESHOLDS:

 ZERO    =  1.00D-12  ONEINT  =  1.00D-16  TWOINT  =  1.00D-16  PREFAC  =  1.00D-14  LOCALI  =  1.00D-09  EORDER  =  1.00D-04
 ENERGY  =  1.00D-12  ETEST   =  0.00D+00  EDENS   =  0.00D+00  THRDEDEF=  1.00D-06  GRADIENT=  1.00D-02  STEP    =  1.00D-03
 ORBITAL =  1.00D-10  CIVEC   =  1.00D-05  COEFF   =  1.00D-04  PRINTCI =  5.00D-02  PUNCHCI =  9.90D+01  OPTGRAD =  1.00D-06
 OPTENERG=  1.00D-06  OPTSTEP =  3.00D-04  THRGRAD =  1.00D-10  COMPRESS=  1.00D-13  VARMIN  =  1.00D-07  VARMAX  =  1.00D-03
 THRDOUB =  0.00D+00  THRDIV  =  1.00D-05  THRRED  =  1.00D-07  THRPSP  =  1.00D+00  THRDC   =  1.00D-10  THRCS   =  1.00D-10
 THRNRM  =  1.00D-08  THREQ   =  0.00D+00  THRDE   =  1.00D+00  THRREF  =  1.00D-05  SPARFAC =  1.00D+00  THRDLP  =  1.00D-07
 THRDIA  =  1.00D-10  THRDLS  =  1.00D-07  THRGPS  =  0.00D+00  THRKEX  =  0.00D+00  THRDIS  =  2.00D-01  THRVAR  =  1.00D-10
 THRLOC  =  1.00D-06  THRGAP  =  1.00D-06  THRLOCT = -1.00D+00  THRGAPT = -1.00D+00  THRORB  =  1.00D-06  THRMLTP =  0.00D+00
 THRCPQCI=  1.00D-10  KEXTA   =  0.00D+00  THRCOARS=  0.00D+00  SYMTOL  =  1.00D-06  GRADTOL =  1.00D-06  THROVL  =  1.00D-08
 THRORTH =  1.00D-08  GRID    =  1.00D-06  GRIDMAX =  1.00D-03  DTMAX   =  0.00D+00

 SETTING GEOMTYP        =    XYZ
 ZUNIT=BOHR
 

 Variable memory set to 1000000000 words,  buffer space   230000 words

 SETTING BASIS          =    AUG-CC-PVDZ,H=CC-PVDZ


 Recomputing integrals since basis changed


 Using spherical harmonics

 Library entry C      S aug-cc-pVDZ          selected for orbital group  1
 Library entry C      P aug-cc-pVDZ          selected for orbital group  1
 Library entry C      D aug-cc-pVDZ          selected for orbital group  1
 Library entry H      S cc-pVDZ              selected for orbital group  2
 Library entry H      P cc-pVDZ              selected for orbital group  2
 Library entry N      S aug-cc-pVDZ          selected for orbital group  3
 Library entry N      P aug-cc-pVDZ          selected for orbital group  3
 Library entry N      D aug-cc-pVDZ          selected for orbital group  3

1PROGRAM * SEWARD (Integral evaluation for generally contracted gaussian basis sets)     Author: Roland Lindh, 1990

 Geometry written to block  1 of record 700


 Point group  C1  



 ATOMIC COORDINATES

 NR  ATOM    CHARGE       X              Y              Z

   1  C       6.00    0.913960788    1.404464923   -2.273049468
   2  C       6.00    0.739255582    2.709055290    0.018069642
   3  C       6.00    0.999448252    1.406545469    2.302409953
   4  C       6.00    1.432747964   -1.200607218    2.295633328
   5  C       6.00    1.608180411   -2.504705978    0.004555798
   6  C       6.00    1.348046291   -1.201972426   -2.279580502
   7  H       1.00    0.703194777    2.413002082   -4.043092611
   8  H       1.00    0.387933047    4.726535002    0.023375789
   9  H       1.00    0.858799285    2.417172840    4.078441410
  10  H       1.00    1.631782735   -2.210207479    4.066843321
  11  H       1.00    1.941997062   -4.525635393   -0.000731138
  12  H       1.00    1.481603131   -2.213215991   -4.056094875
  13  N       7.00   -5.443423875   -0.355725507   -0.064206597
  14  H       1.00   -5.583110207   -1.553398314   -1.556641370
  15  H       1.00   -6.077562180   -1.328643796    1.463025917
  16  H       1.00   -3.561921195   -0.074453102    0.201119080

 Bond lengths in Bohr (Angstrom)

 1-2  2.642291564  1-6  2.642345271  1-7  2.048077694  2-3  2.642431214  2-8  2.047847666
     ( 1.398240475)     ( 1.398268896)     ( 1.083796038)     ( 1.398314375)     ( 1.083674312)

  3- 4  2.642922567   3- 9  2.048276727   4- 5  2.642061008   4-10  2.048436566   5- 6  2.642359382
       ( 1.398574387)       ( 1.083901362)       ( 1.398118470)       ( 1.083985945)       ( 1.398276363)

  5-11  2.048320582   6-12  2.048524907  13-14  1.918669846  13-15  1.918629860  13-16  1.920823838
       ( 1.083924569)       ( 1.084032693)       ( 1.015316354)       ( 1.015295194)       ( 1.016456198)

 Bond angles

  1- 2- 3  119.98067262   1- 2- 8  120.00017341   1- 6- 5  120.02353239   1- 6-12  119.98613464

  2-1-6  120.00199113   2-1-7  119.96358318   2-3-4  120.01167878   2-3-9  119.97429906

  3- 2- 8  120.01747696   3- 4- 5  120.00136303   3- 4-10  119.99378370   4- 3- 9  120.01369044

  4- 5- 6  119.98073411   4- 5-11  120.00333292   5- 4-10  120.00484856   5- 6-12  119.99031843

  6- 1- 7  120.03368579   6- 5-11  120.01581896  14-13-15  106.17487617  14-13-16  105.67409299

 15-13-16  106.74139324

 NUCLEAR CHARGE:                   52
 NUMBER OF PRIMITIVE AOS:         322
 NUMBER OF SYMMETRY AOS:          308
 NUMBER OF CONTRACTIONS:          206   ( 206A   )
 NUMBER OF CORE ORBITALS:           7   (   7A   )
 NUMBER OF VALENCE ORBITALS:       37   (  37A   )


 NUCLEAR REPULSION ENERGY  273.70942576


 Eigenvalues of metric

         1 0.861E-05 0.184E-04 0.228E-04 0.532E-04 0.643E-04 0.644E-04 0.107E-03 0.107E-03


 Contracted 2-electron integrals neglected if value below      1.0D-16
 AO integral compression algorithm  1   Integral accuracy      1.0D-16

     1892.680 MB (compressed) written to integral file ( 94.5%)

     Node minimum: 1892.680 MB, node maximum: 1892.680 MB


 NUMBER OF SORTED TWO-ELECTRON INTEGRALS:  227303181.     BUFFER LENGTH:  32768
 NUMBER OF SEGMENTS:  15  SEGMENT LENGTH:   15999503      RECORD LENGTH: 524288

 Memory used in sort:      16.56 MW

 SORT1 READ   250229779. AND WROTE   226406994. INTEGRALS IN    654 RECORDS. CPU TIME:     2.39 SEC, REAL TIME:     3.96 SEC
 SORT2 READ   226406994. AND WROTE   227303181. INTEGRALS IN   7220 RECORDS. CPU TIME:     1.40 SEC, REAL TIME:     2.36 SEC

 FILE SIZES:   FILE 1:  1743.4 MBYTE,  FILE 4:  2743.1 MBYTE,   TOTAL:   4486.5 MBYTE

 OPERATOR DM      FOR CENTER  0  COORDINATES:    0.000000    0.000000    0.000000


 **********************************************************************************************************************************
 DATASETS  * FILE   NREC   LENGTH (MB)   RECORD NAMES
              1      19     1743.87       500      610      700      900      950      970     1000      129      960     1100   
                                          VAR    BASINP    GEOM    SYMINP    ZMAT    AOBASIS   BASIS     P2S    ABASIS      S 
                                         1400     1410     1200     1210     1080     1600     1650     1300     1700   
                                           T        V       H0       H01     AOSYM     SMH    MOLCAS    ERIS     OPER   

 PROGRAMS   *        TOTAL       INT
 CPU TIMES  *        14.61     14.57
 REAL TIME  *        18.57 SEC
 DISK USED  *         6.38 GB      
 GA USED    *         0.01 MB       (max)       0.00 MB       (current)
 **********************************************************************************************************************************

1PROGRAM * RHF-SCF (CLOSED SHELL)       Authors: W. Meyer, H.-J. Werner


 NUMBER OF ELECTRONS:      26+   26-    SPACE SYMMETRY=1    SPIN SYMMETRY: Singlet 
 CONVERGENCE THRESHOLDS:    1.00E-10 (Density)    1.00E-13 (Energy)
 MAX. NUMBER OF ITERATIONS:      200
 INTERPOLATION TYPE:            DIIS
 INTERPOLATION STEPS:              2 (START)      1 (STEP)
 LEVEL SHIFTS:                  0.00 (CLOSED)  0.00 (OPEN) 



 Orbital guess generated from atomic densities. Full valence occupancy:   44

 Molecular orbital dump at record        2100.2

 ITERATION    DDIFF          GRAD             ENERGY        2-EL.EN.            DIPOLE MOMENTS         DIIS
    1      0.000D+00      0.000D+00      -286.85324315    740.879326    0.52013   -0.76918    0.12691    0
    2      0.000D+00      0.322D-02      -286.92079965    735.090387    0.43555   -0.38474    0.05946    1
    3      0.826D-02      0.133D-02      -286.93012636    737.721579    0.45215   -0.52356    0.08698    2
    4      0.218D-02      0.381D-03      -286.93134426    737.201930    0.45072   -0.49672    0.07994    3
    5      0.783D-03      0.526D-04      -286.93136806    737.190689    0.45655   -0.50686    0.08363    4
    6      0.135D-03      0.176D-04      -286.93137048    737.205595    0.45539   -0.50134    0.08169    5
    7      0.511D-04      0.553D-05      -286.93137076    737.202501    0.45605   -0.50356    0.08240    6
    8      0.149D-04      0.129D-05      -286.93137078    737.201501    0.45620   -0.50320    0.08227    7
    9      0.417D-05      0.542D-06      -286.93137078    737.201958    0.45623   -0.50330    0.08230    7
   10      0.148D-05      0.143D-06      -286.93137078    737.201907    0.45624   -0.50330    0.08229    7
   11      0.517D-06      0.411D-07      -286.93137078    737.201893    0.45625   -0.50330    0.08229    7
   12      0.142D-06      0.175D-07      -286.93137078    737.201907    0.45625   -0.50330    0.08229    8
   13      0.616D-07      0.766D-08      -286.93137078    737.201901    0.45625   -0.50330    0.08229    8
   14      0.342D-07      0.365D-08      -286.93137078    737.201904    0.45625   -0.50330    0.08229    8
   15      0.204D-07      0.138D-08      -286.93137078    737.201903    0.45625   -0.50330    0.08229    8
   16      0.717D-08      0.456D-09      -286.93137078    737.201903    0.45625   -0.50330    0.08229    9
   17      0.213D-08      0.124D-09      -286.93137078    737.201903    0.45625   -0.50330    0.08229    9
   18      0.394D-09      0.381D-10      -286.93137078    737.201903    0.45625   -0.50330    0.08229    8
   19      0.196D-09      0.155D-10      -286.93137078    737.201903    0.45625   -0.50330    0.08229    9
   20      0.162D-09      0.829D-11      -286.93137078    737.201903    0.45625   -0.50330    0.08229    9
   21      0.214D-09      0.408D-11      -286.93137078    737.201903    0.45625   -0.50330    0.08229    9
   22      0.184D-09      0.130D-11      -286.93137078    737.201903    0.45625   -0.50330    0.08229    9
   23      0.132D-09      0.695D-12      -286.93137078    737.201903    0.45625   -0.50330    0.08229    9
   24      0.771D-10      0.653D-12      -286.93137078    737.201903    0.45625   -0.50330    0.08229    9
   25      0.810D-10      0.664D-12      -286.93137078    737.201903    0.45625   -0.50330    0.08229    9
   26      0.440D-10      0.479D-12      -286.93137078    737.201903    0.45625   -0.50330    0.08229    9
   27      0.365D-10      0.469D-12      -286.93137078    737.201903    0.45625   -0.50330    0.08229    9
   28      0.306D-10      0.488D-12      -286.93137078    737.201903    0.45625   -0.50330    0.08229    9
   29      0.183D-10      0.398D-12      -286.93137078    737.201903    0.45625   -0.50330    0.08229    9
   30      0.145D-10      0.575D-12      -286.93137078    737.201903    0.45625   -0.50330    0.08229    9
   31      0.144D-10      0.453D-12      -286.93137078    737.201903    0.45625   -0.50330    0.08229    9
   32      0.161D-10      0.417D-12      -286.93137078    737.201903    0.45625   -0.50330    0.08229    9
   33      0.118D-10      0.398D-12      -286.93137078    737.201903    0.45625   -0.50330    0.08229    9
   34      0.587D-11      0.428D-12      -286.93137078    737.201903    0.45625   -0.50330    0.08229    9
   35      0.773D-11      0.382D-12      -286.93137078    737.201903    0.45625   -0.50330    0.08229    9
   36      0.180D-10      0.428D-12      -286.93137078    737.201903    0.45625   -0.50330    0.08229    9
   37      0.116D-10      0.589D-12      -286.93137078    737.201903    0.45625   -0.50330    0.08229    9
   38      0.130D-10      0.433D-12      -286.93137078    737.201903    0.45625   -0.50330    0.08229    9
   39      0.166D-10      0.438D-12      -286.93137078    737.201903    0.45625   -0.50330    0.08229    9
   40      0.121D-10      0.439D-12      -286.93137078    737.201903    0.45625   -0.50330    0.08229    9
   41      0.136D-10      0.461D-12      -286.93137078    737.201903    0.45625   -0.50330    0.08229    9
   42      0.159D-10      0.425D-12      -286.93137078    737.201903    0.45625   -0.50330    0.08229    9
   43      0.145D-10      0.446D-12      -286.93137078    737.201903    0.45625   -0.50330    0.08229    9
   44      0.184D-10      0.565D-12      -286.93137078    737.201903    0.45625   -0.50330    0.08229    9
   45      0.211D-10      0.402D-12      -286.93137078    737.201903    0.45625   -0.50330    0.08229    9
   46      0.137D-10      0.397D-12      -286.93137078    737.201903    0.45625   -0.50330    0.08229    9
   47      0.111D-10      0.394D-12      -286.93137078    737.201903    0.45625   -0.50330    0.08229    9
   48      0.128D-10      0.501D-12      -286.93137078    737.201903    0.45625   -0.50330    0.08229    9
   49      0.229D-10      0.530D-12      -286.93137078    737.201903    0.45625   -0.50330    0.08229    9
   50      0.198D-10      0.417D-12      -286.93137078    737.201903    0.45625   -0.50330    0.08229    9
   51      0.180D-10      0.485D-12      -286.93137078    737.201903    0.45625   -0.50330    0.08229    9
   52      0.121D-10      0.430D-12      -286.93137078    737.201903    0.45625   -0.50330    0.08229    9
   53      0.143D-10      0.480D-12      -286.93137078    737.201903    0.45625   -0.50330    0.08229    9
   54      0.819D-11      0.414D-12      -286.93137078    737.201903    0.45625   -0.50330    0.08229    9
   55      0.790D-11      0.436D-12      -286.93137078    737.201903    0.45625   -0.50330    0.08229    9
   56      0.138D-10      0.528D-12      -286.93137078    737.201903    0.45625   -0.50330    0.08229    0

 Final occupancy:  26

 !RHF STATE 1.1 Energy               -286.931370779643
 Nuclear energy                       273.70942576
 One-electron energy                 -929.24174798
 Two-electron energy                  368.60095144
 Virial quotient                       -1.00146531
 !RHF STATE 1.1 Dipole moment           0.45624715    -0.50330043     0.08229334
 Dipole moment /Debye                   1.15958863    -1.27917831     0.20915510

 Orbital energies:

         1.1          2.1          3.1          4.1          5.1          6.1          7.1          8.1          9.1         10.1
    -15.535002   -11.250640   -11.250038   -11.249683   -11.248811   -11.248675   -11.247843    -1.157515    -1.125561    -1.022065

        11.1         12.1         13.1         14.1         15.1         16.1         17.1         18.1         19.1         20.1
     -1.021962    -0.830647    -0.830549    -0.714513    -0.650464    -0.623932    -0.612454    -0.609022    -0.593589    -0.593466

        21.1         22.1         23.1         24.1         25.1         26.1         27.1         28.1
     -0.504924    -0.500111    -0.500035    -0.413434    -0.342985    -0.342003     0.063888     0.066423


 **********************************************************************************************************************************
 DATASETS  * FILE   NREC   LENGTH (MB)   RECORD NAMES
              1      19     1743.87       500      610      700      900      950      970     1000      129      960     1100   
                                          VAR    BASINP    GEOM    SYMINP    ZMAT    AOBASIS   BASIS     P2S    ABASIS      S 
                                         1400     1410     1200     1210     1080     1600     1650     1300     1700   
                                           T        V       H0       H01     AOSYM     SMH    MOLCAS    ERIS     OPER   

              2       3        1.40       700     1000     2100   
                                         GEOM     BASIS     RHF  

 PROGRAMS   *        TOTAL       RHF       INT
 CPU TIMES  *       111.00     96.39     14.57
 REAL TIME  *       125.28 SEC
 DISK USED  *         6.38 GB      
 GA USED    *         0.01 MB       (max)       0.00 MB       (current)
 **********************************************************************************************************************************


1PROGRAM * CCSD (Closed-shell coupled cluster)     Authors: C. Hampel, H.-J. Werner, 1991, M. Deegan, P.J. Knowles, 1992


 Convergence thresholds:  THRVAR = 1.00D-08  THRDEN = 1.00D-12

 CCSD(T)     terms to be evaluated (factor= 1.000)


 Number of core orbitals:           7 (   7 )
 Number of closed-shell orbitals:  19 (  19 )
 Number of external orbitals:     180 ( 180 )

 Molecular orbitals read from record     2100.2  Type=RHF/CANONICAL (state 1.1)

 Number of N-1 electron functions:              19
 Number of N-2 electron functions:             190
 Number of singly external CSFs:              3420
 Number of doubly external CSFs:           5849910
 Total number of CSFs:                     5853331

 Length of J-op  integral file:               0.00 MB
 Length of K-op  integral file:               2.96 MB
 Length of 3-ext integral record:             0.00 MB

 Memory could be reduced to 140.12 Mwords without degradation in triples

 Integral transformation finished. Total CPU:  13.91 sec, npass=  1  Memory used: 101.90 MW

 Reference energy:                   -286.93137078

 MP2 singlet pair energy:              -0.62063140
 MP2 triplet pair energy:              -0.38983403
 MP2 correlation energy:               -1.01046543
 MP2 total energy:                   -287.94183621

 SCS-MP2 correlation energy:           -0.98732108   (PS=  1.200000  PT=  0.333333)
 SCS-MP2 total energy:               -287.91869186

 ITER.      SQ.NORM     CORR.ENERGY   TOTAL ENERGY   ENERGY CHANGE        DEN1      VAR(S)    VAR(P)  DIIS     TIME
   1      1.38488186    -1.05475755  -287.98612832    -0.04429211    -0.01721365  0.36D-02  0.80D-02  1  1    50.82
   2      1.41439502    -1.06062019  -287.99199097    -0.00586265    -0.02705327  0.63D-04  0.10D-02  2  2    88.20
   3      1.42352579    -1.06071586  -287.99208664    -0.00009566    -0.00464316  0.27D-04  0.84D-04  3  3   125.59
   4      1.42746251    -1.06088462  -287.99225540    -0.00016876    -0.00121387  0.22D-05  0.11D-04  4  4   162.99
   5      1.42867590    -1.06091557  -287.99228635    -0.00003095    -0.00027315  0.27D-06  0.13D-05  5  5   200.42
   6      1.42897868    -1.06090533  -287.99227611     0.00001024    -0.00004354  0.23D-07  0.79D-07  6  6   237.86
   7      1.42901948    -1.06090696  -287.99227774    -0.00000163    -0.00000105  0.35D-08  0.82D-08  6  2   275.32
   8      1.42902867    -1.06090682  -287.99227760     0.00000014    -0.00000118  0.75D-09  0.76D-09  6  1   312.79
   9      1.42902850    -1.06090695  -287.99227773    -0.00000013     0.00000123  0.21D-09  0.92D-10  6  4   350.25
  10      1.42902969    -1.06090696  -287.99227774    -0.00000001    -0.00000018  0.57D-10  0.15D-10  6  3   387.71
  11      1.42902964    -1.06090698  -287.99227776    -0.00000002     0.00000013  0.14D-10  0.37D-11  6  5   425.13
  12      1.42902960    -1.06090698  -287.99227776    -0.00000000     0.00000003  0.15D-11  0.10D-11  6  6   462.60
  13      1.42902942    -1.06090698  -287.99227776    -0.00000000     0.00000006  0.69D-13  0.20D-12  6  2   500.01
  14      1.42902932    -1.06090699  -287.99227777    -0.00000000     0.00000002  0.81D-14  0.40D-13  6  1   537.45
  15      1.42902926    -1.06090699  -287.99227777    -0.00000000     0.00000001  0.89D-15  0.53D-14  6  3   574.92
  16      1.42902924    -1.06090699  -287.99227777    -0.00000000     0.00000000  0.12D-15  0.37D-15  6  4   612.38
  17      1.42902924    -1.06090699  -287.99227777    -0.00000000     0.00000000  0.31D-16  0.44D-16  6  5   649.86
  18      1.42902923    -1.06090699  -287.99227777    -0.00000000     0.00000000  0.81D-17  0.70D-17  6  6   687.33
  19      1.42902923    -1.06090699  -287.99227777    -0.00000000     0.00000000  0.23D-17  0.76D-18  6  2   724.77
  20      1.42902923    -1.06090699  -287.99227777    -0.00000000     0.00000000  0.74D-18  0.18D-18  6  1   762.21
  21      1.42902923    -1.06090699  -287.99227777    -0.00000000     0.00000000  0.28D-18  0.73D-19  6  3   799.67
  22      1.42902923    -1.06090699  -287.99227777    -0.00000000     0.00000000  0.10D-18  0.33D-19  6  4   837.13
  23      1.42902923    -1.06090699  -287.99227777    -0.00000000     0.00000000  0.46D-19  0.18D-19  6  6   874.57

 Norm of t1 vector:      0.08385643      S-energy:    -0.00000000      T1 diagnostic:  0.00961899
                                                                       D1 diagnostic:  0.02619559

 Doubles amplitudes (print threshold =  0.500E-01):

         I         J         SYM. A    SYM. B    A         B      T(IJ, AB)

        18        18         1         1         6         6     -0.05094766
        19        19         1         1         7         7     -0.05428628


 Total CPU time for triples:    734.54 sec


 RESULTS
 =======

  Reference energy                   -286.931370779641
  CCSD singlet pair energy             -0.711155342687
  CCSD triplet pair energy             -0.349751643810
  CCSD correlation energy              -1.060906986497

  Triples (T) contribution             -0.045602647464
  Total correlation energy             -1.106509633961

  CCSD total energy                  -287.992277766138
  CCSD[T] energy                     -288.038750612376
  CCSD-T energy                      -288.037491879236
 !CCSD(T) total energy               -288.037880413603

 Timing summary (sec):

 STEP                 CPU(USER)    SYS     CPU(TOT)    WALL
 Transformation         14.32      0.85     15.17     15.18
 CCSD iterations       860.27     12.37    872.64    872.79
 Triples               734.54     10.93    745.47    745.52

 Program statistics:

 Available memory in ccsd:               999998456
 Min. memory needed in ccsd:              14392275
 Max. memory used in ccsd:                19775697
 Max. memory used in cckext:              16737545 (23 integral passes)



 **********************************************************************************************************************************
 DATASETS  * FILE   NREC   LENGTH (MB)   RECORD NAMES
              1      20     2287.48       500      610      700      900      950      970     1000      129      960     1100   
                                          VAR    BASINP    GEOM    SYMINP    ZMAT    AOBASIS   BASIS     P2S    ABASIS      S 
                                         1400     1410     1200     1210     1080     1600     1650     1300     1700     1380   
                                           T        V       H0       H01     AOSYM     SMH    MOLCAS    ERIS     OPER     JKOP   

              2       3        1.40       700     1000     2100   
                                         GEOM     BASIS     RHF  

 PROGRAMS   *        TOTAL   CCSD(T)       RHF       INT
 CPU TIMES  *      1720.15   1609.14     96.39     14.57
 REAL TIME  *      1758.89 SEC
 DISK USED  *         6.38 GB      
 GA USED    *         0.01 MB       (max)       0.00 MB       (current)
 **********************************************************************************************************************************

        CCSD(T)         RHF-SCF 
   -288.03788041   -286.93137078
 **********************************************************************************************************************************
 Variable memory released
