
 Primary working directories    : /tmp/1011203.232.gen6.q
 Secondary working directories  : /tmp/1011203.232.gen6.q
 Wavefunction directory         : /home/vulcan/mel64643/wfu/
 Main file repository           : /tmp/1011203.232.gen6.q/

 ARCHNAME  : Linux/x86_64
 FC        : /opt/intel/compilers_and_libraries_2016.1.150/linux/bin/intel64/ifort
 FCVERSION : 16.0.1
 BLASLIB   : -mkl
 id        : ccgc

 Nodes     nprocs
 n088         1
 ga_uses_ma=false, calling ma_init with nominal heap.
 GA-space will be limited to   8.0 MW (determined by -G option)

 Using customized tuning parameters: mindgm=10; mindgv=16; mindgc=4; mindgr=1; noblas=0; mincuda=1000; minvec=7
 default implementation of scratch files=df  

 ***,Optimization of c2h4_2
 memory,1000,m
 gthresh,energy=1.0d-12,orbital=1.0d-10,oneint=1.0d-16,twoint=1.0d-16,optgrad=1.0d-6,compress=1.0d-13
 geomtyp=xyz
 
 
 
 bohr
 geometry = {
  C   -1.2650563748   -0.0004033408   -3.4926297327
  C    1.2642582744   -0.0004030757   -3.4903484193
  H   -2.3422227299   -0.0002021788   -1.7412194071
  H    2.3345700139   -0.0002023486   -1.7430276109
  H   -2.3260561289   -0.0006037517   -5.2365692186
  H    2.3320883246   -0.0006039253   -5.2384054030
  C    0.0004033407    1.2650562827    3.4926100314
  C    0.0004030756   -1.2642581845    3.4903287182
  H    0.0002021786    2.3422243610    1.7412011603
  H    0.0002023484   -2.3345716434    1.7430093572
  H    0.0006037519    2.3260547964    5.2365502056
  H    0.0006039255   -2.3320869913    5.2383863949
 }
 
 basis=aug-cc-pvdz, H=cc-pvdz
 {rhf;maxit,200}
 {mp2}

 Variables initialized (661), CPU time= 0.01 sec
 Commands  initialized (458), CPU time= 0.00 sec, 486 directives.
 Default parameters read. Elapsed time= 0.04 sec

 Checking input...
 Passed
1


                                         ***  PROGRAM SYSTEM MOLPRO  ***
                         Copyright, University College Cardiff Consultants Limited, 2008

                                    Version 2010.1 linked May 16 2016 07:17:05


 **********************************************************************************************************************************
 LABEL *   Optimization of c2h4_2                                                        
 Linux-4.4.3/n088(x86_64) 64 bit mpp version                                             DATE: 25-Feb-24          TIME: 14:29:22  
 **********************************************************************************************************************************

 SHA1:             9e8077add272b0f3cad6f7df79ec5211205f459d
 **********************************************************************************************************************************

 THRESHOLDS:

 ZERO    =  1.00D-12  ONEINT  =  1.00D-16  TWOINT  =  1.00D-16  PREFAC  =  1.00D-14  LOCALI  =  1.00D-09  EORDER  =  1.00D-04
 ENERGY  =  1.00D-12  ETEST   =  0.00D+00  EDENS   =  0.00D+00  THRDEDEF=  1.00D-06  GRADIENT=  1.00D-02  STEP    =  1.00D-03
 ORBITAL =  1.00D-10  CIVEC   =  1.00D-05  COEFF   =  1.00D-04  PRINTCI =  5.00D-02  PUNCHCI =  9.90D+01  OPTGRAD =  1.00D-06
 OPTENERG=  1.00D-06  OPTSTEP =  3.00D-04  THRGRAD =  1.00D-10  COMPRESS=  1.00D-13  VARMIN  =  1.00D-07  VARMAX  =  1.00D-03
 THRDOUB =  0.00D+00  THRDIV  =  1.00D-05  THRRED  =  1.00D-07  THRPSP  =  1.00D+00  THRDC   =  1.00D-10  THRCS   =  1.00D-10
 THRNRM  =  1.00D-08  THREQ   =  0.00D+00  THRDE   =  1.00D+00  THRREF  =  1.00D-05  SPARFAC =  1.00D+00  THRDLP  =  1.00D-07
 THRDIA  =  1.00D-10  THRDLS  =  1.00D-07  THRGPS  =  0.00D+00  THRKEX  =  0.00D+00  THRDIS  =  2.00D-01  THRVAR  =  1.00D-10
 THRLOC  =  1.00D-06  THRGAP  =  1.00D-06  THRLOCT = -1.00D+00  THRGAPT = -1.00D+00  THRORB  =  1.00D-06  THRMLTP =  0.00D+00
 THRCPQCI=  1.00D-10  KEXTA   =  0.00D+00  THRCOARS=  0.00D+00  SYMTOL  =  1.00D-06  GRADTOL =  1.00D-06  THROVL  =  1.00D-08
 THRORTH =  1.00D-08  GRID    =  1.00D-06  GRIDMAX =  1.00D-03  DTMAX   =  0.00D+00

 SETTING GEOMTYP        =    XYZ
 ZUNIT=BOHR
 

 Variable memory set to 1000000000 words,  buffer space   230000 words

 SETTING BASIS          =    AUG-CC-PVDZ,H=CC-PVDZ


 Recomputing integrals since basis changed


 Using spherical harmonics

 Library entry C      S aug-cc-pVDZ          selected for orbital group  1
 Library entry C      P aug-cc-pVDZ          selected for orbital group  1
 Library entry C      D aug-cc-pVDZ          selected for orbital group  1
 Library entry H      S cc-pVDZ              selected for orbital group  2
 Library entry H      P cc-pVDZ              selected for orbital group  2

1PROGRAM * SEWARD (Integral evaluation for generally contracted gaussian basis sets)     Author: Roland Lindh, 1990

 Geometry written to block  1 of record 700


 Point group  C1  



 ATOMIC COORDINATES

 NR  ATOM    CHARGE       X              Y              Z

   1  C       6.00   -1.265056375   -0.000403341   -3.492629733
   2  C       6.00    1.264258274   -0.000403076   -3.490348419
   3  H       1.00   -2.342222730   -0.000202179   -1.741219407
   4  H       1.00    2.334570014   -0.000202349   -1.743027611
   5  H       1.00   -2.326056129   -0.000603752   -5.236569219
   6  H       1.00    2.332088325   -0.000603925   -5.238405403
   7  C       6.00    0.000403341    1.265056283    3.492610031
   8  C       6.00    0.000403076   -1.264258185    3.490328718
   9  H       1.00    0.000202179    2.342224361    1.741201160
  10  H       1.00    0.000202348   -2.334571643    1.743009357
  11  H       1.00    0.000603752    2.326054796    5.236550206
  12  H       1.00    0.000603926   -2.332086991    5.238386395

 Bond lengths in Bohr (Angstrom)

 1-2  2.529315678  1-3  2.056143362  1-5  2.041334233  2-4  2.049072294  2-6  2.048405300
     ( 1.338456211)     ( 1.088064206)     ( 1.080227552)     ( 1.084322358)     ( 1.083969400)

  7- 8  2.529315496   7- 9  2.056143026   7-11  2.041334176   8-10  2.049071958   8-12  2.048405244
       ( 1.338456115)       ( 1.088064028)       ( 1.080227522)       ( 1.084322180)       ( 1.083969370)

 Bond angles

  1-2-4  121.54100085   1-2-6  121.36769644   2-1-3  121.54100085   2-1-5  121.36769644

  3- 1- 5  117.09130271   4- 2- 6  117.09130271   7- 8-10  121.54106298   7- 8-12  121.36765666

  8- 7- 9  121.54106298   8- 7-11  121.36765666   9- 7-11  117.09128036  10- 8-12  117.09128036

 NUCLEAR CHARGE:                   32
 NUMBER OF PRIMITIVE AOS:         204
 NUMBER OF SYMMETRY AOS:          196
 NUMBER OF CONTRACTIONS:          132   ( 132A   )
 NUMBER OF CORE ORBITALS:           4   (   4A   )
 NUMBER OF VALENCE ORBITALS:       24   (  24A   )


 NUCLEAR REPULSION ENERGY  102.23046864


 Eigenvalues of metric

         1 0.173E-03 0.173E-03 0.332E-03 0.332E-03 0.553E-02 0.554E-02 0.592E-02 0.675E-02


 Contracted 2-electron integrals neglected if value below      1.0D-16
 AO integral compression algorithm  1   Integral accuracy      1.0D-16

     318.505 MB (compressed) written to integral file ( 90.7%)

     Node minimum: 318.505 MB, node maximum: 318.505 MB


 NUMBER OF SORTED TWO-ELECTRON INTEGRALS:   38531031.     BUFFER LENGTH:  32768
 NUMBER OF SEGMENTS:   3  SEGMENT LENGTH:   15998004      RECORD LENGTH: 524288

 Memory used in sort:      16.56 MW

 SORT1 READ    43892337. AND WROTE    37996864. INTEGRALS IN    110 RECORDS. CPU TIME:     0.37 SEC, REAL TIME:     0.60 SEC
 SORT2 READ    37996864. AND WROTE    38531031. INTEGRALS IN   1215 RECORDS. CPU TIME:     0.33 SEC, REAL TIME:     0.48 SEC

 FILE SIZES:   FILE 1:   284.3 MBYTE,  FILE 4:   461.4 MBYTE,   TOTAL:    745.7 MBYTE

 OPERATOR DM      FOR CENTER  0  COORDINATES:    0.000000    0.000000    0.000000


 **********************************************************************************************************************************
 DATASETS  * FILE   NREC   LENGTH (MB)   RECORD NAMES
              1      19      284.53       500      610      700      900      950      970     1000      129      960     1100   
                                          VAR    BASINP    GEOM    SYMINP    ZMAT    AOBASIS   BASIS     P2S    ABASIS      S 
                                         1400     1410     1200     1210     1080     1600     1650     1300     1700   
                                           T        V       H0       H01     AOSYM     SMH    MOLCAS    ERIS     OPER   

 PROGRAMS   *        TOTAL       INT
 CPU TIMES  *         2.56      2.50
 REAL TIME  *         3.20 SEC
 DISK USED  *         1.07 GB      
 GA USED    *         0.00 MB       (max)       0.00 MB       (current)
 **********************************************************************************************************************************

1PROGRAM * RHF-SCF (CLOSED SHELL)       Authors: W. Meyer, H.-J. Werner


 NUMBER OF ELECTRONS:      16+   16-    SPACE SYMMETRY=1    SPIN SYMMETRY: Singlet 
 CONVERGENCE THRESHOLDS:    1.00E-10 (Density)    1.00E-13 (Energy)
 MAX. NUMBER OF ITERATIONS:      200
 INTERPOLATION TYPE:            DIIS
 INTERPOLATION STEPS:              2 (START)      1 (STEP)
 LEVEL SHIFTS:                  0.00 (CLOSED)  0.00 (OPEN) 



 Orbital guess generated from atomic densities. Full valence occupancy:   28

 Molecular orbital dump at record        2100.2

 ITERATION    DDIFF          GRAD             ENERGY        2-EL.EN.            DIPOLE MOMENTS         DIIS
    1      0.000D+00      0.000D+00      -156.03856747    307.082309   -0.00000    0.00000    0.00000    0
    2      0.000D+00      0.347D-02      -156.07900385    304.354172    0.00007   -0.00007    0.00000    1
    3      0.713D-02      0.117D-02      -156.08306215    305.477280   -0.00005    0.00005    0.00000    2
    4      0.225D-02      0.354D-03      -156.08363205    305.190737   -0.00009    0.00009    0.00000    3
    5      0.796D-03      0.441D-04      -156.08364286    305.205327   -0.00010    0.00010    0.00000    4
    6      0.111D-03      0.712D-05      -156.08364327    305.203759   -0.00011    0.00011    0.00000    5
    7      0.188D-04      0.170D-05      -156.08364330    305.203744   -0.00011    0.00011    0.00000    6
    8      0.515D-05      0.260D-06      -156.08364330    305.203751   -0.00011    0.00011    0.00000    6
    9      0.810D-06      0.498D-07      -156.08364330    305.203754   -0.00011    0.00011    0.00000    5
   10      0.139D-06      0.130D-07      -156.08364330    305.203757   -0.00011    0.00011    0.00000    6
   11      0.303D-07      0.375D-08      -156.08364330    305.203757   -0.00011    0.00011    0.00000    6
   12      0.796D-08      0.950D-09      -156.08364330    305.203756   -0.00011    0.00011    0.00000    6
   13      0.246D-08      0.209D-09      -156.08364330    305.203757   -0.00011    0.00011    0.00000    6
   14      0.508D-09      0.667D-10      -156.08364330    305.203756   -0.00011    0.00011    0.00000    7
   15      0.139D-09      0.124D-10      -156.08364330    305.203756   -0.00011    0.00011    0.00000    7
   16      0.341D-10      0.437D-11      -156.08364330    305.203756   -0.00011    0.00011    0.00000    7
   17      0.151D-10      0.939D-12      -156.08364330    305.203756   -0.00011    0.00011    0.00000    6
   18      0.694D-11      0.280D-12      -156.08364330    305.203756   -0.00011    0.00011    0.00000    7
   19      0.297D-11      0.115D-12      -156.08364330    305.203756   -0.00011    0.00011    0.00000    7
   20      0.313D-11      0.851D-13      -156.08364330    305.203756   -0.00011    0.00011    0.00000    8
   21      0.203D-11      0.596D-13      -156.08364330    305.203756   -0.00011    0.00011    0.00000    9
   22      0.111D-11      0.761D-13      -156.08364330    305.203756   -0.00011    0.00011    0.00000    9
   23      0.564D-12      0.545D-13      -156.08364330    305.203756   -0.00011    0.00011    0.00000    9
   24      0.388D-12      0.576D-13      -156.08364330    305.203756   -0.00011    0.00011    0.00000    9
   25      0.346D-12      0.600D-13      -156.08364330    305.203756   -0.00011    0.00011    0.00000    0

 Final occupancy:  16

 !RHF STATE 1.1 Energy               -156.083643296152
 Nuclear energy                       102.23046864
 One-electron energy                 -410.91599016
 Two-electron energy                  152.60187823
 Virial quotient                       -1.00199204
 !RHF STATE 1.1 Dipole moment          -0.00010789     0.00010789     0.00000008
 Dipole moment /Debye                  -0.00027420     0.00027421     0.00000020

 Orbital energies:

         1.1          2.1          3.1          4.1          5.1          6.1          7.1          8.1          9.1         10.1
    -11.241753   -11.241750   -11.240133   -11.240133    -1.038631    -1.032818    -0.794765    -0.794764    -0.656792    -0.631308

        11.1         12.1         13.1         14.1         15.1         16.1         17.1         18.1
     -0.588331    -0.584822    -0.508747    -0.508747    -0.376311    -0.376311     0.069018     0.069018


 **********************************************************************************************************************************
 DATASETS  * FILE   NREC   LENGTH (MB)   RECORD NAMES
              1      19      284.53       500      610      700      900      950      970     1000      129      960     1100   
                                          VAR    BASINP    GEOM    SYMINP    ZMAT    AOBASIS   BASIS     P2S    ABASIS      S 
                                         1400     1410     1200     1210     1080     1600     1650     1300     1700   
                                           T        V       H0       H01     AOSYM     SMH    MOLCAS    ERIS     OPER   

              2       3        0.81       700     1000     2100   
                                         GEOM     BASIS     RHF  

 PROGRAMS   *        TOTAL       RHF       INT
 CPU TIMES  *         9.14      6.58      2.50
 REAL TIME  *        10.50 SEC
 DISK USED  *         1.07 GB      
 GA USED    *         0.00 MB       (max)       0.00 MB       (current)
 **********************************************************************************************************************************


1PROGRAM * MP2 (Closed-shell)     Authors: C. Hampel, H.-J. Werner, 1991, M. Deegan, P.J. Knowles, 1992


 Convergence thresholds:  THRVAR = 1.00D-08  THRDEN = 1.00D-12

 Number of core orbitals:           4 (   4 )
 Number of closed-shell orbitals:  12 (  12 )
 Number of external orbitals:     116 ( 116 )

 Molecular orbitals read from record     2100.2  Type=RHF/CANONICAL (state 1.1)

 Number of N-1 electron functions:              12
 Number of N-2 electron functions:              78
 Number of singly external CSFs:              1392
 Number of doubly external CSFs:            969528
 Total number of CSFs:                      970921

 Length of J-op  integral file:               0.00 MB
 Length of K-op  integral file:               1.24 MB

 Integral transformation finished. Total CPU:   0.54 sec, npass=  1  Memory used:   2.65 MW

 Memory needed for MP2:                      0.08 MW

 SCS-MP2 correlation energy:           -0.573951552481   (PS=  1.200000  PT=  0.333333)
 SCS-MP2 total energy:               -156.657594848633


  Reference energy                   -156.083643296151
  MP2 singlet pair energy              -0.379791708686
  MP2 triplet pair energy              -0.189966699737
  MP2 correlation energy               -0.569758408423

 !MP2 total energy                   -156.653401704574


 **********************************************************************************************************************************
 DATASETS  * FILE   NREC   LENGTH (MB)   RECORD NAMES
              1      20      301.24       500      610      700      900      950      970     1000      129      960     1100   
                                          VAR    BASINP    GEOM    SYMINP    ZMAT    AOBASIS   BASIS     P2S    ABASIS      S 
                                         1400     1410     1200     1210     1080     1600     1650     1300     1700     1380   
                                           T        V       H0       H01     AOSYM     SMH    MOLCAS    ERIS     OPER     JKOP   

              2       3        0.81       700     1000     2100   
                                         GEOM     BASIS     RHF  

 PROGRAMS   *        TOTAL       MP2       RHF       INT
 CPU TIMES  *         9.74      0.60      6.58      2.50
 REAL TIME  *        11.16 SEC
 DISK USED  *         1.07 GB      
 GA USED    *         0.00 MB       (max)       0.00 MB       (current)
 **********************************************************************************************************************************

        MP2             RHF-SCF 
   -156.65340170   -156.08364330
 **********************************************************************************************************************************
 Variable memory released
