
 Primary working directories    : /tmp/999602.627.gen5.q
 Secondary working directories  : /tmp/999602.627.gen5.q
 Wavefunction directory         : /home/vulcan/jj04645/wfu/
 Main file repository           : /tmp/999602.627.gen5.q/

 ARCHNAME  : Linux/x86_64
 FC        : /opt/intel/compilers_and_libraries_2016.1.150/linux/bin/intel64/ifort
 FCVERSION : 16.0.1
 BLASLIB   : -mkl
 id        : ccgc

 Nodes     nprocs
 n073         1
 ga_uses_ma=false, calling ma_init with nominal heap.
 GA-space will be limited to   8.0 MW (determined by -G option)

 Using customized tuning parameters: mindgm=10; mindgv=16; mindgc=4; mindgr=1; noblas=0; mincuda=1000; minvec=7
 default implementation of scratch files=df  

 ***,Optimization of 1,3-difluorobenzene
 memory,1000,m
 gthresh,energy=1.0d-12,orbital=1.0d-10,oneint=1.0d-16,twoint=1.0d-16,optgrad=1.0d-6,compress=1.0d-13
 geomtyp=xyz
 
 bohr
 geometry = {
  F    0.0000000000    4.4313688363   -1.7578588486
  C    0.0000000000    2.2378573460   -0.4817194744
  C    0.0000000000   -2.2943206815    2.1444994386
  C    0.0000000000    0.0000000000   -1.8580982314
  C    0.0000000000    2.2943206815    2.1444994386
  C    0.0000000000    0.0000000000    3.4493130769
  C    0.0000000000   -2.2378573460   -0.4817194744
  H    0.0000000000    0.0000000000   -3.8994942243
  H    0.0000000000    4.0893571411    3.1188163086
  H   -0.0000000000   -0.0000000000    5.4943309660
  F    0.0000000000   -4.4313688363   -1.7578588486
  H   -0.0000000000   -4.0893571411    3.1188163086
 }
 
 basis=VDZ
 {rhf;maxit,200}
 {ccsd(t);maxit,200}

 Variables initialized (661), CPU time= 0.00 sec
 Commands  initialized (458), CPU time= 0.00 sec, 486 directives.
 Default parameters read. Elapsed time= 0.05 sec

 Checking input...
 Passed
1


                                         ***  PROGRAM SYSTEM MOLPRO  ***
                         Copyright, University College Cardiff Consultants Limited, 2008

                                    Version 2010.1 linked May 16 2016 07:17:05


 **********************************************************************************************************************************
 LABEL *   Optimization of 1,3-difluorobenzene                                           
 Linux-4.4.3/n073(x86_64) 64 bit mpp version                                             DATE: 07-Feb-24          TIME: 17:17:07  
 **********************************************************************************************************************************

 SHA1:             9e8077add272b0f3cad6f7df79ec5211205f459d
 **********************************************************************************************************************************

 THRESHOLDS:

 ZERO    =  1.00D-12  ONEINT  =  1.00D-16  TWOINT  =  1.00D-16  PREFAC  =  1.00D-14  LOCALI  =  1.00D-09  EORDER  =  1.00D-04
 ENERGY  =  1.00D-12  ETEST   =  0.00D+00  EDENS   =  0.00D+00  THRDEDEF=  1.00D-06  GRADIENT=  1.00D-02  STEP    =  1.00D-03
 ORBITAL =  1.00D-10  CIVEC   =  1.00D-05  COEFF   =  1.00D-04  PRINTCI =  5.00D-02  PUNCHCI =  9.90D+01  OPTGRAD =  1.00D-06
 OPTENERG=  1.00D-06  OPTSTEP =  3.00D-04  THRGRAD =  1.00D-10  COMPRESS=  1.00D-13  VARMIN  =  1.00D-07  VARMAX  =  1.00D-03
 THRDOUB =  0.00D+00  THRDIV  =  1.00D-05  THRRED  =  1.00D-07  THRPSP  =  1.00D+00  THRDC   =  1.00D-10  THRCS   =  1.00D-10
 THRNRM  =  1.00D-08  THREQ   =  0.00D+00  THRDE   =  1.00D+00  THRREF  =  1.00D-05  SPARFAC =  1.00D+00  THRDLP  =  1.00D-07
 THRDIA  =  1.00D-10  THRDLS  =  1.00D-07  THRGPS  =  0.00D+00  THRKEX  =  0.00D+00  THRDIS  =  2.00D-01  THRVAR  =  1.00D-10
 THRLOC  =  1.00D-06  THRGAP  =  1.00D-06  THRLOCT = -1.00D+00  THRGAPT = -1.00D+00  THRORB  =  1.00D-06  THRMLTP =  0.00D+00
 THRCPQCI=  1.00D-10  KEXTA   =  0.00D+00  THRCOARS=  0.00D+00  SYMTOL  =  1.00D-06  GRADTOL =  1.00D-06  THROVL  =  1.00D-08
 THRORTH =  1.00D-08  GRID    =  1.00D-06  GRIDMAX =  1.00D-03  DTMAX   =  0.00D+00

 SETTING GEOMTYP        =    XYZ
 ZUNIT=BOHR
 

 Variable memory set to 1000000000 words,  buffer space   230000 words

 SETTING BASIS          =    VDZ


 Recomputing integrals since basis changed


 Using spherical harmonics

 Library entry F      S cc-pVDZ              selected for orbital group  1
 Library entry F      P cc-pVDZ              selected for orbital group  1
 Library entry F      D cc-pVDZ              selected for orbital group  1
 Library entry C      S cc-pVDZ              selected for orbital group  2
 Library entry C      P cc-pVDZ              selected for orbital group  2
 Library entry C      D cc-pVDZ              selected for orbital group  2
 Library entry H      S cc-pVDZ              selected for orbital group  3
 Library entry H      P cc-pVDZ              selected for orbital group  3

1PROGRAM * SEWARD (Integral evaluation for generally contracted gaussian basis sets)     Author: Roland Lindh, 1990

 Geometry written to block  1 of record 700


 Point group  C2v 



 ATOMIC COORDINATES

 NR  ATOM    CHARGE       X              Y              Z

   1  F       9.00    0.000000000    4.431368836   -1.757858849
   2  F       9.00    0.000000000   -4.431368836   -1.757858849
   3  C       6.00    0.000000000    2.237857346   -0.481719474
   4  C       6.00    0.000000000   -2.237857346   -0.481719474
   5  C       6.00    0.000000000   -2.294320681    2.144499439
   6  C       6.00    0.000000000    2.294320681    2.144499439
   7  C       6.00    0.000000000    0.000000000   -1.858098231
   8  C       6.00    0.000000000    0.000000000    3.449313077
   9  H       1.00    0.000000000    0.000000000   -3.899494224
  10  H       1.00    0.000000000    4.089357141    3.118816309
  11  H       1.00    0.000000000   -4.089357141    3.118816309
  12  H       1.00    0.000000000    0.000000000    5.494330966

 Bond lengths in Bohr (Angstrom)

 1-3  2.537720308  2-4  2.537720308  3-6  2.626825820  3-7  2.627246464  4-5  2.626825820
     ( 1.342903750)     ( 1.342903750)     ( 1.390056356)     ( 1.390278951)     ( 1.390056356)

  4- 7  2.627246464   5- 8  2.639402588   5-11  2.042412606   6- 8  2.639402588   6-10  2.042412606
       ( 1.390278951)       ( 1.396711695)       ( 1.080798203)       ( 1.396711695)       ( 1.080798203)

  7- 9  2.041395993   8-12  2.045017889
       ( 1.080260234)       ( 1.082176859)

 Bond angles

  1-3-6  118.95829316   1-3-7  118.21673731   2-4-5  118.95829316   2-4-7  118.21673731

  3- 6- 8  118.39585987   3- 6-10  119.72405812   3- 7- 4  116.81338375   3- 7- 9  121.59330812

  4- 5- 8  118.39585987   4- 5-11  119.72405812   4- 7- 9  121.59330812   5- 4- 7  122.82496953

  5- 8- 6  120.74495744   5- 8-12  119.62752128   6- 3- 7  122.82496953   6- 8-12  119.62752128

  8- 5-11  121.88008201   8- 6-10  121.88008201

 NUCLEAR CHARGE:                   58
 NUMBER OF PRIMITIVE AOS:         244
 NUMBER OF SYMMETRY AOS:          236
 NUMBER OF CONTRACTIONS:          132   (  54A1  +  21B1  +  42B2  +  15A2  )
 NUMBER OF CORE ORBITALS:           8   (   5A1  +   0B1  +   3B2  +   0A2  )
 NUMBER OF VALENCE ORBITALS:       36   (  16A1  +   5B1  +  12B2  +   3A2  )


 NUCLEAR REPULSION ENERGY  342.41825804


 Eigenvalues of metric

         1 0.394E-03 0.168E-02 0.304E-02 0.130E-01 0.148E-01 0.202E-01 0.238E-01 0.265E-01
         2 0.413E-01 0.101E+00 0.166E+00 0.185E+00 0.214E+00 0.286E+00 0.366E+00 0.409E+00
         3 0.120E-02 0.265E-02 0.317E-02 0.125E-01 0.219E-01 0.267E-01 0.396E-01 0.618E-01
         4 0.906E-01 0.162E+00 0.190E+00 0.275E+00 0.378E+00 0.418E+00 0.473E+00 0.688E+00


 Contracted 2-electron integrals neglected if value below      1.0D-16
 AO integral compression algorithm  1   Integral accuracy      1.0D-16

     91.226 MB (compressed) written to integral file ( 96.5%)

     Node minimum: 91.226 MB, node maximum: 91.226 MB


 NUMBER OF SORTED TWO-ELECTRON INTEGRALS:   10309416.     BUFFER LENGTH:  32768
 NUMBER OF SEGMENTS:   1  SEGMENT LENGTH:   10309416      RECORD LENGTH: 524288

 Memory used in sort:      10.87 MW

 SORT1 READ    11785331. AND WROTE    10207522. INTEGRALS IN     30 RECORDS. CPU TIME:     0.20 SEC, REAL TIME:     0.28 SEC
 SORT2 READ    10207522. AND WROTE    10309416. INTEGRALS IN    348 RECORDS. CPU TIME:     0.14 SEC, REAL TIME:     0.21 SEC

 FILE SIZES:   FILE 1:    83.5 MBYTE,  FILE 4:   125.9 MBYTE,   TOTAL:    209.3 MBYTE

 OPERATOR DM      FOR CENTER  0  COORDINATES:    0.000000    0.000000    0.000000


 **********************************************************************************************************************************
 DATASETS  * FILE   NREC   LENGTH (MB)   RECORD NAMES
              1      19       83.53       500      610      700      900      950      970     1000      129      960     1100   
                                          VAR    BASINP    GEOM    SYMINP    ZMAT    AOBASIS   BASIS     P2S    ABASIS      S 
                                         1400     1410     1200     1210     1080     1600     1650     1300     1700   
                                           T        V       H0       H01     AOSYM     SMH    MOLCAS    ERIS     OPER   

 PROGRAMS   *        TOTAL       INT
 CPU TIMES  *         2.66      2.62
 REAL TIME  *         3.10 SEC
 DISK USED  *       301.43 MB      
 GA USED    *         0.00 MB       (max)       0.00 MB       (current)
 **********************************************************************************************************************************

1PROGRAM * RHF-SCF (CLOSED SHELL)       Authors: W. Meyer, H.-J. Werner


 NUMBER OF ELECTRONS:      29+   29-
 CONVERGENCE THRESHOLDS:    1.00E-10 (Density)    1.00E-13 (Energy)
 MAX. NUMBER OF ITERATIONS:      200
 INTERPOLATION TYPE:            DIIS
 INTERPOLATION STEPS:              2 (START)      1 (STEP)
 LEVEL SHIFTS:                  0.00 (CLOSED)  0.00 (OPEN) 



 Orbital guess generated from atomic densities. Full valence occupancy:   21   5  15   3

 Molecular orbital dump at record        2100.2

 Initial alpha occupancy:  14   3  10   2
 Initial beta  occupancy:  14   3  10   2
 Wave function symmetry:    1

 ITERATION    DDIFF          GRAD             ENERGY        2-EL.EN.            DIPOLE MOMENTS         DIIS
    1      0.000D+00      0.000D+00      -428.34392047    993.177261    0.00000    0.00000    0.47460    0
    2      0.000D+00      0.109D-01      -428.41801172    992.715811    0.00000    0.00000    0.92337    1
    3      0.224D-01      0.493D-02      -428.43189386    993.046897    0.00000    0.00000    0.61925    2
    4      0.711D-02      0.131D-02      -428.43345244    993.105093    0.00000    0.00000    0.73316    3
    5      0.267D-02      0.395D-03      -428.43358780    993.069483    0.00000    0.00000    0.69976    4
    6      0.670D-03      0.824D-04      -428.43359550    993.078708    0.00000    0.00000    0.70416    5
    7      0.176D-03      0.249D-04      -428.43359656    993.082062    0.00000    0.00000    0.70251    6
    8      0.598D-04      0.893D-05      -428.43359669    993.081406    0.00000    0.00000    0.70294    7
    9      0.201D-04      0.408D-05      -428.43359672    993.081790    0.00000    0.00000    0.70266    8
   10      0.109D-04      0.156D-05      -428.43359673    993.082360    0.00000    0.00000    0.70273    8
   11      0.492D-05      0.876D-06      -428.43359673    993.082270    0.00000    0.00000    0.70270    8
   12      0.301D-05      0.346D-06      -428.43359673    993.082367    0.00000    0.00000    0.70270    8
   13      0.171D-05      0.582D-07      -428.43359673    993.082393    0.00000    0.00000    0.70270    8
   14      0.191D-06      0.221D-07      -428.43359673    993.082388    0.00000    0.00000    0.70270    9
   15      0.749D-07      0.518D-08      -428.43359673    993.082388    0.00000    0.00000    0.70270    9
   16      0.157D-07      0.199D-08      -428.43359673    993.082388    0.00000    0.00000    0.70270    9
   17      0.621D-08      0.751D-09      -428.43359673    993.082388    0.00000    0.00000    0.70270    8
   18      0.223D-08      0.154D-09      -428.43359673    993.082388    0.00000    0.00000    0.70270    7
   19      0.401D-09      0.528D-10      -428.43359673    993.082388    0.00000    0.00000    0.70270    7
   20      0.143D-09      0.189D-10      -428.43359673    993.082388    0.00000    0.00000    0.70270    8
   21      0.359D-10      0.362D-11      -428.43359673    993.082388    0.00000    0.00000    0.70270    0

 Final occupancy:  14   3  10   2

 !RHF STATE 1.1 Energy               -428.433596730864
 Nuclear energy                       342.41825804
 One-electron energy                -1267.39304884
 Two-electron energy                  496.54119407
 Virial quotient                       -1.00059711
 !RHF STATE 1.1 Dipole moment           0.00000000     0.00000000     0.70270293
 Dipole moment /Debye                   0.00000000     0.00000000     1.78597572

 Orbital energies:

         1.1          2.1          3.1          4.1          5.1          6.1          7.1          8.1          9.1         10.1
    -26.320657   -11.349445   -11.273010   -11.258981   -11.255712    -1.639371    -1.178964    -1.047191    -0.875208    -0.774543

        11.1         12.1         13.1         14.1         15.1         16.1
     -0.702908    -0.668201    -0.623921    -0.533507     0.179899     0.220935

         1.2          2.2          3.2          4.2          5.2
     -0.703774    -0.513738    -0.360514     0.113537     0.344054

         1.3          2.3          3.3          4.3          5.3          6.3          7.3          8.3          9.3         10.3
    -26.320659   -11.349440   -11.255764    -1.638769    -1.036538    -0.864891    -0.740745    -0.684634    -0.585900    -0.554452

        11.3         12.3
      0.226861     0.340627

         1.4          2.4          3.4          4.4
     -0.695725    -0.348168     0.132119     0.715199


 **********************************************************************************************************************************
 DATASETS  * FILE   NREC   LENGTH (MB)   RECORD NAMES
              1      19       83.53       500      610      700      900      950      970     1000      129      960     1100   
                                          VAR    BASINP    GEOM    SYMINP    ZMAT    AOBASIS   BASIS     P2S    ABASIS      S 
                                         1400     1410     1200     1210     1080     1600     1650     1300     1700   
                                           T        V       H0       H01     AOSYM     SMH    MOLCAS    ERIS     OPER   

              2       3        0.58       700     1000     2100   
                                         GEOM     BASIS     RHF  

 PROGRAMS   *        TOTAL       RHF       INT
 CPU TIMES  *         3.46      0.80      2.62
 REAL TIME  *         4.08 SEC
 DISK USED  *       301.43 MB      
 GA USED    *         0.00 MB       (max)       0.00 MB       (current)
 **********************************************************************************************************************************


1PROGRAM * CCSD (Closed-shell coupled cluster)     Authors: C. Hampel, H.-J. Werner, 1991, M. Deegan, P.J. Knowles, 1992


 Convergence thresholds:  THRVAR = 1.00D-08  THRDEN = 1.00D-12

 CCSD(T)     terms to be evaluated (factor= 1.000)


 Number of core orbitals:           8 (   5   0   3   0 )
 Number of closed-shell orbitals:  21 (   9   3   7   2 )
 Number of external orbitals:     103 (  40  18  32  13 )

 Molecular orbitals read from record     2100.2  Type=RHF/CANONICAL (state 1.1)

 Number of N-1 electron functions:              21
 Number of N-2 electron functions:             231
 Number of singly external CSFs:               664
 Number of doubly external CSFs:            611519
 Total number of CSFs:                      612184

 Length of J-op  integral file:               0.00 MB
 Length of K-op  integral file:               0.40 MB
 Length of 3-ext integral record:             0.00 MB

 Memory could be reduced to 8.58 Mwords without degradation in triples

 Integral transformation finished. Total CPU:   0.35 sec, npass=  1  Memory used:   3.54 MW

 Reference energy:                   -428.43359673

 MP2 singlet pair energy:              -0.67262428
 MP2 triplet pair energy:              -0.46571544
 MP2 correlation energy:               -1.13833972
 MP2 total energy:                   -429.57193645

 SCS-MP2 correlation energy:           -1.09692763   (PS=  1.200000  PT=  0.333333)
 SCS-MP2 total energy:               -429.53052436

 ITER.      SQ.NORM     CORR.ENERGY   TOTAL ENERGY   ENERGY CHANGE        DEN1      VAR(S)    VAR(P)  DIIS     TIME
   1      1.36209501    -1.16808991  -429.60168664    -0.02975020     0.00048169  0.67D-02  0.73D-02  1  1     1.25
   2      1.38856030    -1.17162309  -429.60521982    -0.00353318    -0.02699547  0.13D-03  0.11D-02  2  2     2.20
   3      1.39935598    -1.17222468  -429.60582141    -0.00060159    -0.00538120  0.86D-04  0.10D-03  3  3     3.15
   4      1.40338743    -1.17215025  -429.60574699     0.00007442    -0.00142380  0.48D-05  0.20D-04  4  4     4.11
   5      1.40522847    -1.17218080  -429.60577753    -0.00003054    -0.00045094  0.91D-06  0.22D-05  5  5     5.06
   6      1.40570444    -1.17218654  -429.60578327    -0.00000574    -0.00006801  0.12D-06  0.24D-06  6  6     6.01
   7      1.40579151    -1.17218151  -429.60577824     0.00000503     0.00000027  0.28D-07  0.22D-07  6  1     6.98
   8      1.40581643    -1.17218264  -429.60577937    -0.00000112    -0.00000754  0.61D-08  0.30D-08  6  2     7.93
   9      1.40581773    -1.17218330  -429.60578003    -0.00000066     0.00000229  0.17D-08  0.34D-09  6  3     8.90
  10      1.40582009    -1.17218307  -429.60577980     0.00000023    -0.00000121  0.38D-09  0.75D-10  6  4     9.86
  11      1.40582015    -1.17218330  -429.60578004    -0.00000024     0.00000032  0.46D-10  0.20D-10  6  5    10.83
  12      1.40582034    -1.17218329  -429.60578002     0.00000002    -0.00000007  0.11D-10  0.24D-11  6  6    11.79
  13      1.40582034    -1.17218331  -429.60578004    -0.00000002     0.00000005  0.57D-12  0.56D-12  6  1    12.75
  14      1.40582033    -1.17218331  -429.60578004    -0.00000001     0.00000002  0.15D-12  0.86D-13  6  2    13.71
  15      1.40582033    -1.17218331  -429.60578004     0.00000000     0.00000000  0.40D-13  0.14D-13  6  3    14.67
  16      1.40582033    -1.17218331  -429.60578004    -0.00000000     0.00000000  0.62D-14  0.42D-14  6  4    15.63
  17      1.40582033    -1.17218331  -429.60578005    -0.00000000    -0.00000000  0.16D-14  0.72D-15  6  5    16.58
  18      1.40582033    -1.17218331  -429.60578005    -0.00000000    -0.00000000  0.21D-15  0.10D-15  6  6    17.54
  19      1.40582033    -1.17218331  -429.60578005    -0.00000000    -0.00000000  0.31D-16  0.23D-16  6  1    18.50
  20      1.40582033    -1.17218331  -429.60578005     0.00000000    -0.00000000  0.13D-16  0.29D-17  6  2    19.46
  21      1.40582033    -1.17218331  -429.60578005    -0.00000000    -0.00000000  0.14D-17  0.67D-18  6  3    20.41
  22      1.40582033    -1.17218331  -429.60578005    -0.00000000    -0.00000000  0.44D-18  0.14D-18  6  4    21.37
  23      1.40582033    -1.17218331  -429.60578005     0.00000000    -0.00000000  0.86D-19  0.23D-19  6  5    22.33
  24      1.40582033    -1.17218331  -429.60578005    -0.00000000    -0.00000000  0.74D-20  0.49D-20  6  6    23.29
  25      1.40582033    -1.17218331  -429.60578005    -0.00000000     0.00000000  0.18D-20  0.11D-20  6  1    24.25

 Norm of t1 vector:      0.10828695      S-energy:    -0.00000000      T1 diagnostic:  0.01181508
                                                                       D1 diagnostic:  0.03166836

 Doubles amplitudes (print threshold =  0.500E-01):

         I         J         SYM. A    SYM. B    A         B      T(IJ, AB)

        12        12         2         2         1         1     -0.08690377
        21        21         4         4         1         1     -0.08404807
        21        12         2         4         1         1     -0.05126406


 Total CPU time for triples:     18.54 sec


 RESULTS
 =======

  Reference energy                   -428.433596730864
  CCSD singlet pair energy             -0.756704282296
  CCSD triplet pair energy             -0.415479032096
  CCSD correlation energy              -1.172183314391

  Triples (T) contribution             -0.043063405964
  Total correlation energy             -1.215246720356

  CCSD total energy                  -429.605780045256
  CCSD[T] energy                     -429.650843213868
  CCSD-T energy                      -429.648119116408
 !CCSD(T) total energy               -429.648843451220

 Timing summary (sec):

 STEP                 CPU(USER)    SYS     CPU(TOT)    WALL
 Transformation          0.36      0.08      0.44      0.44
 CCSD iterations        23.89      1.07     24.96     25.03
 Triples                18.54      0.49     19.03     19.04

 Program statistics:

 Available memory in ccsd:               999998136
 Min. memory needed in ccsd:               1649999
 Max. memory used in ccsd:                 2209098
 Max. memory used in cckext:               2371604 (25 integral passes)



 **********************************************************************************************************************************
 DATASETS  * FILE   NREC   LENGTH (MB)   RECORD NAMES
              1      20      121.15       500      610      700      900      950      970     1000      129      960     1100   
                                          VAR    BASINP    GEOM    SYMINP    ZMAT    AOBASIS   BASIS     P2S    ABASIS      S 
                                         1400     1410     1200     1210     1080     1600     1650     1300     1700     1380   
                                           T        V       H0       H01     AOSYM     SMH    MOLCAS    ERIS     OPER     JKOP   

              2       3        0.58       700     1000     2100   
                                         GEOM     BASIS     RHF  

 PROGRAMS   *        TOTAL   CCSD(T)       RHF       INT
 CPU TIMES  *        46.26     42.80      0.80      2.62
 REAL TIME  *        48.63 SEC
 DISK USED  *       321.28 MB      
 GA USED    *         0.00 MB       (max)       0.00 MB       (current)
 **********************************************************************************************************************************

        CCSD(T)         RHF-SCF 
   -429.64884345   -428.43359673
 **********************************************************************************************************************************
 Variable memory released
