
    -----------------------------------------------------------------------
          Psi4: An Open-Source Ab Initio Electronic Structure Package
                               Psi4 1.4a2.dev629 

                         Git: Rev {master} 2938fc2 dirty


    D. G. A. Smith, L. A. Burns, A. C. Simmonett, R. M. Parrish,
    M. C. Schieber, R. Galvelis, P. Kraus, H. Kruse, R. Di Remigio,
    A. Alenaizan, A. M. James, S. Lehtola, J. P. Misiewicz, M. Scheurer,
    R. A. Shaw, J. B. Schriber, Y. Xie, Z. L. Glick, D. A. Sirianni,
    J. S. O'Brien, J. M. Waldrop, A. Kumar, E. G. Hohenstein,
    B. P. Pritchard, B. R. Brooks, H. F. Schaefer III, A. Yu. Sokolov,
    K. Patkowski, A. E. DePrince III, U. Bozkaya, R. A. King,
    F. A. Evangelista, J. M. Turney, T. D. Crawford, C. D. Sherrill,
    J. Chem. Phys. 152(18) 184108 (2020). https://doi.org/10.1063/5.0006002

                            Additional Code Authors
    E. T. Seidl, C. L. Janssen, E. F. Valeev, M. L. Leininger,
    J. F. Gonthier, R. M. Richard, H. R. McAlexander, M. Saitow, X. Wang,
    P. Verma, and M. H. Lechner

             Previous Authors, Complete List of Code Contributors,
                       and Citations for Specific Modules
    https://github.com/psi4/psi4/blob/master/codemeta.json
    https://github.com/psi4/psi4/graphs/contributors
    http://psicode.org/psi4manual/master/introduction.html#citing-psifour

    -----------------------------------------------------------------------


    Psi4 started on: Wednesday, 05 January 2022 03:21PM

    Process ID: 12176
    Host:       n087
    PSIDATADIR: /opt/psi/4/master/share/psi4
    Memory:     500.0 MiB
    Threads:    4
    
  ==> Input File <==

--------------------------------------------------------------------------
import os
memory 14 GB 
 
molecule {
 Si    0.0000000000    0.0000000000   -0.0000000049
 Cl    0.0083778883   -3.1347145441    2.2165724705
 Cl   -0.0083778883    3.1347145441    2.2165724705
 Cl    3.1347145295   -0.0083778884   -2.2165724686
 Cl   -3.1347145295    0.0083778884   -2.2165724686
units bohr
}

basis {

assign 6-31g_2dfp_

[ 6-31g_2dfp_ ]

spherical

!----------------------------------------------------------------------
! Basis Set Exchange
! Version v0.8.13
! https://www.basissetexchange.org
!----------------------------------------------------------------------
!   Basis set: 6-31G(2df,p)
! Description: 6-31G(2df,p)
!        Role: orbital
!     Version: 0  (Data from the original Basis Set Exchange)
!----------------------------------------------------------------------


****
H     0
S    3   1.00
     18.7311370              0.03349460
      2.8253937              0.23472695
      0.6401217              0.81375733
S    1   1.00
      0.1612778              1.00000000
P    1   1.00
      1.5000000              1.0000000
P    1   1.00
      0.3750000              1.0000000
****
B     0
S    6   1.00
   2068.8823000              0.0018663
    310.6495700              0.0142515
     70.6830330              0.0695516
     19.8610800              0.2325729
      6.2993048              0.4670787
      2.1270270              0.3634314
SP   3   1.00
      4.7279710             -0.1303938              0.0745976
      1.1903377             -0.1307889              0.3078467
      0.3594117              1.1309444              0.7434568
SP   1   1.00
      0.1267512              1.0000000              1.0000000
D    1   1.00
      0.8020000              1.0000000
D    1   1.00
      0.2005000              1.0000000
F    1   1.00
      0.5000000              1.0000000
****
C     0
S    6   1.00
   3047.5249000              0.0018347
    457.3695100              0.0140373
    103.9486900              0.0688426
     29.2101550              0.2321844
      9.2866630              0.4679413
      3.1639270              0.3623120
SP   3   1.00
      7.8682724             -0.1193324              0.0689991
      1.8812885             -0.1608542              0.3164240
      0.5442493              1.1434564              0.7443083
SP   1   1.00
      0.1687144              1.0000000              1.0000000
D    1   1.00
      1.2520000              1.0000000
D    1   1.00
      0.3130000              1.0000000
F    1   1.00
      0.8000000              1.0000000
****
N     0
S    6   1.00
   4173.5110000              0.0018348
    627.4579000              0.0139950
    142.9021000              0.0685870
     40.2343300              0.2322410
     12.8202100              0.4690700
      4.3904370              0.3604550
SP   3   1.00
     11.6263580             -0.1149610              0.0675800
      2.7162800             -0.1691180              0.3239070
      0.7722180              1.1458520              0.7408950
SP   1   1.00
      0.2120313              1.0000000              1.0000000
D    1   1.00
      1.8260000              1.0000000
D    1   1.00
      0.4565000              1.0000000
F    1   1.00
      1.0000000              1.0000000
****
O     0
S    6   1.00
   5484.6717000              0.0018311
    825.2349500              0.0139501
    188.0469600              0.0684451
     52.9645000              0.2327143
     16.8975700              0.4701930
      5.7996353              0.3585209
SP   3   1.00
     15.5396160             -0.1107775              0.0708743
      3.5999336             -0.1480263              0.3397528
      1.0137618              1.1307670              0.7271586
SP   1   1.00
      0.2700058              1.0000000              1.0000000
D    1   1.00
      2.5840000              1.0000000
D    1   1.00
      0.6460000              1.0000000
F    1   1.00
      1.4000000              1.0000000
****
F     0
S    6   1.00
   7001.7130900              0.0018196169
   1051.3660900              0.0139160796
    239.2856900              0.0684053245
     67.3974453              0.233185760
     21.5199573              0.471267439
      7.40310130             0.356618546
SP   3   1.00
     20.8479528             -0.108506975            0.0716287243
      4.80830834            -0.146451658            0.3459121030
      1.34406986             1.128688580            0.7224699570
SP   1   1.00
      0.358151393            1.0000000              1.0000000
D    1   1.00
      3.5000000              1.0000000
D    1   1.00
      0.8750000              1.0000000
F    1   1.00
      1.8500000              1.0000000
****
Al     0
S    6   1.00
  13983.1000000              0.00194267
   2098.7500000              0.0148599
    477.7050000              0.0728494
    134.3600000              0.2468300
     42.8709000              0.4872580
     14.5189000              0.3234960
SP   6   1.00
    239.6680000             -0.00292619             0.00460285
     57.4419000             -0.0374080              0.0331990
     18.2859000             -0.1144870              0.1362820
      6.5991400              0.1156350              0.3304760
      2.4904900              0.6125950              0.4491460
      0.9445400              0.3937990              0.2657040
SP   3   1.00
      1.2779000             -0.2276060             -0.0175130
      0.3975900              0.00144583             0.2445330
      0.1600950              1.0927900              0.8049340
SP   1   1.00
      0.0556577              1.0000000              1.0000000
D    1   1.00
      0.6500000              1.0000000
D    1   1.00
      0.1625000              1.0000000
F    1   1.00
      0.2500000              1.0000000
****
Si     0
S    6   1.00
  16115.9000000              0.00195948
   2425.5800000              0.01492880
    553.8670000              0.07284780
    156.3400000              0.24613000
     50.0683000              0.48591400
     17.0178000              0.32500200
SP   6   1.00
    292.7180000             -0.00278094             0.00443826
     69.8731000             -0.03571460             0.03266790
     22.3363000             -0.11498500             0.13472100
      8.1503900              0.09356340             0.32867800
      3.1345800              0.60301700             0.44964000
      1.2254300              0.41895900             0.26137200
SP   3   1.00
      1.7273800             -0.24463000            -0.01779510
      0.5729220              0.00431572             0.25353900
      0.2221920              1.09818000             0.80066900
SP   1   1.00
      0.0778369              1.00000000             1.00000000
D    1   1.00
      0.9000000              1.0000000
D    1   1.00
      0.2250000              1.0000000
F    1   1.00
      0.3200000              1.0000000
****
P     0
S    6   1.00
  19413.3000000              0.0018516
   2909.4200000              0.0142062
    661.3640000              0.0699995
    185.7590000              0.2400790
     59.1943000              0.4847620
     20.0310000              0.3352000
SP   6   1.00
    339.4780000             -0.00278217             0.00456462
     81.0101000             -0.0360499              0.03369360
     25.8780000             -0.1166310              0.13975500
      9.4522100              0.0968328              0.33936200
      3.6656600              0.6144180              0.45092100
      1.4674600              0.4037980              0.23858600
SP   3   1.00
      2.1562300             -0.2529230             -0.01776530
      0.7489970              0.0328517              0.27405800
      0.2831450              1.0812500              0.78542100
SP   1   1.00
      0.0998317              1.0000000              1.00000000
D    1   1.00
      1.1000000              1.0000000
D    1   1.00
      0.2750000              1.0000000
F    1   1.00
      0.4500000              1.0000000
****
S     0
S    6   1.00
  21917.1000000              0.0018690
   3301.4900000              0.0142300
    754.1460000              0.0696960
    212.7110000              0.2384870
     67.9896000              0.4833070
     23.0515000              0.3380740
SP   6   1.00
    423.7350000             -0.0023767              0.0040610
    100.7100000             -0.0316930              0.0306810
     32.1599000             -0.1133170              0.1304520
     11.8079000              0.0560900              0.3272050
      4.6311000              0.5922550              0.4528510
      1.8702500              0.4550060              0.2560420
SP   3   1.00
      2.6158400             -0.2503740             -0.0145110
      0.9221670              0.0669570              0.3102630
      0.3412870              1.0545100              0.7544830
SP   1   1.00
      0.1171670              1.0000000              1.0000000
D    1   1.00
      1.3000000              1.0000000
D    1   1.00
      0.3250000              1.0000000
F    1   1.00
      0.5500000              1.0000000
****
Cl     0
S    6   1.00
  25180.1000000              0.0018330
   3780.3500000              0.0140340
    860.4740000              0.0690970
    242.1450000              0.2374520
     77.3349000              0.4830340
     26.2470000              0.3398560
SP   6   1.00
    491.7650000             -0.0022974              0.0039894
    116.9840000             -0.0307140              0.0303180
     37.4153000             -0.1125280              0.1298800
     13.7834000              0.0450160              0.3279510
      5.4521500              0.5893530              0.4535270
      2.2258800              0.4652060              0.2521540
SP   3   1.00
      3.1864900             -0.2518300             -0.0142990
      1.1442700              0.0615890              0.3235720
      0.4203770              1.0601800              0.7435070
SP   1   1.00
      0.1426570              1.0000000              1.0000000
D    1   1.00
      1.5000000              1.0000000
D    1   1.00
      0.3750000              1.0000000
F    1   1.00
      0.7000000              1.0000000
****
}


set {
reference rhf                          
freeze_core true
e_convergence 10                       
d_convergence 10                      
dft_spherical_points 1202
dft_radial_points 99
}

e = energy('b3lyp')

print_out('Grab this energy {0}'.format(e))
--------------------------------------------------------------------------

  Memory set to  13.039 GiB by Python driver.

Scratch directory: /tmp/

*** tstart() called on n087
*** at Wed Jan  5 15:21:47 2022

   => Loading Basis Set <=

    Name: ANONYMOUS48799B71
    Role: ORBITAL
    Keyword: BASIS
    atoms 1   entry SI         line   160 inputblock 6-31g_2dfp_ 
    atoms 2-5 entry CL         line   244 inputblock 6-31g_2dfp_ 


         ---------------------------------------------------------
                                   SCF
               by Justin Turney, Rob Parrish, Andy Simmonett
                          and Daniel G. A. Smith
                              RKS Reference
                        4 Threads,  13351 MiB Core
         ---------------------------------------------------------

  ==> Geometry <==

    Molecular point group: c2
    Full point group: C2

    Geometry (in Bohr), charge = 0, multiplicity = 1:

       Center              X                  Y                   Z               Mass       
    ------------   -----------------  -----------------  -----------------  -----------------
         SI           0.000000000000     0.000000000000    -0.000000004875    27.976926534650
         CL           0.008377888300    -3.134714544100     2.216572470525    34.968852682000
         CL          -0.008377888300     3.134714544100     2.216572470525    34.968852682000
         CL           3.134714529500    -0.008377888400    -2.216572468575    34.968852682000
         CL          -3.134714529500     0.008377888400    -2.216572468575    34.968852682000

  Running in c2 symmetry.

  Rotational constants: A =      0.04392  B =      0.04380  C =      0.04368 [cm^-1]
  Rotational constants: A =   1316.55599  B =   1313.02943  C =   1309.53746 [MHz]
  Nuclear repulsion =  524.546558626750993

  Charge       = 0
  Multiplicity = 1
  Electrons    = 82
  Nalpha       = 41
  Nbeta        = 41

  ==> Algorithm <==

  SCF Algorithm Type is DF.
  DIIS enabled.
  MOM disabled.
  Fractional occupation disabled.
  Guess Type is SAD.
  Energy threshold   = 1.00e-10
  Density threshold  = 1.00e-10
  Integral threshold = 0.00e+00

  ==> Primary Basis <==

  Basis Set: ANONYMOUS48799B71
    Blend: 6-31G_2DFP_
    Number of shells: 50
    Number of basis function: 150
    Number of Cartesian functions: 175
    Spherical Harmonics?: true
    Max angular momentum: 3

  ==> DFT Potential <==

   => Composite Functional: B3LYP <= 

    B3LYP Hyb-GGA Exchange-Correlation Functional

    P. J. Stephens, F. J. Devlin, C. F. Chabalowski, and M. J. Frisch, J. Phys. Chem. 98, 11623 (1994)

    Deriv               =              1
    GGA                 =           TRUE
    Meta                =          FALSE

    Exchange Hybrid     =           TRUE
    MP2 Hybrid          =          FALSE

   => Exchange Functionals <=

    0.0800   Slater exchange
    0.7200         Becke 88

   => Exact (HF) Exchange <=

    0.2000               HF 

   => Correlation Functionals <=

    0.1900   Vosko, Wilk & Nusair (VWN5_RPA)
    0.8100   Lee, Yang & Parr

   => Molecular Quadrature <=

    Radial Scheme          =       TREUTLER
    Pruning Scheme         =           NONE
    Nuclear Scheme         =       TREUTLER

    BS radius alpha        =              1
    Pruning alpha          =              1
    Radial Points          =             99
    Spherical Points       =           1202
    Total Points           =         552226
    Total Blocks           =           3973
    Max Points             =            256
    Max Functions          =            142
    Weights Tolerance      =       1.00E-15

   => Loading Basis Set <=

    Name: (ANONYMOUS48799B71 AUX)
    Role: JKFIT
    Keyword: DF_BASIS_SCF
    atoms 1   entry SI         line   737 file /opt/psi/4/master/share/psi4/basis/def2-universal-jkfit.gbs 
    atoms 2-5 entry CL         line   986 file /opt/psi/4/master/share/psi4/basis/def2-universal-jkfit.gbs 

  ==> Integral Setup <==

  DFHelper Memory: AOs need 0.111 GiB; user supplied 8.106 GiB. Using in-core AOs.

  ==> MemDFJK: Density-Fitted J/K Matrices <==

    J tasked:                   Yes
    K tasked:                   Yes
    wK tasked:                   No
    OpenMP threads:               4
    Memory [MiB]:              8300
    Algorithm:                 Core
    Schwarz Cutoff:           1E-12
    Mask sparsity (%):       4.2311
    Fitting Condition:        1E-10

   => Auxiliary Basis Set <=

  Basis Set: (ANONYMOUS48799B71 AUX)
    Blend: DEF2-UNIVERSAL-JKFIT
    Number of shells: 190
    Number of basis function: 640
    Number of Cartesian functions: 775
    Spherical Harmonics?: true
    Max angular momentum: 4

  Cached 100.0% of DFT collocation blocks in 1.673 [GiB].

  Minimum eigenvalue in the overlap matrix is 5.0226236044E-03.
  Reciprocal condition number of the overlap matrix is 1.2830648346E-03.
    Using symmetric orthogonalization.

  ==> Pre-Iterations <==

  SCF Guess: Superposition of Atomic Densities via on-the-fly atomic UHF (no occupation information).

   -------------------------
    Irrep   Nso     Nmo    
   -------------------------
     A         76      76 
     B         74      74 
   -------------------------
    Total     150     150
   -------------------------

  ==> Iterations <==

                           Total Energy        Delta E     RMS |[F,P]|

   @DF-RKS iter SAD: -2130.64785953209503   -2.13065e+03   0.00000e+00 
   @DF-RKS iter   1: -2130.43341614286510    2.14443e-01   2.92466e-03 DIIS
   @DF-RKS iter   2: -2130.45677731411251   -2.33612e-02   2.28738e-03 DIIS
   @DF-RKS iter   3: -2130.48891169119952   -3.21344e-02   2.41715e-04 DIIS
   @DF-RKS iter   4: -2130.48924073407215   -3.29043e-04   8.06514e-05 DIIS
   @DF-RKS iter   5: -2130.48928083835335   -4.01043e-05   3.95009e-06 DIIS
   @DF-RKS iter   6: -2130.48928092024198   -8.18886e-08   6.73220e-07 DIIS
   @DF-RKS iter   7: -2130.48928092347887   -3.23689e-09   6.82856e-08 DIIS
   @DF-RKS iter   8: -2130.48928092350661   -2.77396e-11   3.38257e-08 DIIS
   @DF-RKS iter   9: -2130.48928092351343   -6.82121e-12   1.77824e-09 DIIS
   @DF-RKS iter  10: -2130.48928092351298    4.54747e-13   1.41340e-10 DIIS
   @DF-RKS iter  11: -2130.48928092351298    0.00000e+00   1.54909e-11 DIIS
  Energy and wave function converged.


  ==> Post-Iterations <==

    Orbital Energies [Eh]
    ---------------------

    Doubly Occupied:                                                      

       1A   -101.554015     1B   -101.554002     2A   -101.554002  
       2B   -101.554002     3A    -66.281979     4A     -9.485294  
       3B     -9.485258     5A     -9.485257     4B     -9.485257  
       5B     -7.245571     6A     -7.245571     6B     -7.245571  
       7A     -7.245536     7B     -7.240128     8A     -7.240125  
       8B     -7.240121     9B     -7.240116     9A     -7.240112  
      10B     -7.240109    10A     -7.240087    11A     -7.240077  
      12A     -5.417518    11B     -3.777069    13A     -3.777055  
      12B     -3.777040    14A     -0.893628    13B     -0.847029  
      15A     -0.846893    14B     -0.846759    16A     -0.552313  
      15B     -0.448751    17A     -0.448581    16B     -0.448412  
      18A     -0.376489    19A     -0.376142    17B     -0.366066  
      20A     -0.366025    18B     -0.365984    19B     -0.337005  
      21A     -0.336929    20B     -0.336855  

    Virtual:                                                              

      22A     -0.030566    21B      0.020595    23A      0.021107  
      22B      0.021619    24A      0.107289    23B      0.174812  
      25A      0.174996    24B      0.175177    26A      0.186961  
      27A      0.187073    25B      0.258595    28A      0.258662  
      26B      0.258730    27B      0.362592    29A      0.362768  
      28B      0.362942    30A      0.370562    31A      0.377746  
      32A      0.378014    29B      0.381718    33A      0.381808  
      30B      0.381900    31B      0.428122    34A      0.428195  
      32B      0.428271    33B      0.434287    35A      0.434562  
      34B      0.434832    36A      0.463349    37A      0.463797  
      35B      0.548719    38A      0.549036    36B      0.549358  
      37B      0.587729    39A      0.588257    38B      0.588803  
      40A      0.663411    39B      0.667959    41A      0.668098  
      40B      0.668204    41B      0.738631    42A      0.739655  
      42B      0.740673    43A      0.777409    44A      0.778216  
      45A      0.911723    43B      0.974415    46A      0.974838  
      44B      0.975258    45B      1.212281    47A      1.212839  
      46B      1.213432    47B      1.237944    48A      1.238778  
      48B      1.239577    49A      1.281498    50A      1.721230  
      51A      1.722920    49B      1.739325    52A      1.739803  
      50B      1.740286    51B      2.019425    53A      2.019449  
      52B      2.019467    54A      2.039142    55A      2.039344  
      53B      2.039683    56A      2.039709    54B      2.039736  
      57A      2.041519    55B      2.042177    58A      2.042208  
      56B      2.042238    59A      2.047888    57B      2.112838  
      60A      2.112880    58B      2.112922    61A      2.130800  
      62A      2.131247    59B      2.141867    63A      2.141908  
      60B      2.141947    64A      2.169419    61B      2.219282  
      65A      2.219322    62B      2.219525    63B      2.219860  
      66A      2.220247    64B      2.220471    67A      2.326071  
      68A      2.326535    65B      2.350896    69A      2.351386  
      66B      2.351866    70A      2.435021    67B      2.435021  
      68B      2.435029    71A      2.685948    69B      2.708680  
      72A      2.709255    70B      2.709839    71B      2.763951  
      73A      2.766171    72B      2.768366    74A      2.819221  
      75A      2.822207    73B      2.847886    76A      2.848012  
      74B      2.848149  

    Final Occupation by Irrep:
              A     B 
    DOCC [    21,   20 ]

  @DF-RKS Final Energy: -2130.48928092351298

   => Energetics <=

    Nuclear Repulsion Energy =            524.5465586267509934
    One-Electron Energy =               -3988.7343668801318017
    Two-Electron Energy =                1441.7126717066607853
    DFT Exchange-Correlation Energy =    -108.0141443767928280
    Empirical Dispersion Energy =           0.0000000000000000
    VV10 Nonlocal Energy =                  0.0000000000000000
    Total Energy =                      -2130.4892809235129789

Computation Completed


Properties will be evaluated at   0.000000,   0.000000,   0.000000 [a0]

Properties computed using the SCF density matrix

  Nuclear Dipole Moment: [e a0]
     X:     0.0000      Y:     0.0000      Z:    -0.0000

  Electronic Dipole Moment: [e a0]
     X:     0.0000      Y:     0.0000      Z:    -0.0000

  Dipole Moment: [e a0]
     X:     0.0000      Y:     0.0000      Z:    -0.0000     Total:     0.0000

  Dipole Moment: [D]
     X:     0.0000      Y:     0.0000      Z:    -0.0000     Total:     0.0000


*** tstop() called on n087 at Wed Jan  5 15:21:55 2022
Module time:
	user time   =      28.63 seconds =       0.48 minutes
	system time =       0.55 seconds =       0.01 minutes
	total time  =          8 seconds =       0.13 minutes
Total time:
	user time   =      28.63 seconds =       0.48 minutes
	system time =       0.55 seconds =       0.01 minutes
	total time  =          8 seconds =       0.13 minutes
Grab this energy -2130.489280923513
    Psi4 stopped on: Wednesday, 05 January 2022 03:21PM
    Psi4 wall time for execution: 0:00:07.57

*** Psi4 exiting successfully. Buy a developer a beer!
