
 Primary working directories    : /tmp/1059987.299.gen6.q
 Secondary working directories  : /tmp/1059987.299.gen6.q
 Wavefunction directory         : /home/vulcan/jj04645/wfu/
 Main file repository           : /tmp/1059987.299.gen6.q/

 ARCHNAME  : Linux/x86_64
 FC        : /opt/intel/compilers_and_libraries_2016.1.150/linux/bin/intel64/ifort
 FCVERSION : 16.0.1
 BLASLIB   : -mkl
 id        : ccgc

 Nodes     nprocs
 n088         1
 ga_uses_ma=false, calling ma_init with nominal heap.
 GA-space will be limited to   8.0 MW (determined by -G option)

 Using customized tuning parameters: mindgm=10; mindgv=16; mindgc=4; mindgr=1; noblas=0; mincuda=1000; minvec=7
 default implementation of scratch files=df  

 ***,Optimization of 1_4_cyclohexadiene
 memory,1000,m
 gthresh,energy=1.0d-12,orbital=1.0d-10,oneint=1.0d-16,twoint=1.0d-16,optgrad=1.0d-6,compress=1.0d-13
 geomtyp=xyz
 
 bohr
 geometry = {
  H    4.1027155345   -0.0000000000   -1.6468163392
  C    2.8424126047   -0.0000000000    0.0000000000
  C   -1.2640620355    2.3727276852    0.0000000000
  C   -1.2640620355   -2.3727276852    0.0000000000
  C   -2.8371636739   -0.0000000000    0.0000000000
  C    1.2603802510   -2.3667824500    0.0000000000
  C    1.2603802510    2.3667824500    0.0000000000
  H   -2.2669546002    4.1617227590    0.0000000000
  H    2.2641148860    4.1553052071    0.0000000000
  H   -4.0988185013   -0.0000000000   -1.6457808561
  H    2.2641148860   -4.1553052071    0.0000000000
  H   -2.2669546002   -4.1617227590    0.0000000000
  H    4.1027155345    0.0000000000    1.6468163392
  H   -4.0988185013   -0.0000000000    1.6457808561
 }
 
 basis=VDZ
 {rhf;maxit,200}
 {ccsd(t);maxit,200}

 Variables initialized (661), CPU time= 0.01 sec
 Commands  initialized (458), CPU time= 0.00 sec, 486 directives.
 Default parameters read. Elapsed time= 0.04 sec

 Checking input...
 Passed
1


                                         ***  PROGRAM SYSTEM MOLPRO  ***
                         Copyright, University College Cardiff Consultants Limited, 2008

                                    Version 2010.1 linked May 16 2016 07:17:05


 **********************************************************************************************************************************
 LABEL *   Optimization of 1_4_cyclohexadiene                                            
 Linux-4.4.3/n088(x86_64) 64 bit mpp version                                             DATE: 06-May-24          TIME: 14:57:51  
 **********************************************************************************************************************************

 SHA1:             9e8077add272b0f3cad6f7df79ec5211205f459d
 **********************************************************************************************************************************

 THRESHOLDS:

 ZERO    =  1.00D-12  ONEINT  =  1.00D-16  TWOINT  =  1.00D-16  PREFAC  =  1.00D-14  LOCALI  =  1.00D-09  EORDER  =  1.00D-04
 ENERGY  =  1.00D-12  ETEST   =  0.00D+00  EDENS   =  0.00D+00  THRDEDEF=  1.00D-06  GRADIENT=  1.00D-02  STEP    =  1.00D-03
 ORBITAL =  1.00D-10  CIVEC   =  1.00D-05  COEFF   =  1.00D-04  PRINTCI =  5.00D-02  PUNCHCI =  9.90D+01  OPTGRAD =  1.00D-06
 OPTENERG=  1.00D-06  OPTSTEP =  3.00D-04  THRGRAD =  1.00D-10  COMPRESS=  1.00D-13  VARMIN  =  1.00D-07  VARMAX  =  1.00D-03
 THRDOUB =  0.00D+00  THRDIV  =  1.00D-05  THRRED  =  1.00D-07  THRPSP  =  1.00D+00  THRDC   =  1.00D-10  THRCS   =  1.00D-10
 THRNRM  =  1.00D-08  THREQ   =  0.00D+00  THRDE   =  1.00D+00  THRREF  =  1.00D-05  SPARFAC =  1.00D+00  THRDLP  =  1.00D-07
 THRDIA  =  1.00D-10  THRDLS  =  1.00D-07  THRGPS  =  0.00D+00  THRKEX  =  0.00D+00  THRDIS  =  2.00D-01  THRVAR  =  1.00D-10
 THRLOC  =  1.00D-06  THRGAP  =  1.00D-06  THRLOCT = -1.00D+00  THRGAPT = -1.00D+00  THRORB  =  1.00D-06  THRMLTP =  0.00D+00
 THRCPQCI=  1.00D-10  KEXTA   =  0.00D+00  THRCOARS=  0.00D+00  SYMTOL  =  1.00D-06  GRADTOL =  1.00D-06  THROVL  =  1.00D-08
 THRORTH =  1.00D-08  GRID    =  1.00D-06  GRIDMAX =  1.00D-03  DTMAX   =  0.00D+00

 SETTING GEOMTYP        =    XYZ
 ZUNIT=BOHR
 

 Variable memory set to 1000000000 words,  buffer space   230000 words

 SETTING BASIS          =    VDZ


 Recomputing integrals since basis changed


 Using spherical harmonics

 Library entry H      S cc-pVDZ              selected for orbital group  1
 Library entry H      P cc-pVDZ              selected for orbital group  1
 Library entry C      S cc-pVDZ              selected for orbital group  2
 Library entry C      P cc-pVDZ              selected for orbital group  2
 Library entry C      D cc-pVDZ              selected for orbital group  2

1PROGRAM * SEWARD (Integral evaluation for generally contracted gaussian basis sets)     Author: Roland Lindh, 1990

 Geometry written to block  1 of record 700


 Point group  C2v 



 ATOMIC COORDINATES

 NR  ATOM    CHARGE       X              Y              Z

   1  H       1.00    4.102715534    0.000000000   -1.646816339
   2  H       1.00    4.102715534    0.000000000    1.646816339
   3  C       6.00    2.842412605    0.000000000    0.000000000
   4  C       6.00   -1.264062036    2.372727685    0.000000000
   5  C       6.00   -1.264062036   -2.372727685    0.000000000
   6  C       6.00   -2.837163674    0.000000000    0.000000000
   7  C       6.00    1.260380251   -2.366782450    0.000000000
   8  C       6.00    1.260380251    2.366782450    0.000000000
   9  H       1.00   -2.266954600    4.161722759    0.000000000
  10  H       1.00   -2.266954600   -4.161722759    0.000000000
  11  H       1.00    2.264114886    4.155305207    0.000000000
  12  H       1.00    2.264114886   -4.155305207    0.000000000
  13  H       1.00   -4.098818501    0.000000000   -1.645780856
  14  H       1.00   -4.098818501    0.000000000    1.645780856

 Bond lengths in Bohr (Angstrom)

 1-3  2.073732753  2-3  2.073732753  3-7  2.846837813  3-8  2.846837813  4-6  2.846837795
     ( 1.097372110)     ( 1.097372110)     ( 1.506481688)     ( 1.506481688)     ( 1.506481679)

  4- 8  2.524449287   4- 9  2.050925857   5- 6  2.846837795   5- 7  2.524449287   5-10  2.050925857
       ( 1.335881028)       ( 1.085303221)       ( 1.506481679)       ( 1.335881028)       ( 1.085303221)

  6-13  2.073732753   6-14  2.073732753   7-12  2.050925857   8-11  2.050925857
       ( 1.097372110)       ( 1.097372110)       ( 1.085303221)       ( 1.085303221)

 Bond angles

  1-3-2  105.14658611   1-3-7  109.73887759   1-3-8  109.73887759   2-3-7  109.73887759

  2- 3- 8  109.73887759   3- 7- 5  123.89495706   3- 7-12  116.93845618   3- 8- 4  123.89495706

  3- 8-11  116.93845618   4- 6- 5  112.91180787   4- 6-13  109.64477789   4- 6-14  109.64477789

  4- 8-11  119.16658676   5- 6-13  109.64477789   5- 6-14  109.64477789   5- 7-12  119.16658676

  6- 4- 8  123.40916081   6- 4- 9  117.18135430   6- 5- 7  123.40916081   6- 5-10  117.18135430

  7- 3- 8  112.47995638   7- 5-10  119.40948489   8- 4- 9  119.40948489  13- 6-14  105.05248650

 NUCLEAR CHARGE:                   44
 NUMBER OF PRIMITIVE AOS:         218
 NUMBER OF SYMMETRY AOS:          212
 NUMBER OF CONTRACTIONS:          124   (  50A1  +  36B1  +  24B2  +  14A2  )
 NUMBER OF CORE ORBITALS:           6   (   4A1  +   2B1  +   0B2  +   0A2  )
 NUMBER OF VALENCE ORBITALS:       32   (  14A1  +  10B1  +   6B2  +   2A2  )


 NUCLEAR REPULSION ENERGY  217.77028257


 Eigenvalues of metric

         1 0.669E-03 0.313E-02 0.346E-02 0.163E-01 0.182E-01 0.259E-01 0.273E-01 0.319E-01
         2 0.167E-02 0.433E-02 0.564E-02 0.143E-01 0.257E-01 0.311E-01 0.360E-01 0.535E-01
         3 0.227E-01 0.356E-01 0.366E-01 0.382E-01 0.767E-01 0.112E+00 0.147E+00 0.200E+00
         4 0.989E-01 0.170E+00 0.242E+00 0.348E+00 0.350E+00 0.437E+00 0.538E+00 0.830E+00


 Contracted 2-electron integrals neglected if value below      1.0D-16
 AO integral compression algorithm  1   Integral accuracy      1.0D-16

     71.827 MB (compressed) written to integral file ( 98.3%)

     Node minimum: 71.827 MB, node maximum: 71.827 MB


 NUMBER OF SORTED TWO-ELECTRON INTEGRALS:    7900941.     BUFFER LENGTH:  32768
 NUMBER OF SEGMENTS:   1  SEGMENT LENGTH:    7900941      RECORD LENGTH: 524288

 Memory used in sort:       8.46 MW

 SORT1 READ     9122526. AND WROTE     7870510. INTEGRALS IN     23 RECORDS. CPU TIME:     0.17 SEC, REAL TIME:     0.21 SEC
 SORT2 READ     7870510. AND WROTE     7900941. INTEGRALS IN    274 RECORDS. CPU TIME:     0.09 SEC, REAL TIME:     0.13 SEC

 FILE SIZES:   FILE 1:    65.5 MBYTE,  FILE 4:    96.5 MBYTE,   TOTAL:    162.0 MBYTE

 OPERATOR DM      FOR CENTER  0  COORDINATES:    0.000000    0.000000    0.000000


 **********************************************************************************************************************************
 DATASETS  * FILE   NREC   LENGTH (MB)   RECORD NAMES
              1      19       65.54       500      610      700      900      950      970     1000      129      960     1100   
                                          VAR    BASINP    GEOM    SYMINP    ZMAT    AOBASIS   BASIS     P2S    ABASIS      S 
                                         1400     1410     1200     1210     1080     1600     1650     1300     1700   
                                           T        V       H0       H01     AOSYM     SMH    MOLCAS    ERIS     OPER   

 PROGRAMS   *        TOTAL       INT
 CPU TIMES  *         1.69      1.65
 REAL TIME  *         1.98 SEC
 DISK USED  *       234.75 MB      
 GA USED    *         0.00 MB       (max)       0.00 MB       (current)
 **********************************************************************************************************************************

1PROGRAM * RHF-SCF (CLOSED SHELL)       Authors: W. Meyer, H.-J. Werner


 NUMBER OF ELECTRONS:      22+   22-
 CONVERGENCE THRESHOLDS:    1.00E-10 (Density)    1.00E-13 (Energy)
 MAX. NUMBER OF ITERATIONS:      200
 INTERPOLATION TYPE:            DIIS
 INTERPOLATION STEPS:              2 (START)      1 (STEP)
 LEVEL SHIFTS:                  0.00 (CLOSED)  0.00 (OPEN) 



 Orbital guess generated from atomic densities. Full valence occupancy:   18  12   6   2

 Molecular orbital dump at record        2100.2

 Initial alpha occupancy:  11   7   3   1
 Initial beta  occupancy:  11   7   3   1
 Wave function symmetry:    1

 ITERATION    DDIFF          GRAD             ENERGY        2-EL.EN.            DIPOLE MOMENTS         DIIS
    1      0.000D+00      0.000D+00      -231.78170501    590.518150   -0.00052    0.00000    0.00000    0
    2      0.000D+00      0.824D-02      -231.84405525    585.650121    0.00135    0.00000    0.00000    1
    3      0.164D-01      0.324D-02      -231.85161877    587.976878    0.00037    0.00000    0.00000    2
    4      0.614D-02      0.110D-02      -231.85286046    587.368031    0.00131    0.00000    0.00000    3
    5      0.225D-02      0.112D-03      -231.85287878    587.373193    0.00082    0.00000    0.00000    4
    6      0.420D-03      0.243D-04      -231.85287939    587.369995    0.00127    0.00000    0.00000    5
    7      0.589D-04      0.813D-05      -231.85287945    587.371036    0.00106    0.00000    0.00000    6
    8      0.231D-04      0.166D-05      -231.85287945    587.370940    0.00116    0.00000    0.00000    7
    9      0.544D-05      0.559D-06      -231.85287945    587.370958    0.00110    0.00000    0.00000    6
   10      0.129D-05      0.215D-06      -231.85287945    587.370963    0.00112    0.00000    0.00000    7
   11      0.539D-06      0.334D-07      -231.85287945    587.370960    0.00112    0.00000    0.00000    7
   12      0.108D-06      0.518D-08      -231.85287945    587.370961    0.00112    0.00000    0.00000    7
   13      0.154D-07      0.124D-08      -231.85287945    587.370960    0.00112    0.00000    0.00000    6
   14      0.400D-08      0.360D-09      -231.85287945    587.370960    0.00112    0.00000    0.00000    7
   15      0.951D-09      0.101D-09      -231.85287945    587.370960    0.00112    0.00000    0.00000    7
   16      0.270D-09      0.251D-10      -231.85287945    587.370960    0.00112    0.00000    0.00000    6
   17      0.830D-10      0.670D-11      -231.85287945    587.370960    0.00112    0.00000    0.00000    0

 Final occupancy:  11   7   3   1

 !RHF STATE 1.1 Energy               -231.852879452154
 Nuclear energy                       217.77028257
 One-electron energy                 -743.30864222
 Two-electron energy                  293.68548020
 Virial quotient                       -1.00112010
 !RHF STATE 1.1 Dipole moment           0.00111882     0.00000000     0.00000000
 Dipole moment /Debye                   0.00284356     0.00000000     0.00000000

 Orbital energies:

         1.1          2.1          3.1          4.1          5.1          6.1          7.1          8.1          9.1         10.1
    -11.234112   -11.233678   -11.228899   -11.227260    -1.122206    -1.004142    -0.862509    -0.678405    -0.654479    -0.530983

        11.1         12.1         13.1
     -0.491156     0.180794     0.217684

         1.2          2.2          3.2          4.2          5.2          6.2          7.2          8.2          9.2
    -11.228955   -11.227291    -1.009358    -0.783966    -0.597944    -0.561658    -0.445134     0.223502     0.258070

         1.3          2.3          3.3          4.3          5.3
     -0.595096    -0.561494    -0.330514     0.194165     0.257047

         1.4          2.4          3.4
     -0.359603     0.175227     0.726259


 **********************************************************************************************************************************
 DATASETS  * FILE   NREC   LENGTH (MB)   RECORD NAMES
              1      19       65.54       500      610      700      900      950      970     1000      129      960     1100   
                                          VAR    BASINP    GEOM    SYMINP    ZMAT    AOBASIS   BASIS     P2S    ABASIS      S 
                                         1400     1410     1200     1210     1080     1600     1650     1300     1700   
                                           T        V       H0       H01     AOSYM     SMH    MOLCAS    ERIS     OPER   

              2       3        0.59       700     1000     2100   
                                         GEOM     BASIS     RHF  

 PROGRAMS   *        TOTAL       RHF       INT
 CPU TIMES  *         2.07      0.37      1.65
 REAL TIME  *         2.47 SEC
 DISK USED  *       234.75 MB      
 GA USED    *         0.00 MB       (max)       0.00 MB       (current)
 **********************************************************************************************************************************


1PROGRAM * CCSD (Closed-shell coupled cluster)     Authors: C. Hampel, H.-J. Werner, 1991, M. Deegan, P.J. Knowles, 1992


 Convergence thresholds:  THRVAR = 1.00D-08  THRDEN = 1.00D-12

 CCSD(T)     terms to be evaluated (factor= 1.000)


 Number of core orbitals:           6 (   4   2   0   0 )
 Number of closed-shell orbitals:  16 (   7   5   3   1 )
 Number of external orbitals:     102 (  39  29  21  13 )

 Molecular orbitals read from record     2100.2  Type=RHF/CANONICAL (state 1.1)

 Number of N-1 electron functions:              16
 Number of N-2 electron functions:             136
 Number of singly external CSFs:               494
 Number of doubly external CSFs:            343640
 Total number of CSFs:                      344135

 Length of J-op  integral file:               0.00 MB
 Length of K-op  integral file:               0.35 MB
 Length of 3-ext integral record:             0.00 MB

 Memory could be reduced to 6.16 Mwords without degradation in triples

 Integral transformation finished. Total CPU:   0.15 sec, npass=  1  Memory used:   1.89 MW

 Reference energy:                   -231.85287945

 MP2 singlet pair energy:              -0.50620863
 MP2 triplet pair energy:              -0.29361326
 MP2 correlation energy:               -0.79982189
 MP2 total energy:                   -232.65270134

 SCS-MP2 correlation energy:           -0.79014305   (PS=  1.200000  PT=  0.333333)
 SCS-MP2 total energy:               -232.64302250

 ITER.      SQ.NORM     CORR.ENERGY   TOTAL ENERGY   ENERGY CHANGE        DEN1      VAR(S)    VAR(P)  DIIS     TIME
   1      1.31796542    -0.85434726  -232.70722671    -0.05452537    -0.03147288  0.31D-02  0.53D-02  1  1     0.50
   2      1.34610268    -0.86016824  -232.71304769    -0.00582098    -0.02418707  0.68D-04  0.70D-03  2  2     0.86
   3      1.35443282    -0.86047759  -232.71335704    -0.00030935    -0.00384865  0.20D-04  0.68D-04  3  3     1.22
   4      1.35794123    -0.86059749  -232.71347694    -0.00011990    -0.00107103  0.10D-05  0.67D-05  4  4     1.59
   5      1.35876501    -0.86060936  -232.71348882    -0.00001187    -0.00017638  0.50D-07  0.64D-06  5  5     1.96
   6      1.35891982    -0.86060176  -232.71348121     0.00000760    -0.00002554  0.47D-08  0.35D-07  6  6     2.33
   7      1.35893491    -0.86060241  -232.71348187    -0.00000065     0.00000109  0.16D-08  0.31D-08  6  2     2.69
   8      1.35893951    -0.86060228  -232.71348173     0.00000014    -0.00000094  0.54D-10  0.34D-09  6  1     3.05
   9      1.35893955    -0.86060235  -232.71348180    -0.00000007     0.00000044  0.17D-10  0.50D-10  6  3     3.42
  10      1.35893947    -0.86060239  -232.71348184    -0.00000004     0.00000017  0.79D-12  0.79D-11  6  4     3.78
  11      1.35893892    -0.86060242  -232.71348187    -0.00000003     0.00000022  0.84D-13  0.11D-11  6  6     4.14
  12      1.35893881    -0.86060242  -232.71348188    -0.00000001     0.00000005  0.18D-13  0.95D-13  6  5     4.51
  13      1.35893881    -0.86060242  -232.71348188     0.00000000    -0.00000000  0.72D-14  0.15D-13  6  2     4.87
  14      1.35893883    -0.86060242  -232.71348187     0.00000000    -0.00000001  0.52D-15  0.13D-14  6  1     5.24
  15      1.35893884    -0.86060242  -232.71348187     0.00000000    -0.00000000  0.16D-15  0.14D-15  6  3     5.60
  16      1.35893884    -0.86060242  -232.71348187     0.00000000    -0.00000000  0.18D-16  0.23D-16  6  4     5.97
  17      1.35893884    -0.86060242  -232.71348187    -0.00000000     0.00000000  0.33D-17  0.37D-17  6  6     6.33
  18      1.35893884    -0.86060242  -232.71348187    -0.00000000     0.00000000  0.22D-18  0.62D-18  6  5     6.70
  19      1.35893884    -0.86060242  -232.71348187     0.00000000     0.00000000  0.28D-19  0.14D-18  6  2     7.06
  20      1.35893884    -0.86060242  -232.71348187     0.00000000    -0.00000000  0.64D-21  0.25D-19  6  1     7.42
  21      1.35893884    -0.86060242  -232.71348187     0.00000000    -0.00000000  0.13D-21  0.17D-20  6  4     7.79
  22      1.35893884    -0.86060242  -232.71348187     0.00000000    -0.00000000  0.15D-22  0.80D-22  6  3     8.16

 Norm of t1 vector:      0.07860594      S-energy:    -0.00000000      T1 diagnostic:  0.00982574
                                                                       D1 diagnostic:  0.02867445

 Doubles amplitudes (print threshold =  0.500E-01):

         I         J         SYM. A    SYM. B    A         B      T(IJ, AB)

        15        15         3         3         1         1     -0.05777520
        16        16         4         4         1         1     -0.07432560
        16        15         4         3         1         1     -0.06073572


 Total CPU time for triples:      5.83 sec


 RESULTS
 =======

  Reference energy                   -231.852879452154
  CCSD singlet pair energy             -0.593357381930
  CCSD triplet pair energy             -0.267245039679
  CCSD correlation energy              -0.860602421609

  Triples (T) contribution             -0.032164060498
  Total correlation energy             -0.892766482107

  CCSD total energy                  -232.713481873763
  CCSD[T] energy                     -232.746374841461
  CCSD-T energy                      -232.745328263889
 !CCSD(T) total energy               -232.745645934261

 Timing summary (sec):

 STEP                 CPU(USER)    SYS     CPU(TOT)    WALL
 Transformation          0.16      0.04      0.20      0.20
 CCSD iterations         8.00      0.45      8.45      8.50
 Triples                 5.83      0.20      6.03      6.04

 Program statistics:

 Available memory in ccsd:               999998876
 Min. memory needed in ccsd:                922811
 Max. memory used in ccsd:                 1221233
 Max. memory used in cckext:               1283602 (22 integral passes)



 **********************************************************************************************************************************
 DATASETS  * FILE   NREC   LENGTH (MB)   RECORD NAMES
              1      20       89.96       500      610      700      900      950      970     1000      129      960     1100   
                                          VAR    BASINP    GEOM    SYMINP    ZMAT    AOBASIS   BASIS     P2S    ABASIS      S 
                                         1400     1410     1200     1210     1080     1600     1650     1300     1700     1380   
                                           T        V       H0       H01     AOSYM     SMH    MOLCAS    ERIS     OPER     JKOP   

              2       3        0.59       700     1000     2100   
                                         GEOM     BASIS     RHF  

 PROGRAMS   *        TOTAL   CCSD(T)       RHF       INT
 CPU TIMES  *        16.07     14.01      0.37      1.65
 REAL TIME  *        17.24 SEC
 DISK USED  *       234.75 MB      
 GA USED    *         0.00 MB       (max)       0.00 MB       (current)
 **********************************************************************************************************************************

        CCSD(T)         RHF-SCF 
   -232.74564593   -231.85287945
 **********************************************************************************************************************************
 Variable memory released
