
 Primary working directories    : /tmp/943417.365.gen6.q
 Secondary working directories  : /tmp/943417.365.gen6.q
 Wavefunction directory         : /home/vulcan/mel64643/wfu/
 Main file repository           : /tmp/943417.365.gen6.q/

 ARCHNAME  : Linux/x86_64
 FC        : /opt/intel/compilers_and_libraries_2016.1.150/linux/bin/intel64/ifort
 FCVERSION : 16.0.1
 BLASLIB   : -mkl
 id        : ccgc

 Nodes     nprocs
 n077         1
 ga_uses_ma=false, calling ma_init with nominal heap.
 GA-space will be limited to   8.0 MW (determined by -G option)

 Using customized tuning parameters: mindgm=10; mindgv=16; mindgc=4; mindgr=1; noblas=0; mincuda=1000; minvec=7
 default implementation of scratch files=df  

 ***,Optimization of nh3_nitrosmethane
 memory,1000,m
 gthresh,energy=1.0d-12,orbital=1.0d-10,oneint=1.0d-16,twoint=1.0d-16,optgrad=1.0d-6,compress=1.0d-13
 geomtyp=xyz
 
 bohr
 geometry = {
  N   -5.2222409253   -0.1834252868    0.0050129784
  H   -6.2973254905    0.2308023027   -1.5289833887
  H   -3.7570044180    1.0585699098   -0.0043315392
  H   -6.3105405154    0.2292612867    1.5300801804
  H   -0.9238659851   -2.3991524134   -0.0000562170
  H    1.8827142105   -3.4343451540   -1.6670628850
  H    1.8830944495   -3.4343336269    1.6663172733
  C    1.1366322459   -2.4699096641   -0.0002910136
  N    2.2679220035    0.0975497423   -0.0004289384
  O    0.7047329151    1.7820399126   -0.0002564503
 }
 
 basis=cc-pvdz
 {rhf;maxit,200}
 {ccsd(t);maxit,200}

 Variables initialized (661), CPU time= 0.00 sec
 Commands  initialized (458), CPU time= 0.01 sec, 486 directives.
 Default parameters read. Elapsed time= 0.04 sec

 Checking input...
 Passed
1


                                         ***  PROGRAM SYSTEM MOLPRO  ***
                         Copyright, University College Cardiff Consultants Limited, 2008

                                    Version 2010.1 linked May 16 2016 07:17:05


 **********************************************************************************************************************************
 LABEL *   Optimization of nh3_nitrosmethane                                             
 Linux-4.4.3/n077(x86_64) 64 bit mpp version                                             DATE: 25-Oct-23          TIME: 17:10:18  
 **********************************************************************************************************************************

 SHA1:             9e8077add272b0f3cad6f7df79ec5211205f459d
 **********************************************************************************************************************************

 THRESHOLDS:

 ZERO    =  1.00D-12  ONEINT  =  1.00D-16  TWOINT  =  1.00D-16  PREFAC  =  1.00D-14  LOCALI  =  1.00D-09  EORDER  =  1.00D-04
 ENERGY  =  1.00D-12  ETEST   =  0.00D+00  EDENS   =  0.00D+00  THRDEDEF=  1.00D-06  GRADIENT=  1.00D-02  STEP    =  1.00D-03
 ORBITAL =  1.00D-10  CIVEC   =  1.00D-05  COEFF   =  1.00D-04  PRINTCI =  5.00D-02  PUNCHCI =  9.90D+01  OPTGRAD =  1.00D-06
 OPTENERG=  1.00D-06  OPTSTEP =  3.00D-04  THRGRAD =  1.00D-10  COMPRESS=  1.00D-13  VARMIN  =  1.00D-07  VARMAX  =  1.00D-03
 THRDOUB =  0.00D+00  THRDIV  =  1.00D-05  THRRED  =  1.00D-07  THRPSP  =  1.00D+00  THRDC   =  1.00D-10  THRCS   =  1.00D-10
 THRNRM  =  1.00D-08  THREQ   =  0.00D+00  THRDE   =  1.00D+00  THRREF  =  1.00D-05  SPARFAC =  1.00D+00  THRDLP  =  1.00D-07
 THRDIA  =  1.00D-10  THRDLS  =  1.00D-07  THRGPS  =  0.00D+00  THRKEX  =  0.00D+00  THRDIS  =  2.00D-01  THRVAR  =  1.00D-10
 THRLOC  =  1.00D-06  THRGAP  =  1.00D-06  THRLOCT = -1.00D+00  THRGAPT = -1.00D+00  THRORB  =  1.00D-06  THRMLTP =  0.00D+00
 THRCPQCI=  1.00D-10  KEXTA   =  0.00D+00  THRCOARS=  0.00D+00  SYMTOL  =  1.00D-06  GRADTOL =  1.00D-06  THROVL  =  1.00D-08
 THRORTH =  1.00D-08  GRID    =  1.00D-06  GRIDMAX =  1.00D-03  DTMAX   =  0.00D+00

 SETTING GEOMTYP        =    XYZ
 ZUNIT=BOHR
 

 Variable memory set to 1000000000 words,  buffer space   230000 words

 SETTING BASIS          =    CC-PVDZ


 Recomputing integrals since basis changed


 Using spherical harmonics

 Library entry N      S cc-pVDZ              selected for orbital group  1
 Library entry N      P cc-pVDZ              selected for orbital group  1
 Library entry N      D cc-pVDZ              selected for orbital group  1
 Library entry H      S cc-pVDZ              selected for orbital group  2
 Library entry H      P cc-pVDZ              selected for orbital group  2
 Library entry C      S cc-pVDZ              selected for orbital group  3
 Library entry C      P cc-pVDZ              selected for orbital group  3
 Library entry C      D cc-pVDZ              selected for orbital group  3
 Library entry O      S cc-pVDZ              selected for orbital group  5
 Library entry O      P cc-pVDZ              selected for orbital group  5
 Library entry O      D cc-pVDZ              selected for orbital group  5

1PROGRAM * SEWARD (Integral evaluation for generally contracted gaussian basis sets)     Author: Roland Lindh, 1990

 Geometry written to block  1 of record 700


 Point group  C1  



 ATOMIC COORDINATES

 NR  ATOM    CHARGE       X              Y              Z

   1  N       7.00   -5.222240925   -0.183425287    0.005012978
   2  H       1.00   -6.297325490    0.230802303   -1.528983389
   3  H       1.00   -3.757004418    1.058569910   -0.004331539
   4  H       1.00   -6.310540515    0.229261287    1.530080180
   5  H       1.00   -0.923865985   -2.399152413   -0.000056217
   6  H       1.00    1.882714211   -3.434345154   -1.667062885
   7  H       1.00    1.883094449   -3.434333627    1.666317273
   8  C       6.00    1.136632246   -2.469909664   -0.000291014
   9  N       7.00    2.267922003    0.097549742   -0.000428938
  10  O       8.00    0.704732915    1.782039913   -0.000256450

 Bond lengths in Bohr (Angstrom)

 1-2  1.918472354  1-3  1.920822066  1-4  1.918472355  5-8  2.061712784  6-8  2.065164057
     ( 1.015211846)     ( 1.016455260)     ( 1.015211846)     ( 1.091011417)     ( 1.092837752)

  7- 8  2.065164057   8- 9  2.805648648   9-10  2.298057286
       ( 1.092837752)       ( 1.484685321)       ( 1.216079541)

 Bond angles

  2-1-3  106.49742119   2-1-4  105.74095698   3-1-4  107.30770391   5-8-6  112.15889786

  5-8-7  112.15889786   5-8-9  111.81278752   6-8-7  107.61735054   6-8-9  106.35838670

  7- 8- 9  106.35838670   8- 9-10  113.35946297

 NUCLEAR CHARGE:                   34
 NUMBER OF PRIMITIVE AOS:         150
 NUMBER OF SYMMETRY AOS:          146
 NUMBER OF CONTRACTIONS:           86   (  86A   )
 NUMBER OF CORE ORBITALS:           4   (   4A   )
 NUMBER OF VALENCE ORBITALS:       22   (  22A   )


 NUCLEAR REPULSION ENERGY  117.38456396


 Eigenvalues of metric

         1 0.629E-02 0.972E-02 0.151E-01 0.180E-01 0.298E-01 0.370E-01 0.392E-01 0.408E-01


 Contracted 2-electron integrals neglected if value below      1.0D-16
 AO integral compression algorithm  1   Integral accuracy      1.0D-16

     51.905 MB (compressed) written to integral file ( 81.4%)

     Node minimum: 51.905 MB, node maximum: 51.905 MB


 NUMBER OF SORTED TWO-ELECTRON INTEGRALS:    6999411.     BUFFER LENGTH:  32768
 NUMBER OF SEGMENTS:   1  SEGMENT LENGTH:    6999411      RECORD LENGTH: 524288

 Memory used in sort:       7.56 MW

 SORT1 READ     8003965. AND WROTE     6870615. INTEGRALS IN     20 RECORDS. CPU TIME:     0.07 SEC, REAL TIME:     0.11 SEC
 SORT2 READ     6870615. AND WROTE     6999411. INTEGRALS IN    198 RECORDS. CPU TIME:     0.08 SEC, REAL TIME:     0.11 SEC

 FILE SIZES:   FILE 1:    47.9 MBYTE,  FILE 4:    83.9 MBYTE,   TOTAL:    131.8 MBYTE

 OPERATOR DM      FOR CENTER  0  COORDINATES:    0.000000    0.000000    0.000000


 **********************************************************************************************************************************
 DATASETS  * FILE   NREC   LENGTH (MB)   RECORD NAMES
              1      19       48.01       500      610      700      900      950      970     1000      129      960     1100   
                                          VAR    BASINP    GEOM    SYMINP    ZMAT    AOBASIS   BASIS     P2S    ABASIS      S 
                                         1400     1410     1200     1210     1080     1600     1650     1300     1700   
                                           T        V       H0       H01     AOSYM     SMH    MOLCAS    ERIS     OPER   

 PROGRAMS   *        TOTAL       INT
 CPU TIMES  *         0.76      0.72
 REAL TIME  *         1.04 SEC
 DISK USED  *       184.52 MB      
 GA USED    *         0.00 MB       (max)       0.00 MB       (current)
 **********************************************************************************************************************************

1PROGRAM * RHF-SCF (CLOSED SHELL)       Authors: W. Meyer, H.-J. Werner


 NUMBER OF ELECTRONS:      17+   17-    SPACE SYMMETRY=1    SPIN SYMMETRY: Singlet 
 CONVERGENCE THRESHOLDS:    1.00E-10 (Density)    1.00E-13 (Energy)
 MAX. NUMBER OF ITERATIONS:      200
 INTERPOLATION TYPE:            DIIS
 INTERPOLATION STEPS:              2 (START)      1 (STEP)
 LEVEL SHIFTS:                  0.00 (CLOSED)  0.00 (OPEN) 



 Orbital guess generated from atomic densities. Full valence occupancy:   26

 Molecular orbital dump at record        2100.2

 ITERATION    DDIFF          GRAD             ENERGY        2-EL.EN.            DIPOLE MOMENTS         DIIS
    1      0.000D+00      0.000D+00      -224.94597903    393.785510    0.09932   -0.57218   -0.00534    0
    2      0.000D+00      0.101D-01      -225.00726636    393.235296   -0.59370   -0.30337   -0.00223    1
    3      0.189D-01      0.693D-02      -225.03993368    393.752311   -0.25165   -0.51519   -0.00289    2
    4      0.825D-02      0.139D-02      -225.04209621    393.643661   -0.33061   -0.42352   -0.00299    3
    5      0.216D-02      0.531D-03      -225.04247295    393.639561   -0.33187   -0.45011   -0.00288    4
    6      0.908D-03      0.129D-03      -225.04250949    393.661877   -0.33675   -0.44831   -0.00289    5
    7      0.304D-03      0.512D-04      -225.04251529    393.649668   -0.33835   -0.44853   -0.00289    6
    8      0.124D-03      0.198D-04      -225.04251614    393.655235   -0.33913   -0.44850   -0.00289    7
    9      0.433D-04      0.826D-05      -225.04251631    393.653894   -0.33931   -0.44820   -0.00289    8
   10      0.225D-04      0.230D-05      -225.04251633    393.653716   -0.33937   -0.44804   -0.00289    8
   11      0.659D-05      0.694D-06      -225.04251633    393.653767   -0.33938   -0.44797   -0.00289    8
   12      0.187D-05      0.221D-06      -225.04251633    393.653730   -0.33938   -0.44795   -0.00289    8
   13      0.754D-06      0.700D-07      -225.04251633    393.653724   -0.33939   -0.44795   -0.00289    8
   14      0.181D-06      0.348D-07      -225.04251633    393.653726   -0.33939   -0.44795   -0.00289    8
   15      0.909D-07      0.831D-08      -225.04251633    393.653726   -0.33939   -0.44795   -0.00289    8
   16      0.167D-07      0.481D-08      -225.04251633    393.653725   -0.33939   -0.44795   -0.00289    8
   17      0.135D-07      0.353D-08      -225.04251633    393.653726   -0.33939   -0.44795   -0.00289    8
   18      0.227D-07      0.177D-08      -225.04251633    393.653725   -0.33939   -0.44795   -0.00289    8
   19      0.153D-07      0.616D-09      -225.04251633    393.653726   -0.33939   -0.44795   -0.00289    9
   20      0.503D-08      0.125D-09      -225.04251633    393.653726   -0.33939   -0.44795   -0.00289    9
   21      0.418D-09      0.341D-10      -225.04251633    393.653726   -0.33939   -0.44795   -0.00289    9
   22      0.104D-09      0.794D-11      -225.04251633    393.653726   -0.33939   -0.44795   -0.00289    8
   23      0.221D-10      0.244D-11      -225.04251633    393.653726   -0.33939   -0.44795   -0.00289    0

 Final occupancy:  17

 !RHF STATE 1.1 Energy               -225.042516327376
 Nuclear energy                       117.38456396
 One-electron energy                 -539.25394306
 Two-electron energy                  196.82686278
 Virial quotient                       -1.00156602
 !RHF STATE 1.1 Dipole moment          -0.33938615    -0.44794520    -0.00288950
 Dipole moment /Debye                  -0.86257706    -1.13848857    -0.00734389

 Orbital energies:

         1.1          2.1          3.1          4.1          5.1          6.1          7.1          8.1          9.1         10.1
    -20.626063   -15.699106   -15.537294   -11.265813    -1.506768    -1.130666    -1.070092    -0.855412    -0.684702    -0.667654

        11.1         12.1         13.1         14.1         15.1         16.1         17.1         18.1         19.1
     -0.630902    -0.615451    -0.613307    -0.550675    -0.527804    -0.420138    -0.398260     0.109500     0.187018


 **********************************************************************************************************************************
 DATASETS  * FILE   NREC   LENGTH (MB)   RECORD NAMES
              1      19       48.01       500      610      700      900      950      970     1000      129      960     1100   
                                          VAR    BASINP    GEOM    SYMINP    ZMAT    AOBASIS   BASIS     P2S    ABASIS      S 
                                         1400     1410     1200     1210     1080     1600     1650     1300     1700   
                                           T        V       H0       H01     AOSYM     SMH    MOLCAS    ERIS     OPER   

              2       3        0.57       700     1000     2100   
                                         GEOM     BASIS     RHF  

 PROGRAMS   *        TOTAL       RHF       INT
 CPU TIMES  *         1.88      1.11      0.72
 REAL TIME  *         2.27 SEC
 DISK USED  *       184.52 MB      
 GA USED    *         0.00 MB       (max)       0.00 MB       (current)
 **********************************************************************************************************************************


1PROGRAM * CCSD (Closed-shell coupled cluster)     Authors: C. Hampel, H.-J. Werner, 1991, M. Deegan, P.J. Knowles, 1992


 Convergence thresholds:  THRVAR = 1.00D-08  THRDEN = 1.00D-12

 CCSD(T)     terms to be evaluated (factor= 1.000)


 Number of core orbitals:           4 (   4 )
 Number of closed-shell orbitals:  13 (  13 )
 Number of external orbitals:      69 (  69 )

 Molecular orbitals read from record     2100.2  Type=RHF/CANONICAL (state 1.1)

 Number of N-1 electron functions:              13
 Number of N-2 electron functions:              91
 Number of singly external CSFs:               897
 Number of doubly external CSFs:            402753
 Total number of CSFs:                      403651

 Length of J-op  integral file:               0.00 MB
 Length of K-op  integral file:               0.54 MB
 Length of 3-ext integral record:             0.00 MB

 Memory could be reduced to 6.46 Mwords without degradation in triples

 Integral transformation finished. Total CPU:   0.25 sec, npass=  1  Memory used:   5.81 MW

 Reference energy:                   -225.04251633

 MP2 singlet pair energy:              -0.42990177
 MP2 triplet pair energy:              -0.25005727
 MP2 correlation energy:               -0.67995904
 MP2 total energy:                   -225.72247537

 SCS-MP2 correlation energy:           -0.67147332   (PS=  1.200000  PT=  0.333333)
 SCS-MP2 total energy:               -225.71398964

 ITER.      SQ.NORM     CORR.ENERGY   TOTAL ENERGY   ENERGY CHANGE        DEN1      VAR(S)    VAR(P)  DIIS     TIME
   1      1.22681117    -0.71575180  -225.75826813    -0.03579276    -0.01324022  0.44D-02  0.46D-02  1  1     0.92
   2      1.24749633    -0.71906260  -225.76157893    -0.00331080    -0.02058579  0.13D-03  0.82D-03  2  2     1.60
   3      1.25646539    -0.71975036  -225.76226669    -0.00068775    -0.00430979  0.10D-03  0.59D-04  3  3     2.29
   4      1.26019023    -0.71974128  -225.76225761     0.00000908    -0.00126811  0.77D-05  0.10D-04  4  4     2.97
   5      1.26162277    -0.71976098  -225.76227731    -0.00001970    -0.00032459  0.14D-05  0.17D-05  5  5     3.66
   6      1.26202282    -0.71973328  -225.76224961     0.00002770    -0.00004722  0.78D-07  0.36D-06  6  6     4.34
   7      1.26211340    -0.71973144  -225.76224776     0.00000184    -0.00000217  0.20D-07  0.96D-07  6  2     5.03
   8      1.26213584    -0.71973151  -225.76224784    -0.00000007     0.00000224  0.86D-08  0.24D-07  6  5     5.72
   9      1.26213104    -0.71973238  -225.76224871    -0.00000087     0.00000163  0.17D-08  0.27D-08  6  1     6.41
  10      1.26213097    -0.71973265  -225.76224897    -0.00000027    -0.00000144  0.39D-09  0.30D-09  6  3     7.08
  11      1.26212945    -0.71973291  -225.76224924    -0.00000027     0.00000088  0.78D-10  0.49D-10  6  4     7.77
  12      1.26212873    -0.71973297  -225.76224930    -0.00000006     0.00000022  0.19D-10  0.11D-10  6  6     8.46
  13      1.26212799    -0.71973301  -225.76224934    -0.00000003     0.00000017  0.37D-11  0.17D-11  6  2     9.14
  14      1.26212762    -0.71973303  -225.76224936    -0.00000002     0.00000012  0.88D-12  0.49D-12  6  1     9.82
  15      1.26212735    -0.71973304  -225.76224936    -0.00000001     0.00000005  0.20D-12  0.83D-13  6  5    10.51
  16      1.26212729    -0.71973304  -225.76224937    -0.00000000     0.00000001  0.12D-12  0.35D-13  6  3    11.19
  17      1.26212725    -0.71973304  -225.76224937    -0.00000000     0.00000001  0.72D-13  0.14D-13  6  4    11.87
  18      1.26212724    -0.71973304  -225.76224937    -0.00000000    -0.00000000  0.43D-13  0.54D-14  6  6    12.56
  19      1.26212724    -0.71973304  -225.76224937     0.00000000    -0.00000000  0.17D-13  0.26D-14  6  2    13.24
  20      1.26212724    -0.71973304  -225.76224937     0.00000000     0.00000000  0.58D-14  0.16D-14  6  1    13.93
  21      1.26212725    -0.71973304  -225.76224937     0.00000000    -0.00000000  0.12D-14  0.81D-15  6  3    14.62
  22      1.26212725    -0.71973304  -225.76224937     0.00000000     0.00000000  0.18D-15  0.20D-15  6  5    15.31
  23      1.26212725    -0.71973304  -225.76224937     0.00000000    -0.00000000  0.50D-16  0.60D-16  6  4    16.00
  24      1.26212725    -0.71973304  -225.76224937    -0.00000000     0.00000000  0.30D-17  0.13D-16  6  6    16.69
  25      1.26212725    -0.71973304  -225.76224937     0.00000000    -0.00000000  0.98D-18  0.36D-17  6  2    17.37
  26      1.26212725    -0.71973304  -225.76224937     0.00000000    -0.00000000  0.16D-18  0.35D-18  6  5    18.06
  27      1.26212725    -0.71973304  -225.76224937    -0.00000000    -0.00000000  0.92D-19  0.62D-19  6  1    18.75
  28      1.26212725    -0.71973304  -225.76224937     0.00000000    -0.00000000  0.18D-19  0.83D-20  6  3    19.43
  29      1.26212725    -0.71973304  -225.76224937     0.00000000    -0.00000000  0.58D-20  0.18D-20  6  4    20.12
  30      1.26212725    -0.71973304  -225.76224937     0.00000000    -0.00000000  0.35D-20  0.69D-21  6  6    20.80
  31      1.26212725    -0.71973304  -225.76224937     0.00000000    -0.00000000  0.13D-20  0.23D-21  6  2    21.49

 Norm of t1 vector:      0.10008088      S-energy:    -0.00000000      T1 diagnostic:  0.01387872
                                                                       D1 diagnostic:  0.05075883

 Doubles amplitudes (print threshold =  0.500E-01):

         I         J         SYM. A    SYM. B    A         B      T(IJ, AB)

         7         7         1         1         1         1     -0.06085124
        11         7         1         1         1         1     -0.06598063
        11        11         1         1         1         1     -0.09634468


 Total CPU time for triples:      6.15 sec


 RESULTS
 =======

  Reference energy                   -225.042516327376
  CCSD singlet pair energy             -0.499051123240
  CCSD triplet pair energy             -0.220681918074
  CCSD correlation energy              -0.719733041315

  Triples (T) contribution             -0.021671790221
  Total correlation energy             -0.741404831536

  CCSD total energy                  -225.762249368691
  CCSD[T] energy                     -225.785295908055
  CCSD-T energy                      -225.783517822759
 !CCSD(T) total energy               -225.783921158911

 Timing summary (sec):

 STEP                 CPU(USER)    SYS     CPU(TOT)    WALL
 Transformation          0.27      0.03      0.30      0.31
 CCSD iterations        21.22      0.69     21.91     21.95
 Triples                 6.15      0.16      6.31      6.32

 Program statistics:

 Available memory in ccsd:               999999224
 Min. memory needed in ccsd:               1143606
 Max. memory used in ccsd:                 1480488
 Max. memory used in cckext:               1471436 (31 integral passes)



 **********************************************************************************************************************************
 DATASETS  * FILE   NREC   LENGTH (MB)   RECORD NAMES
              1      20       73.63       500      610      700      900      950      970     1000      129      960     1100   
                                          VAR    BASINP    GEOM    SYMINP    ZMAT    AOBASIS   BASIS     P2S    ABASIS      S 
                                         1400     1410     1200     1210     1080     1600     1650     1300     1700     1380   
                                           T        V       H0       H01     AOSYM     SMH    MOLCAS    ERIS     OPER     JKOP   

              2       3        0.57       700     1000     2100   
                                         GEOM     BASIS     RHF  

 PROGRAMS   *        TOTAL   CCSD(T)       RHF       INT
 CPU TIMES  *        29.53     27.65      1.11      0.72
 REAL TIME  *        30.86 SEC
 DISK USED  *       197.16 MB      
 GA USED    *         0.00 MB       (max)       0.00 MB       (current)
 **********************************************************************************************************************************

        CCSD(T)         RHF-SCF 
   -225.78392116   -225.04251633
 **********************************************************************************************************************************
 Variable memory released
