
    -----------------------------------------------------------------------
          Psi4: An Open-Source Ab Initio Electronic Structure Package
                               Psi4 1.4a2.dev629 

                         Git: Rev {master} 2938fc2 dirty


    D. G. A. Smith, L. A. Burns, A. C. Simmonett, R. M. Parrish,
    M. C. Schieber, R. Galvelis, P. Kraus, H. Kruse, R. Di Remigio,
    A. Alenaizan, A. M. James, S. Lehtola, J. P. Misiewicz, M. Scheurer,
    R. A. Shaw, J. B. Schriber, Y. Xie, Z. L. Glick, D. A. Sirianni,
    J. S. O'Brien, J. M. Waldrop, A. Kumar, E. G. Hohenstein,
    B. P. Pritchard, B. R. Brooks, H. F. Schaefer III, A. Yu. Sokolov,
    K. Patkowski, A. E. DePrince III, U. Bozkaya, R. A. King,
    F. A. Evangelista, J. M. Turney, T. D. Crawford, C. D. Sherrill,
    J. Chem. Phys. 152(18) 184108 (2020). https://doi.org/10.1063/5.0006002

                            Additional Code Authors
    E. T. Seidl, C. L. Janssen, E. F. Valeev, M. L. Leininger,
    J. F. Gonthier, R. M. Richard, H. R. McAlexander, M. Saitow, X. Wang,
    P. Verma, and M. H. Lechner

             Previous Authors, Complete List of Code Contributors,
                       and Citations for Specific Modules
    https://github.com/psi4/psi4/blob/master/codemeta.json
    https://github.com/psi4/psi4/graphs/contributors
    http://psicode.org/psi4manual/master/introduction.html#citing-psifour

    -----------------------------------------------------------------------


    Psi4 started on: Thursday, 04 November 2021 02:40PM

    Process ID: 10404
    Host:       n080
    PSIDATADIR: /opt/psi/4/master/share/psi4
    Memory:     500.0 MiB
    Threads:    1
    
  ==> Input File <==

--------------------------------------------------------------------------
import os
memory 14 GB 
 
molecule {
 C    1.1753390913   -0.0460641067   -0.0000000000
 H    2.1134840578   -1.8893323113   -0.0000000000
 H    2.3928533274    1.6016950154   -0.0000000000
 C   -1.3123271738    0.1622245587   -0.0000000000
 H   -2.9143749627   -1.1024009360   -0.0000000000
units bohr
0 2
}

basis {

assign 6-31g_2dfp_

[ 6-31g_2dfp_ ]

spherical

!----------------------------------------------------------------------
! Basis Set Exchange
! Version v0.8.13
! https://www.basissetexchange.org
!----------------------------------------------------------------------
!   Basis set: 6-31G(2df,p)
! Description: 6-31G(2df,p)
!        Role: orbital
!     Version: 0  (Data from the original Basis Set Exchange)
!----------------------------------------------------------------------


****
H     0
S    3   1.00
     18.7311370              0.03349460
      2.8253937              0.23472695
      0.6401217              0.81375733
S    1   1.00
      0.1612778              1.00000000
P    1   1.00
      1.5000000              1.0000000
P    1   1.00
      0.3750000              1.0000000
****
B     0
S    6   1.00
   2068.8823000              0.0018663
    310.6495700              0.0142515
     70.6830330              0.0695516
     19.8610800              0.2325729
      6.2993048              0.4670787
      2.1270270              0.3634314
SP   3   1.00
      4.7279710             -0.1303938              0.0745976
      1.1903377             -0.1307889              0.3078467
      0.3594117              1.1309444              0.7434568
SP   1   1.00
      0.1267512              1.0000000              1.0000000
D    1   1.00
      0.8020000              1.0000000
D    1   1.00
      0.2005000              1.0000000
F    1   1.00
      0.5000000              1.0000000
****
C     0
S    6   1.00
   3047.5249000              0.0018347
    457.3695100              0.0140373
    103.9486900              0.0688426
     29.2101550              0.2321844
      9.2866630              0.4679413
      3.1639270              0.3623120
SP   3   1.00
      7.8682724             -0.1193324              0.0689991
      1.8812885             -0.1608542              0.3164240
      0.5442493              1.1434564              0.7443083
SP   1   1.00
      0.1687144              1.0000000              1.0000000
D    1   1.00
      1.2520000              1.0000000
D    1   1.00
      0.3130000              1.0000000
F    1   1.00
      0.8000000              1.0000000
****
N     0
S    6   1.00
   4173.5110000              0.0018348
    627.4579000              0.0139950
    142.9021000              0.0685870
     40.2343300              0.2322410
     12.8202100              0.4690700
      4.3904370              0.3604550
SP   3   1.00
     11.6263580             -0.1149610              0.0675800
      2.7162800             -0.1691180              0.3239070
      0.7722180              1.1458520              0.7408950
SP   1   1.00
      0.2120313              1.0000000              1.0000000
D    1   1.00
      1.8260000              1.0000000
D    1   1.00
      0.4565000              1.0000000
F    1   1.00
      1.0000000              1.0000000
****
O     0
S    6   1.00
   5484.6717000              0.0018311
    825.2349500              0.0139501
    188.0469600              0.0684451
     52.9645000              0.2327143
     16.8975700              0.4701930
      5.7996353              0.3585209
SP   3   1.00
     15.5396160             -0.1107775              0.0708743
      3.5999336             -0.1480263              0.3397528
      1.0137618              1.1307670              0.7271586
SP   1   1.00
      0.2700058              1.0000000              1.0000000
D    1   1.00
      2.5840000              1.0000000
D    1   1.00
      0.6460000              1.0000000
F    1   1.00
      1.4000000              1.0000000
****
F     0
S    6   1.00
   7001.7130900              0.0018196169
   1051.3660900              0.0139160796
    239.2856900              0.0684053245
     67.3974453              0.233185760
     21.5199573              0.471267439
      7.40310130             0.356618546
SP   3   1.00
     20.8479528             -0.108506975            0.0716287243
      4.80830834            -0.146451658            0.3459121030
      1.34406986             1.128688580            0.7224699570
SP   1   1.00
      0.358151393            1.0000000              1.0000000
D    1   1.00
      3.5000000              1.0000000
D    1   1.00
      0.8750000              1.0000000
F    1   1.00
      1.8500000              1.0000000
****
Al     0
S    6   1.00
  13983.1000000              0.00194267
   2098.7500000              0.0148599
    477.7050000              0.0728494
    134.3600000              0.2468300
     42.8709000              0.4872580
     14.5189000              0.3234960
SP   6   1.00
    239.6680000             -0.00292619             0.00460285
     57.4419000             -0.0374080              0.0331990
     18.2859000             -0.1144870              0.1362820
      6.5991400              0.1156350              0.3304760
      2.4904900              0.6125950              0.4491460
      0.9445400              0.3937990              0.2657040
SP   3   1.00
      1.2779000             -0.2276060             -0.0175130
      0.3975900              0.00144583             0.2445330
      0.1600950              1.0927900              0.8049340
SP   1   1.00
      0.0556577              1.0000000              1.0000000
D    1   1.00
      0.6500000              1.0000000
D    1   1.00
      0.1625000              1.0000000
F    1   1.00
      0.2500000              1.0000000
****
Si     0
S    6   1.00
  16115.9000000              0.00195948
   2425.5800000              0.01492880
    553.8670000              0.07284780
    156.3400000              0.24613000
     50.0683000              0.48591400
     17.0178000              0.32500200
SP   6   1.00
    292.7180000             -0.00278094             0.00443826
     69.8731000             -0.03571460             0.03266790
     22.3363000             -0.11498500             0.13472100
      8.1503900              0.09356340             0.32867800
      3.1345800              0.60301700             0.44964000
      1.2254300              0.41895900             0.26137200
SP   3   1.00
      1.7273800             -0.24463000            -0.01779510
      0.5729220              0.00431572             0.25353900
      0.2221920              1.09818000             0.80066900
SP   1   1.00
      0.0778369              1.00000000             1.00000000
D    1   1.00
      0.9000000              1.0000000
D    1   1.00
      0.2250000              1.0000000
F    1   1.00
      0.3200000              1.0000000
****
P     0
S    6   1.00
  19413.3000000              0.0018516
   2909.4200000              0.0142062
    661.3640000              0.0699995
    185.7590000              0.2400790
     59.1943000              0.4847620
     20.0310000              0.3352000
SP   6   1.00
    339.4780000             -0.00278217             0.00456462
     81.0101000             -0.0360499              0.03369360
     25.8780000             -0.1166310              0.13975500
      9.4522100              0.0968328              0.33936200
      3.6656600              0.6144180              0.45092100
      1.4674600              0.4037980              0.23858600
SP   3   1.00
      2.1562300             -0.2529230             -0.01776530
      0.7489970              0.0328517              0.27405800
      0.2831450              1.0812500              0.78542100
SP   1   1.00
      0.0998317              1.0000000              1.00000000
D    1   1.00
      1.1000000              1.0000000
D    1   1.00
      0.2750000              1.0000000
F    1   1.00
      0.4500000              1.0000000
****
S     0
S    6   1.00
  21917.1000000              0.0018690
   3301.4900000              0.0142300
    754.1460000              0.0696960
    212.7110000              0.2384870
     67.9896000              0.4833070
     23.0515000              0.3380740
SP   6   1.00
    423.7350000             -0.0023767              0.0040610
    100.7100000             -0.0316930              0.0306810
     32.1599000             -0.1133170              0.1304520
     11.8079000              0.0560900              0.3272050
      4.6311000              0.5922550              0.4528510
      1.8702500              0.4550060              0.2560420
SP   3   1.00
      2.6158400             -0.2503740             -0.0145110
      0.9221670              0.0669570              0.3102630
      0.3412870              1.0545100              0.7544830
SP   1   1.00
      0.1171670              1.0000000              1.0000000
D    1   1.00
      1.3000000              1.0000000
D    1   1.00
      0.3250000              1.0000000
F    1   1.00
      0.5500000              1.0000000
****
Cl     0
S    6   1.00
  25180.1000000              0.0018330
   3780.3500000              0.0140340
    860.4740000              0.0690970
    242.1450000              0.2374520
     77.3349000              0.4830340
     26.2470000              0.3398560
SP   6   1.00
    491.7650000             -0.0022974              0.0039894
    116.9840000             -0.0307140              0.0303180
     37.4153000             -0.1125280              0.1298800
     13.7834000              0.0450160              0.3279510
      5.4521500              0.5893530              0.4535270
      2.2258800              0.4652060              0.2521540
SP   3   1.00
      3.1864900             -0.2518300             -0.0142990
      1.1442700              0.0615890              0.3235720
      0.4203770              1.0601800              0.7435070
SP   1   1.00
      0.1426570              1.0000000              1.0000000
D    1   1.00
      1.5000000              1.0000000
D    1   1.00
      0.3750000              1.0000000
F    1   1.00
      0.7000000              1.0000000
****
}


set {
reference uhf                          
freeze_core true
e_convergence 10                       
d_convergence 10                      
dft_spherical_points 1202
dft_radial_points 99
}

e = energy('b3lyp')

print_out('Grab this energy {0}'.format(e))
--------------------------------------------------------------------------

  Memory set to  13.039 GiB by Python driver.

Scratch directory: /tmp/

*** tstart() called on n080
*** at Thu Nov  4 14:40:32 2021

   => Loading Basis Set <=

    Name: ANONYMOUS3102D3F0
    Role: ORBITAL
    Keyword: BASIS
    atoms 1, 4   entry C          line    48 inputblock 6-31g_2dfp_ 
    atoms 2-3, 5 entry H          line    15 inputblock 6-31g_2dfp_ 


         ---------------------------------------------------------
                                   SCF
               by Justin Turney, Rob Parrish, Andy Simmonett
                          and Daniel G. A. Smith
                              UKS Reference
                        1 Threads,  13351 MiB Core
         ---------------------------------------------------------

  ==> Geometry <==

    Molecular point group: cs
    Full point group: Cs

    Geometry (in Bohr), charge = 0, multiplicity = 2:

       Center              X                  Y                   Z               Mass       
    ------------   -----------------  -----------------  -----------------  -----------------
         C            1.176798467272    -0.045805446337     0.000000000000    12.000000000000
         H            2.114943433772    -1.889073650937     0.000000000000     1.007825032230
         H            2.394312703372     1.601953675763     0.000000000000     1.007825032230
         C           -1.310867797828     0.162483219063     0.000000000000    12.000000000000
         H           -2.912915586728    -1.102142275637     0.000000000000     1.007825032230

  Running in cs symmetry.

  Rotational constants: A =      7.76897  B =      1.07353  C =      0.94320 [cm^-1]
  Rotational constants: A = 232907.98674  B =  32183.76284  C =  28276.45681 [MHz]
  Nuclear repulsion =   28.272598515464765

  Charge       = 0
  Multiplicity = 2
  Electrons    = 15
  Nalpha       = 8
  Nbeta        = 7

  ==> Algorithm <==

  SCF Algorithm Type is DF.
  DIIS enabled.
  MOM disabled.
  Fractional occupation disabled.
  Guess Type is SAD.
  Energy threshold   = 1.00e-10
  Density threshold  = 1.00e-10
  Integral threshold = 0.00e+00

  ==> Primary Basis <==

  Basis Set: ANONYMOUS3102D3F0
    Blend: 6-31G_2DFP_
    Number of shells: 28
    Number of basis function: 76
    Number of Cartesian functions: 86
    Spherical Harmonics?: true
    Max angular momentum: 3

  ==> DFT Potential <==

   => Composite Functional: B3LYP <= 

    B3LYP Hyb-GGA Exchange-Correlation Functional

    P. J. Stephens, F. J. Devlin, C. F. Chabalowski, and M. J. Frisch, J. Phys. Chem. 98, 11623 (1994)

    Deriv               =              1
    GGA                 =           TRUE
    Meta                =          FALSE

    Exchange Hybrid     =           TRUE
    MP2 Hybrid          =          FALSE

   => Exchange Functionals <=

    0.0800   Slater exchange
    0.7200         Becke 88

   => Exact (HF) Exchange <=

    0.2000               HF 

   => Correlation Functionals <=

    0.1900   Vosko, Wilk & Nusair (VWN5_RPA)
    0.8100   Lee, Yang & Parr

   => Molecular Quadrature <=

    Radial Scheme          =       TREUTLER
    Pruning Scheme         =           NONE
    Nuclear Scheme         =       TREUTLER

    BS radius alpha        =              1
    Pruning alpha          =              1
    Radial Points          =             99
    Spherical Points       =           1202
    Total Points           =         565751
    Total Blocks           =           4039
    Max Points             =            256
    Max Functions          =             76
    Weights Tolerance      =       1.00E-15

   => Loading Basis Set <=

    Name: (ANONYMOUS3102D3F0 AUX)
    Role: JKFIT
    Keyword: DF_BASIS_SCF
    atoms 1, 4   entry C          line   198 file /opt/psi/4/master/share/psi4/basis/def2-universal-jkfit.gbs 
    atoms 2-3, 5 entry H          line    18 file /opt/psi/4/master/share/psi4/basis/def2-universal-jkfit.gbs 

  ==> Integral Setup <==

  DFHelper Memory: AOs need 0.010 GiB; user supplied 8.628 GiB. Using in-core AOs.

  ==> MemDFJK: Density-Fitted J/K Matrices <==

    J tasked:                   Yes
    K tasked:                   Yes
    wK tasked:                   No
    OpenMP threads:               1
    Memory [MiB]:              8835
    Algorithm:                 Core
    Schwarz Cutoff:           1E-12
    Mask sparsity (%):       0.0000
    Fitting Condition:        1E-10

   => Auxiliary Basis Set <=

  Basis Set: (ANONYMOUS3102D3F0 AUX)
    Blend: DEF2-UNIVERSAL-JKFIT
    Number of shells: 68
    Number of basis function: 204
    Number of Cartesian functions: 238
    Spherical Harmonics?: true
    Max angular momentum: 4

  Cached 100.0% of DFT collocation blocks in 1.151 [GiB].

  Minimum eigenvalue in the overlap matrix is 1.3705539121E-03.
  Reciprocal condition number of the overlap matrix is 2.8899958231E-04.
    Using symmetric orthogonalization.

  ==> Pre-Iterations <==

  SCF Guess: Superposition of Atomic Densities via on-the-fly atomic UHF (no occupation information).

   -------------------------
    Irrep   Nso     Nmo    
   -------------------------
     A'        52      52 
     A"        24      24 
   -------------------------
    Total      76      76
   -------------------------

  ==> Iterations <==

                           Total Energy        Delta E     RMS |[F,P]|

   @DF-UKS iter SAD:   -77.37602536132675   -7.73760e+01   0.00000e+00 
   @DF-UKS iter   1:   -77.76066741522007   -3.84642e-01   8.81847e-03 DIIS
   @DF-UKS iter   2:   -77.75199706142941    8.67035e-03   9.06033e-03 DIIS
   @DF-UKS iter   3:   -77.90379764399057   -1.51801e-01   1.39917e-03 DIIS
   @DF-UKS iter   4:   -77.90686708425805   -3.06944e-03   6.27602e-04 DIIS
   @DF-UKS iter   5:   -77.90765104862962   -7.83964e-04   6.76229e-05 DIIS
   @DF-UKS iter   6:   -77.90768603477784   -3.49861e-05   3.67637e-05 DIIS
   @DF-UKS iter   7:   -77.90770564465504   -1.96099e-05   1.89236e-05 DIIS
   @DF-UKS iter   8:   -77.90771154337868   -5.89872e-06   6.33707e-06 DIIS
   @DF-UKS iter   9:   -77.90771198574477   -4.42366e-07   8.10870e-07 DIIS
   @DF-UKS iter  10:   -77.90771198997396   -4.22919e-09   1.63288e-07 DIIS
   @DF-UKS iter  11:   -77.90771199007537   -1.01409e-10   3.26814e-08 DIIS
   @DF-UKS iter  12:   -77.90771199007978   -4.40536e-12   8.72411e-09 DIIS
   @DF-UKS iter  13:   -77.90771199008006   -2.84217e-13   2.17705e-09 DIIS
   @DF-UKS iter  14:   -77.90771199008002    4.26326e-14   8.57530e-10 DIIS
   @DF-UKS iter  15:   -77.90771199008000    1.42109e-14   1.14733e-10 DIIS
   @DF-UKS iter  16:   -77.90771199008009   -8.52651e-14   2.10334e-11 DIIS
  Energy and wave function converged.


  ==> Post-Iterations <==

   @Spin Contamination Metric:   1.123474335E-02
   @S^2 Expected:                7.500000000E-01
   @S^2 Observed:                7.612347433E-01
   @S   Expected:                5.000000000E-01
   @S   Observed:                5.000000000E-01

    Orbital Energies [Eh]
    ---------------------

    Alpha Occupied:                                                       

       1Ap   -10.205198     2Ap   -10.186246     3Ap    -0.759757  
       4Ap    -0.573652     5Ap    -0.456971     6Ap    -0.425558  
       1App   -0.277888     7Ap    -0.235246  

    Alpha Virtual:                                                        

       2App    0.011614     8Ap     0.117554     9Ap     0.122126  
      10Ap     0.183572    11Ap     0.305276    12Ap     0.413060  
      13Ap     0.458456    14Ap     0.473170     3App    0.490726  
       4App    0.512548    15Ap     0.513925    16Ap     0.590616  
       5App    0.595514    17Ap     0.638946     6App    0.654734  
      18Ap     0.669320    19Ap     0.705470     7App    0.732570  
      20Ap     0.857308    21Ap     0.912744     8App    0.976303  
      22Ap     0.984526     9App    1.046900    23Ap     1.047279  
      24Ap     1.151479    10App    1.191829    25Ap     1.247820  
      11App    1.327969    26Ap     1.471439    27Ap     1.540964  
      28Ap     1.603735    29Ap     1.732472    30Ap     1.805452  
      31Ap     1.996085    32Ap     2.318396    12App    2.648130  
      13App    2.724337    33Ap     2.769165    34Ap     2.811295  
      14App    2.849005    35Ap     2.869485    36Ap     2.958114  
      15App    3.047115    37Ap     3.103817    16App    3.106624  
      17App    3.147069    18App    3.176518    38Ap     3.189069  
      39Ap     3.254225    40Ap     3.320624    41Ap     3.386643  
      42Ap     3.397642    19App    3.568038    20App    3.646277  
      43Ap     3.763547    44Ap     4.019796    21App    4.055146  
      22App    4.146850    45Ap     4.196755    23App    4.241050  
      46Ap     4.244762    24App    4.409873    47Ap     4.496224  
      48Ap     4.526904    49Ap     4.766234    50Ap     5.092771  
      51Ap     5.190409    52Ap     5.401563  

    Beta Occupied:                                                        

       1Ap   -10.189882     2Ap   -10.187807     3Ap    -0.742564  
       4Ap    -0.552040     5Ap    -0.442086     6Ap    -0.411794  
       1App   -0.269966  

    Beta Virtual:                                                         

       7Ap    -0.068271     2App    0.023514     8Ap     0.120397  
       9Ap     0.132452    10Ap     0.189289    11Ap     0.315162  
      12Ap     0.422438    13Ap     0.476364    14Ap     0.481718  
       3App    0.494736     4App    0.520635    15Ap     0.564774  
       5App    0.600933    16Ap     0.611255    17Ap     0.645733  
       6App    0.663141    18Ap     0.684600    19Ap     0.718792  
       7App    0.755019    20Ap     0.874848    21Ap     0.930627  
       8App    0.979742    22Ap     0.989908     9App    1.051656  
      23Ap     1.055496    24Ap     1.161303    10App    1.199748  
      25Ap     1.265585    11App    1.336713    26Ap     1.485653  
      27Ap     1.548567    28Ap     1.612602    29Ap     1.749227  
      30Ap     1.821238    31Ap     2.010129    32Ap     2.340793  
      12App    2.659554    13App    2.752949    33Ap     2.788519  
      34Ap     2.853751    14App    2.860410    35Ap     2.880711  
      36Ap     2.976471    15App    3.049892    16App    3.114476  
      37Ap     3.120255    17App    3.165867    38Ap     3.205911  
      18App    3.229108    39Ap     3.285922    40Ap     3.344983  
      41Ap     3.404506    42Ap     3.429394    19App    3.587338  
      20App    3.662477    43Ap     3.788455    44Ap     4.033863  
      21App    4.064145    22App    4.155529    45Ap     4.208549  
      23App    4.248614    46Ap     4.261806    24App    4.420455  
      47Ap     4.518802    48Ap     4.552258    49Ap     4.780708  
      50Ap     5.105014    51Ap     5.201230    52Ap     5.413253  

    Final Occupation by Irrep:
             Ap   App 
    DOCC [     6,    1 ]
    SOCC [     1,    0 ]

  @DF-UKS Final Energy:   -77.90771199008009

   => Energetics <=

    Nuclear Repulsion Energy =             28.2725985154647645
    One-Electron Energy =                -159.5166109226552180
    Two-Electron Energy =                  62.9593779685917951
    DFT Exchange-Correlation Energy =      -9.6230775514814457
    Empirical Dispersion Energy =           0.0000000000000000
    VV10 Nonlocal Energy =                  0.0000000000000000
    Total Energy =                        -77.9077119900800881

  UHF NO Occupations:
  HONO-2 :    6 Ap 1.9992661
  HONO-1 :    1App 1.9955382
  HONO-0 :    7 Ap 1.0000000
  LUNO+0 :    2App 0.0044618
  LUNO+1 :    8 Ap 0.0007339
  LUNO+2 :    9 Ap 0.0002363
  LUNO+3 :   10 Ap 0.0001352


Computation Completed


Properties will be evaluated at   0.000000,   0.000000,   0.000000 [a0]

Properties computed using the SCF density matrix

  Nuclear Dipole Moment: [e a0]
     X:     0.7919      Y:    -0.6892      Z:     0.0000

  Electronic Dipole Moment: [e a0]
     X:    -0.7069      Y:     0.4728      Z:     0.0000

  Dipole Moment: [e a0]
     X:     0.0850      Y:    -0.2164      Z:     0.0000     Total:     0.2325

  Dipole Moment: [D]
     X:     0.2161      Y:    -0.5501      Z:     0.0000     Total:     0.5910


*** tstop() called on n080 at Thu Nov  4 14:41:02 2021
Module time:
	user time   =      29.63 seconds =       0.49 minutes
	system time =       0.36 seconds =       0.01 minutes
	total time  =         30 seconds =       0.50 minutes
Total time:
	user time   =      29.63 seconds =       0.49 minutes
	system time =       0.36 seconds =       0.01 minutes
	total time  =         30 seconds =       0.50 minutes
Grab this energy -77.90771199008009
    Psi4 stopped on: Thursday, 04 November 2021 02:41PM
    Psi4 wall time for execution: 0:00:30.02

*** Psi4 exiting successfully. Buy a developer a beer!
