
    -----------------------------------------------------------------------
          Psi4: An Open-Source Ab Initio Electronic Structure Package
                               Psi4 1.4a2.dev629 

                         Git: Rev {master} 2938fc2 dirty


    D. G. A. Smith, L. A. Burns, A. C. Simmonett, R. M. Parrish,
    M. C. Schieber, R. Galvelis, P. Kraus, H. Kruse, R. Di Remigio,
    A. Alenaizan, A. M. James, S. Lehtola, J. P. Misiewicz, M. Scheurer,
    R. A. Shaw, J. B. Schriber, Y. Xie, Z. L. Glick, D. A. Sirianni,
    J. S. O'Brien, J. M. Waldrop, A. Kumar, E. G. Hohenstein,
    B. P. Pritchard, B. R. Brooks, H. F. Schaefer III, A. Yu. Sokolov,
    K. Patkowski, A. E. DePrince III, U. Bozkaya, R. A. King,
    F. A. Evangelista, J. M. Turney, T. D. Crawford, C. D. Sherrill,
    J. Chem. Phys. 152(18) 184108 (2020). https://doi.org/10.1063/5.0006002

                            Additional Code Authors
    E. T. Seidl, C. L. Janssen, E. F. Valeev, M. L. Leininger,
    J. F. Gonthier, R. M. Richard, H. R. McAlexander, M. Saitow, X. Wang,
    P. Verma, and M. H. Lechner

             Previous Authors, Complete List of Code Contributors,
                       and Citations for Specific Modules
    https://github.com/psi4/psi4/blob/master/codemeta.json
    https://github.com/psi4/psi4/graphs/contributors
    http://psicode.org/psi4manual/master/introduction.html#citing-psifour

    -----------------------------------------------------------------------


    Psi4 started on: Thursday, 04 November 2021 02:35PM

    Process ID: 23062
    Host:       n035
    PSIDATADIR: /opt/psi/4/master/share/psi4
    Memory:     500.0 MiB
    Threads:    1
    
  ==> Input File <==

--------------------------------------------------------------------------
import os
memory 14 GB 
 
molecule {
 C    1.1743147291   -0.0478248555   -0.0022990234
 H    2.0968466175   -1.8840200192    0.0008490546
 H    2.3969227449    1.6035238892    0.0006434920
 C   -1.3074524472    0.1622083992    0.0010754436
 H   -2.9056573043   -1.1077651938   -0.0002689667
units bohr
0 2
}

basis {

assign 6-31g_2dfp_

[ 6-31g_2dfp_ ]

spherical

!----------------------------------------------------------------------
! Basis Set Exchange
! Version v0.8.13
! https://www.basissetexchange.org
!----------------------------------------------------------------------
!   Basis set: 6-31G(2df,p)
! Description: 6-31G(2df,p)
!        Role: orbital
!     Version: 0  (Data from the original Basis Set Exchange)
!----------------------------------------------------------------------


****
H     0
S    3   1.00
     18.7311370              0.03349460
      2.8253937              0.23472695
      0.6401217              0.81375733
S    1   1.00
      0.1612778              1.00000000
P    1   1.00
      1.5000000              1.0000000
P    1   1.00
      0.3750000              1.0000000
****
B     0
S    6   1.00
   2068.8823000              0.0018663
    310.6495700              0.0142515
     70.6830330              0.0695516
     19.8610800              0.2325729
      6.2993048              0.4670787
      2.1270270              0.3634314
SP   3   1.00
      4.7279710             -0.1303938              0.0745976
      1.1903377             -0.1307889              0.3078467
      0.3594117              1.1309444              0.7434568
SP   1   1.00
      0.1267512              1.0000000              1.0000000
D    1   1.00
      0.8020000              1.0000000
D    1   1.00
      0.2005000              1.0000000
F    1   1.00
      0.5000000              1.0000000
****
C     0
S    6   1.00
   3047.5249000              0.0018347
    457.3695100              0.0140373
    103.9486900              0.0688426
     29.2101550              0.2321844
      9.2866630              0.4679413
      3.1639270              0.3623120
SP   3   1.00
      7.8682724             -0.1193324              0.0689991
      1.8812885             -0.1608542              0.3164240
      0.5442493              1.1434564              0.7443083
SP   1   1.00
      0.1687144              1.0000000              1.0000000
D    1   1.00
      1.2520000              1.0000000
D    1   1.00
      0.3130000              1.0000000
F    1   1.00
      0.8000000              1.0000000
****
N     0
S    6   1.00
   4173.5110000              0.0018348
    627.4579000              0.0139950
    142.9021000              0.0685870
     40.2343300              0.2322410
     12.8202100              0.4690700
      4.3904370              0.3604550
SP   3   1.00
     11.6263580             -0.1149610              0.0675800
      2.7162800             -0.1691180              0.3239070
      0.7722180              1.1458520              0.7408950
SP   1   1.00
      0.2120313              1.0000000              1.0000000
D    1   1.00
      1.8260000              1.0000000
D    1   1.00
      0.4565000              1.0000000
F    1   1.00
      1.0000000              1.0000000
****
O     0
S    6   1.00
   5484.6717000              0.0018311
    825.2349500              0.0139501
    188.0469600              0.0684451
     52.9645000              0.2327143
     16.8975700              0.4701930
      5.7996353              0.3585209
SP   3   1.00
     15.5396160             -0.1107775              0.0708743
      3.5999336             -0.1480263              0.3397528
      1.0137618              1.1307670              0.7271586
SP   1   1.00
      0.2700058              1.0000000              1.0000000
D    1   1.00
      2.5840000              1.0000000
D    1   1.00
      0.6460000              1.0000000
F    1   1.00
      1.4000000              1.0000000
****
F     0
S    6   1.00
   7001.7130900              0.0018196169
   1051.3660900              0.0139160796
    239.2856900              0.0684053245
     67.3974453              0.233185760
     21.5199573              0.471267439
      7.40310130             0.356618546
SP   3   1.00
     20.8479528             -0.108506975            0.0716287243
      4.80830834            -0.146451658            0.3459121030
      1.34406986             1.128688580            0.7224699570
SP   1   1.00
      0.358151393            1.0000000              1.0000000
D    1   1.00
      3.5000000              1.0000000
D    1   1.00
      0.8750000              1.0000000
F    1   1.00
      1.8500000              1.0000000
****
Al     0
S    6   1.00
  13983.1000000              0.00194267
   2098.7500000              0.0148599
    477.7050000              0.0728494
    134.3600000              0.2468300
     42.8709000              0.4872580
     14.5189000              0.3234960
SP   6   1.00
    239.6680000             -0.00292619             0.00460285
     57.4419000             -0.0374080              0.0331990
     18.2859000             -0.1144870              0.1362820
      6.5991400              0.1156350              0.3304760
      2.4904900              0.6125950              0.4491460
      0.9445400              0.3937990              0.2657040
SP   3   1.00
      1.2779000             -0.2276060             -0.0175130
      0.3975900              0.00144583             0.2445330
      0.1600950              1.0927900              0.8049340
SP   1   1.00
      0.0556577              1.0000000              1.0000000
D    1   1.00
      0.6500000              1.0000000
D    1   1.00
      0.1625000              1.0000000
F    1   1.00
      0.2500000              1.0000000
****
Si     0
S    6   1.00
  16115.9000000              0.00195948
   2425.5800000              0.01492880
    553.8670000              0.07284780
    156.3400000              0.24613000
     50.0683000              0.48591400
     17.0178000              0.32500200
SP   6   1.00
    292.7180000             -0.00278094             0.00443826
     69.8731000             -0.03571460             0.03266790
     22.3363000             -0.11498500             0.13472100
      8.1503900              0.09356340             0.32867800
      3.1345800              0.60301700             0.44964000
      1.2254300              0.41895900             0.26137200
SP   3   1.00
      1.7273800             -0.24463000            -0.01779510
      0.5729220              0.00431572             0.25353900
      0.2221920              1.09818000             0.80066900
SP   1   1.00
      0.0778369              1.00000000             1.00000000
D    1   1.00
      0.9000000              1.0000000
D    1   1.00
      0.2250000              1.0000000
F    1   1.00
      0.3200000              1.0000000
****
P     0
S    6   1.00
  19413.3000000              0.0018516
   2909.4200000              0.0142062
    661.3640000              0.0699995
    185.7590000              0.2400790
     59.1943000              0.4847620
     20.0310000              0.3352000
SP   6   1.00
    339.4780000             -0.00278217             0.00456462
     81.0101000             -0.0360499              0.03369360
     25.8780000             -0.1166310              0.13975500
      9.4522100              0.0968328              0.33936200
      3.6656600              0.6144180              0.45092100
      1.4674600              0.4037980              0.23858600
SP   3   1.00
      2.1562300             -0.2529230             -0.01776530
      0.7489970              0.0328517              0.27405800
      0.2831450              1.0812500              0.78542100
SP   1   1.00
      0.0998317              1.0000000              1.00000000
D    1   1.00
      1.1000000              1.0000000
D    1   1.00
      0.2750000              1.0000000
F    1   1.00
      0.4500000              1.0000000
****
S     0
S    6   1.00
  21917.1000000              0.0018690
   3301.4900000              0.0142300
    754.1460000              0.0696960
    212.7110000              0.2384870
     67.9896000              0.4833070
     23.0515000              0.3380740
SP   6   1.00
    423.7350000             -0.0023767              0.0040610
    100.7100000             -0.0316930              0.0306810
     32.1599000             -0.1133170              0.1304520
     11.8079000              0.0560900              0.3272050
      4.6311000              0.5922550              0.4528510
      1.8702500              0.4550060              0.2560420
SP   3   1.00
      2.6158400             -0.2503740             -0.0145110
      0.9221670              0.0669570              0.3102630
      0.3412870              1.0545100              0.7544830
SP   1   1.00
      0.1171670              1.0000000              1.0000000
D    1   1.00
      1.3000000              1.0000000
D    1   1.00
      0.3250000              1.0000000
F    1   1.00
      0.5500000              1.0000000
****
Cl     0
S    6   1.00
  25180.1000000              0.0018330
   3780.3500000              0.0140340
    860.4740000              0.0690970
    242.1450000              0.2374520
     77.3349000              0.4830340
     26.2470000              0.3398560
SP   6   1.00
    491.7650000             -0.0022974              0.0039894
    116.9840000             -0.0307140              0.0303180
     37.4153000             -0.1125280              0.1298800
     13.7834000              0.0450160              0.3279510
      5.4521500              0.5893530              0.4535270
      2.2258800              0.4652060              0.2521540
SP   3   1.00
      3.1864900             -0.2518300             -0.0142990
      1.1442700              0.0615890              0.3235720
      0.4203770              1.0601800              0.7435070
SP   1   1.00
      0.1426570              1.0000000              1.0000000
D    1   1.00
      1.5000000              1.0000000
D    1   1.00
      0.3750000              1.0000000
F    1   1.00
      0.7000000              1.0000000
****
}


set {
reference uhf                          
freeze_core true
e_convergence 10                       
d_convergence 10                      
dft_spherical_points 1202
dft_radial_points 99
}

e = energy('b3lyp')

print_out('Grab this energy {0}'.format(e))
--------------------------------------------------------------------------

  Memory set to  13.039 GiB by Python driver.

Scratch directory: /tmp/

*** tstart() called on n035
*** at Thu Nov  4 14:35:22 2021

   => Loading Basis Set <=

    Name: ANONYMOUS2EB6A12E
    Role: ORBITAL
    Keyword: BASIS
    atoms 1, 4   entry C          line    48 inputblock 6-31g_2dfp_ 
    atoms 2-3, 5 entry H          line    15 inputblock 6-31g_2dfp_ 


         ---------------------------------------------------------
                                   SCF
               by Justin Turney, Rob Parrish, Andy Simmonett
                          and Daniel G. A. Smith
                              UKS Reference
                        1 Threads,  13351 MiB Core
         ---------------------------------------------------------

  ==> Geometry <==

    Molecular point group: c1
    Full point group: C1

    Geometry (in Bohr), charge = 0, multiplicity = 2:

       Center              X                  Y                   Z               Mass       
    ------------   -----------------  -----------------  -----------------  -----------------
         C            1.174207915712    -0.046843412924    -0.001801315274    12.000000000000
         H            2.096739804112    -1.883038576624     0.001346762726     1.007825032230
         H            2.396815931512     1.604505331776     0.001141200126     1.007825032230
         C           -1.307559260588     0.163189841776     0.001573151726    12.000000000000
         H           -2.905764117688    -1.106783751224     0.000228741426     1.007825032230

  Running in c1 symmetry.

  Rotational constants: A =      7.76919  B =      1.07900  C =      0.94743 [cm^-1]
  Rotational constants: A = 232914.48440  B =  32347.75556  C =  28403.09612 [MHz]
  Nuclear repulsion =   28.327873568144547

  Charge       = 0
  Multiplicity = 2
  Electrons    = 15
  Nalpha       = 8
  Nbeta        = 7

  ==> Algorithm <==

  SCF Algorithm Type is DF.
  DIIS enabled.
  MOM disabled.
  Fractional occupation disabled.
  Guess Type is SAD.
  Energy threshold   = 1.00e-10
  Density threshold  = 1.00e-10
  Integral threshold = 0.00e+00

  ==> Primary Basis <==

  Basis Set: ANONYMOUS2EB6A12E
    Blend: 6-31G_2DFP_
    Number of shells: 28
    Number of basis function: 76
    Number of Cartesian functions: 86
    Spherical Harmonics?: true
    Max angular momentum: 3

  ==> DFT Potential <==

   => Composite Functional: B3LYP <= 

    B3LYP Hyb-GGA Exchange-Correlation Functional

    P. J. Stephens, F. J. Devlin, C. F. Chabalowski, and M. J. Frisch, J. Phys. Chem. 98, 11623 (1994)

    Deriv               =              1
    GGA                 =           TRUE
    Meta                =          FALSE

    Exchange Hybrid     =           TRUE
    MP2 Hybrid          =          FALSE

   => Exchange Functionals <=

    0.0800   Slater exchange
    0.7200         Becke 88

   => Exact (HF) Exchange <=

    0.2000               HF 

   => Correlation Functionals <=

    0.1900   Vosko, Wilk & Nusair (VWN5_RPA)
    0.8100   Lee, Yang & Parr

   => Molecular Quadrature <=

    Radial Scheme          =       TREUTLER
    Pruning Scheme         =           NONE
    Nuclear Scheme         =       TREUTLER

    BS radius alpha        =              1
    Pruning alpha          =              1
    Radial Points          =             99
    Spherical Points       =           1202
    Total Points           =         565717
    Total Blocks           =           4015
    Max Points             =            256
    Max Functions          =             76
    Weights Tolerance      =       1.00E-15

   => Loading Basis Set <=

    Name: (ANONYMOUS2EB6A12E AUX)
    Role: JKFIT
    Keyword: DF_BASIS_SCF
    atoms 1, 4   entry C          line   198 file /opt/psi/4/master/share/psi4/basis/def2-universal-jkfit.gbs 
    atoms 2-3, 5 entry H          line    18 file /opt/psi/4/master/share/psi4/basis/def2-universal-jkfit.gbs 

  ==> Integral Setup <==

  DFHelper Memory: AOs need 0.010 GiB; user supplied 8.628 GiB. Using in-core AOs.

  ==> MemDFJK: Density-Fitted J/K Matrices <==

    J tasked:                   Yes
    K tasked:                   Yes
    wK tasked:                   No
    OpenMP threads:               1
    Memory [MiB]:              8835
    Algorithm:                 Core
    Schwarz Cutoff:           1E-12
    Mask sparsity (%):       0.0000
    Fitting Condition:        1E-10

   => Auxiliary Basis Set <=

  Basis Set: (ANONYMOUS2EB6A12E AUX)
    Blend: DEF2-UNIVERSAL-JKFIT
    Number of shells: 68
    Number of basis function: 204
    Number of Cartesian functions: 238
    Spherical Harmonics?: true
    Max angular momentum: 4

  Cached 100.0% of DFT collocation blocks in 1.151 [GiB].

  Minimum eigenvalue in the overlap matrix is 1.3668916355E-03.
  Reciprocal condition number of the overlap matrix is 2.8767074739E-04.
    Using symmetric orthogonalization.

  ==> Pre-Iterations <==

  SCF Guess: Superposition of Atomic Densities via on-the-fly atomic UHF (no occupation information).

   -------------------------
    Irrep   Nso     Nmo    
   -------------------------
     A         76      76 
   -------------------------
    Total      76      76
   -------------------------

  ==> Iterations <==

                           Total Energy        Delta E     RMS |[F,P]|

   @DF-UKS iter SAD:   -77.38066143032951   -7.73807e+01   0.00000e+00 
   @DF-UKS iter   1:   -77.75966658739927   -3.79005e-01   6.67549e-03 DIIS
   @DF-UKS iter   2:   -77.75117629455205    8.49029e-03   6.85163e-03 DIIS
   @DF-UKS iter   3:   -77.90391372972370   -1.52737e-01   1.04838e-03 DIIS
   @DF-UKS iter   4:   -77.90693191125108   -3.01818e-03   4.74811e-04 DIIS
   @DF-UKS iter   5:   -77.90771935704925   -7.87446e-04   5.05108e-05 DIIS
   @DF-UKS iter   6:   -77.90775346006660   -3.41030e-05   2.73370e-05 DIIS
   @DF-UKS iter   7:   -77.90777233348530   -1.88734e-05   1.40279e-05 DIIS
   @DF-UKS iter   8:   -77.90777795916200   -5.62568e-06   4.70247e-06 DIIS
   @DF-UKS iter   9:   -77.90777838267229   -4.23510e-07   6.02806e-07 DIIS
   @DF-UKS iter  10:   -77.90777838676983   -4.09754e-09   1.21064e-07 DIIS
   @DF-UKS iter  11:   -77.90777838686859   -9.87512e-11   2.45108e-08 DIIS
   @DF-UKS iter  12:   -77.90777838687306   -4.47642e-12   6.57205e-09 DIIS
   @DF-UKS iter  13:   -77.90777838687323   -1.70530e-13   1.61163e-09 DIIS
   @DF-UKS iter  14:   -77.90777838687325   -1.42109e-14   6.22467e-10 DIIS
   @DF-UKS iter  15:   -77.90777838687329   -4.26326e-14   8.43413e-11 DIIS
  Energy and wave function converged.


  ==> Post-Iterations <==

   @Spin Contamination Metric:   1.100545471E-02
   @S^2 Expected:                7.500000000E-01
   @S^2 Observed:                7.610054547E-01
   @S   Expected:                5.000000000E-01
   @S   Observed:                5.000000000E-01

    Orbital Energies [Eh]
    ---------------------

    Alpha Occupied:                                                       

       1A    -10.204605     2A    -10.185375     3A     -0.760679  
       4A     -0.573300     5A     -0.458094     6A     -0.425386  
       7A     -0.278362     8A     -0.235135  

    Alpha Virtual:                                                        

       9A      0.012348    10A      0.118102    11A      0.122054  
      12A      0.184077    13A      0.305571    14A      0.413557  
      15A      0.457956    16A      0.474198    17A      0.490574  
      18A      0.511989    19A      0.514020    20A      0.592580  
      21A      0.595692    22A      0.638393    23A      0.654981  
      24A      0.668771    25A      0.706751    26A      0.734152  
      27A      0.858959    28A      0.913364    29A      0.976259  
      30A      0.986742    31A      1.044675    32A      1.048203  
      33A      1.154270    34A      1.193149    35A      1.249158  
      36A      1.328764    37A      1.472942    38A      1.542359  
      39A      1.607159    40A      1.733465    41A      1.809749  
      42A      1.998146    43A      2.317880    44A      2.649221  
      45A      2.723864    46A      2.771588    47A      2.811955  
      48A      2.850199    49A      2.869808    50A      2.954752  
      51A      3.046836    52A      3.102852    53A      3.106438  
      54A      3.144231    55A      3.175603    56A      3.193023  
      57A      3.258746    58A      3.319696    59A      3.387258  
      60A      3.398375    61A      3.570900    62A      3.651105  
      63A      3.771468    64A      4.020367    65A      4.058569  
      66A      4.147340    67A      4.202705    68A      4.246630  
      69A      4.248239    70A      4.411839    71A      4.502519  
      72A      4.522095    73A      4.771839    74A      5.099153  
      75A      5.192174    76A      5.408106  

    Beta Occupied:                                                        

       1A    -10.189296     2A    -10.186917     3A     -0.743502  
       4A     -0.551634     5A     -0.443108     6A     -0.411668  
       7A     -0.270435  

    Beta Virtual:                                                         

       8A     -0.068113     9A      0.024270    10A      0.120759  
      11A      0.132508    12A      0.189758    13A      0.315433  
      14A      0.422853    15A      0.476090    16A      0.482624  
      17A      0.494580    18A      0.520133    19A      0.564815  
      20A      0.601067    21A      0.613504    22A      0.644981  
      23A      0.663454    24A      0.684132    25A      0.719851  
      26A      0.756537    27A      0.876472    28A      0.931245  
      29A      0.979721    30A      0.992082    31A      1.052687  
      32A      1.053121    33A      1.164187    34A      1.201193  
      35A      1.267000    36A      1.337519    37A      1.487115  
      38A      1.549966    39A      1.616059    40A      1.750339  
      41A      1.825545    42A      2.012400    43A      2.340218  
      44A      2.660743    45A      2.752351    46A      2.791108  
      47A      2.854371    48A      2.861503    49A      2.880672  
      50A      2.973377    51A      3.049515    52A      3.114409  
      53A      3.119483    54A      3.162660    55A      3.209848  
      56A      3.228634    57A      3.290577    58A      3.344672  
      59A      3.403706    60A      3.430535    61A      3.590215  
      62A      3.667426    63A      3.796427    64A      4.034316  
      65A      4.067423    66A      4.155959    67A      4.214408  
      68A      4.254600    69A      4.265115    70A      4.422442  
      71A      4.525171    72A      4.547719    73A      4.786366  
      74A      5.111180    75A      5.203180    76A      5.419949  

    Final Occupation by Irrep:
              A 
    DOCC [     7 ]
    SOCC [     1 ]

  @DF-UKS Final Energy:   -77.90777838687329

   => Energetics <=

    Nuclear Repulsion Energy =             28.3278735681445468
    One-Electron Energy =                -159.6245399925907122
    Two-Electron Energy =                  63.0147332972734873
    DFT Exchange-Correlation Energy =      -9.6258452597006148
    Empirical Dispersion Energy =           0.0000000000000000
    VV10 Nonlocal Energy =                  0.0000000000000000
    Total Energy =                        -77.9077783868732752

  UHF NO Occupations:
  HONO-2 :    6  A 1.9992737
  HONO-1 :    7  A 1.9956384
  HONO-0 :    8  A 1.0000000
  LUNO+0 :    9  A 0.0043616
  LUNO+1 :   10  A 0.0007263
  LUNO+2 :   11  A 0.0002292
  LUNO+3 :   12  A 0.0001342


Computation Completed


Properties will be evaluated at   0.000000,   0.000000,   0.000000 [a0]

Properties computed using the SCF density matrix

  Nuclear Dipole Moment: [e a0]
     X:     0.7877      Y:    -0.6872      Z:     0.0013

  Electronic Dipole Moment: [e a0]
     X:    -0.7014      Y:     0.4691      Z:    -0.0009

  Dipole Moment: [e a0]
     X:     0.0862      Y:    -0.2181      Z:     0.0004     Total:     0.2346

  Dipole Moment: [D]
     X:     0.2192      Y:    -0.5545      Z:     0.0011     Total:     0.5962


*** tstop() called on n035 at Thu Nov  4 14:36:01 2021
Module time:
	user time   =      38.78 seconds =       0.65 minutes
	system time =       0.29 seconds =       0.00 minutes
	total time  =         39 seconds =       0.65 minutes
Total time:
	user time   =      38.78 seconds =       0.65 minutes
	system time =       0.29 seconds =       0.00 minutes
	total time  =         39 seconds =       0.65 minutes
Grab this energy -77.90777838687329
    Psi4 stopped on: Thursday, 04 November 2021 02:36PM
    Psi4 wall time for execution: 0:00:39.11

*** Psi4 exiting successfully. Buy a developer a beer!
