
 Primary working directories    : /tmp/1047041.205.gen4.q
 Secondary working directories  : /tmp/1047041.205.gen4.q
 Wavefunction directory         : /home/vulcan/mel64643/wfu/
 Main file repository           : /tmp/1047041.205.gen4.q/

 ARCHNAME  : Linux/x86_64
 FC        : /opt/intel/compilers_and_libraries_2016.1.150/linux/bin/intel64/ifort
 FCVERSION : 16.0.1
 BLASLIB   : -mkl
 id        : ccgc

 Nodes     nprocs
 n022         1
 ga_uses_ma=false, calling ma_init with nominal heap.
 GA-space will be limited to   8.0 MW (determined by -G option)

 Using customized tuning parameters: mindgm=10; mindgv=16; mindgc=4; mindgr=1; noblas=0; mincuda=1000; minvec=7
 default implementation of scratch files=df  

 ***,Optimization of ben_hcn
 memory,1000,m
 gthresh,energy=1.0d-12,orbital=1.0d-10,oneint=1.0d-16,twoint=1.0d-16,optgrad=1.0d-6,compress=1.0d-13
 geomtyp=xyz
 
 
 
 bohr
 geometry = {
  C   -1.8843561925    1.3714132196    2.2807648713
  C   -1.8677687991    2.6894528457   -0.0040832179
  C   -1.8849342849    1.3726883219   -2.2929780464
  C   -1.9187983605   -1.2734447980   -2.2969491402
  C   -1.9354457200   -2.5970711975   -0.0022295684
  C   -1.9181247117   -1.2689627858    2.2865693010
  H   -1.8651558444    2.3975164215    4.0530299140
  H   -1.8359033018    4.7371885804   -0.0028825408
  H   -1.8660241318    2.3992119563   -4.0649971560
  H   -1.9256881524   -2.2963462803   -4.0711232888
  H   -1.9550014593   -4.6449101364    0.0004379962
  H   -1.9245575616   -2.2889674422    4.0624172289
  N    6.6204793918   -0.2420168330    0.0320129569
  C    4.4328976958   -0.0864839365    0.0159076282
  H    2.4151826793    0.0572556122    0.0012035760
 }
 
 basis=aug-cc-pvdz, H=cc-pvdz
 {rhf;maxit,200}
 {ccsd(t)}

 Variables initialized (661), CPU time= 0.00 sec
 Commands  initialized (458), CPU time= 0.00 sec, 486 directives.
 Default parameters read. Elapsed time= 0.07 sec

 Checking input...
 Passed
1


                                         ***  PROGRAM SYSTEM MOLPRO  ***
                         Copyright, University College Cardiff Consultants Limited, 2008

                                    Version 2010.1 linked May 16 2016 07:17:05


 **********************************************************************************************************************************
 LABEL *   Optimization of ben_hcn                                                       
 Linux-4.4.3/n022(x86_64) 64 bit mpp version                                             DATE: 06-Mar-24          TIME: 19:52:52  
 **********************************************************************************************************************************

 SHA1:             9e8077add272b0f3cad6f7df79ec5211205f459d
 **********************************************************************************************************************************

 THRESHOLDS:

 ZERO    =  1.00D-12  ONEINT  =  1.00D-16  TWOINT  =  1.00D-16  PREFAC  =  1.00D-14  LOCALI  =  1.00D-09  EORDER  =  1.00D-04
 ENERGY  =  1.00D-12  ETEST   =  0.00D+00  EDENS   =  0.00D+00  THRDEDEF=  1.00D-06  GRADIENT=  1.00D-02  STEP    =  1.00D-03
 ORBITAL =  1.00D-10  CIVEC   =  1.00D-05  COEFF   =  1.00D-04  PRINTCI =  5.00D-02  PUNCHCI =  9.90D+01  OPTGRAD =  1.00D-06
 OPTENERG=  1.00D-06  OPTSTEP =  3.00D-04  THRGRAD =  1.00D-10  COMPRESS=  1.00D-13  VARMIN  =  1.00D-07  VARMAX  =  1.00D-03
 THRDOUB =  0.00D+00  THRDIV  =  1.00D-05  THRRED  =  1.00D-07  THRPSP  =  1.00D+00  THRDC   =  1.00D-10  THRCS   =  1.00D-10
 THRNRM  =  1.00D-08  THREQ   =  0.00D+00  THRDE   =  1.00D+00  THRREF  =  1.00D-05  SPARFAC =  1.00D+00  THRDLP  =  1.00D-07
 THRDIA  =  1.00D-10  THRDLS  =  1.00D-07  THRGPS  =  0.00D+00  THRKEX  =  0.00D+00  THRDIS  =  2.00D-01  THRVAR  =  1.00D-10
 THRLOC  =  1.00D-06  THRGAP  =  1.00D-06  THRLOCT = -1.00D+00  THRGAPT = -1.00D+00  THRORB  =  1.00D-06  THRMLTP =  0.00D+00
 THRCPQCI=  1.00D-10  KEXTA   =  0.00D+00  THRCOARS=  0.00D+00  SYMTOL  =  1.00D-06  GRADTOL =  1.00D-06  THROVL  =  1.00D-08
 THRORTH =  1.00D-08  GRID    =  1.00D-06  GRIDMAX =  1.00D-03  DTMAX   =  0.00D+00

 SETTING GEOMTYP        =    XYZ
 ZUNIT=BOHR
 

 Variable memory set to 1000000000 words,  buffer space   230000 words

 SETTING BASIS          =    AUG-CC-PVDZ,H=CC-PVDZ


 Recomputing integrals since basis changed


 Using spherical harmonics

 Library entry C      S aug-cc-pVDZ          selected for orbital group  1
 Library entry C      P aug-cc-pVDZ          selected for orbital group  1
 Library entry C      D aug-cc-pVDZ          selected for orbital group  1
 Library entry H      S cc-pVDZ              selected for orbital group  2
 Library entry H      P cc-pVDZ              selected for orbital group  2
 Library entry N      S aug-cc-pVDZ          selected for orbital group  3
 Library entry N      P aug-cc-pVDZ          selected for orbital group  3
 Library entry N      D aug-cc-pVDZ          selected for orbital group  3

1PROGRAM * SEWARD (Integral evaluation for generally contracted gaussian basis sets)     Author: Roland Lindh, 1990

 Geometry written to block  1 of record 700


 Point group  C1  



 ATOMIC COORDINATES

 NR  ATOM    CHARGE       X              Y              Z

   1  C       6.00   -1.884356193    1.371413220    2.280764871
   2  C       6.00   -1.867768799    2.689452846   -0.004083218
   3  C       6.00   -1.884934285    1.372688322   -2.292978046
   4  C       6.00   -1.918798361   -1.273444798   -2.296949140
   5  C       6.00   -1.935445720   -2.597071198   -0.002229568
   6  C       6.00   -1.918124712   -1.268962786    2.286569301
   7  H       1.00   -1.865155844    2.397516422    4.053029914
   8  H       1.00   -1.835903302    4.737188580   -0.002882541
   9  H       1.00   -1.866024132    2.399211956   -4.064997156
  10  H       1.00   -1.925688152   -2.296346280   -4.071123289
  11  H       1.00   -1.955001459   -4.644910136    0.000437996
  12  H       1.00   -1.924557562   -2.288967442    4.062417229
  13  N       7.00    6.620479392   -0.242016833    0.032012957
  14  C       6.00    4.432897696   -0.086483936    0.015907628
  15  H       1.00    2.415182679    0.057255612    0.001203576

 Bond lengths in Bohr (Angstrom)

 1-2  2.637808634  1-6  2.640598314  1-7  2.047969681  2-3  2.640682298  2-8  2.047984006
     ( 1.395868211)     ( 1.397344446)     ( 1.083738880)     ( 1.397388889)     ( 1.083746461)

  3- 4  2.646352779   3- 9  2.047964866   4- 5  2.649151165   4-10  2.047942583   5- 6  2.646275162
       ( 1.400389578)       ( 1.083736332)       ( 1.401870420)       ( 1.083724540)       ( 1.400348505)

  5-11  2.047934047   6-12  2.047946958  13-14  2.193162908  14-15  2.022881893
       ( 1.083720023)       ( 1.083726856)       ( 1.160571826)       ( 1.070462995)

 Bond angles

  1- 2- 3  120.10583716   1- 2- 8  119.94719482   1- 6- 5  120.00123510   1- 6-12  119.99777575

  2-1-6  120.10687618   2-1-7  119.94511463   2-3-4  119.99920907   2-3-9  119.99924868

  3- 2- 8  119.94671829   3- 4- 5  119.89293347   3- 4-10  120.05156499   4- 3- 9  120.00125677

  4- 5- 6  119.89390900   4- 5-11  120.05339172   5- 4-10  120.05517518   5- 6-12  120.00067091

  6- 1- 7  119.94773827   6- 5-11  120.05234695  13-14-15  179.99091354

 NUCLEAR CHARGE:                   56
 NUMBER OF PRIMITIVE AOS:         345
 NUMBER OF SYMMETRY AOS:          329
 NUMBER OF CONTRACTIONS:          219   ( 219A   )
 NUMBER OF CORE ORBITALS:           8   (   8A   )
 NUMBER OF VALENCE ORBITALS:       39   (  39A   )


 NUCLEAR REPULSION ENERGY  303.41119770


 Eigenvalues of metric

         1 0.865E-05 0.186E-04 0.229E-04 0.534E-04 0.630E-04 0.631E-04 0.929E-04 0.929E-04


 Contracted 2-electron integrals neglected if value below      1.0D-16
 AO integral compression algorithm  1   Integral accuracy      1.0D-16

     2340.684 MB (compressed) written to integral file ( 91.2%)

     Node minimum: 2340.684 MB, node maximum: 2340.684 MB


 NUMBER OF SORTED TWO-ELECTRON INTEGRALS:  290176095.     BUFFER LENGTH:  32768
 NUMBER OF SEGMENTS:  19  SEGMENT LENGTH:   15999762      RECORD LENGTH: 524288

 Memory used in sort:      16.56 MW

 SORT1 READ   320642736. AND WROTE   287593074. INTEGRALS IN    832 RECORDS. CPU TIME:     3.50 SEC, REAL TIME:     6.85 SEC
 SORT2 READ   287593074. AND WROTE   290176095. INTEGRALS IN   8929 RECORDS. CPU TIME:     1.94 SEC, REAL TIME:     3.19 SEC

 FILE SIZES:   FILE 1:  2151.3 MBYTE,  FILE 4:  3489.7 MBYTE,   TOTAL:   5641.0 MBYTE

 OPERATOR DM      FOR CENTER  0  COORDINATES:    0.000000    0.000000    0.000000


 **********************************************************************************************************************************
 DATASETS  * FILE   NREC   LENGTH (MB)   RECORD NAMES
              1      19     2151.88       500      610      700      900      950      970     1000      129      960     1100   
                                          VAR    BASINP    GEOM    SYMINP    ZMAT    AOBASIS   BASIS     P2S    ABASIS      S 
                                         1400     1410     1200     1210     1080     1600     1650     1300     1700   
                                           T        V       H0       H01     AOSYM     SMH    MOLCAS    ERIS     OPER   

 PROGRAMS   *        TOTAL       INT
 CPU TIMES  *        19.26     19.20
 REAL TIME  *        26.38 SEC
 DISK USED  *         7.98 GB      
 GA USED    *         0.01 MB       (max)       0.00 MB       (current)
 **********************************************************************************************************************************

1PROGRAM * RHF-SCF (CLOSED SHELL)       Authors: W. Meyer, H.-J. Werner


 NUMBER OF ELECTRONS:      28+   28-    SPACE SYMMETRY=1    SPIN SYMMETRY: Singlet 
 CONVERGENCE THRESHOLDS:    1.00E-10 (Density)    1.00E-13 (Energy)
 MAX. NUMBER OF ITERATIONS:      200
 INTERPOLATION TYPE:            DIIS
 INTERPOLATION STEPS:              2 (START)      1 (STEP)
 LEVEL SHIFTS:                  0.00 (CLOSED)  0.00 (OPEN) 



 Orbital guess generated from atomic densities. Full valence occupancy:   47

 Molecular orbital dump at record        2100.2

 ITERATION    DDIFF          GRAD             ENERGY        2-EL.EN.            DIPOLE MOMENTS         DIIS
    1      0.000D+00      0.000D+00      -323.54135164    822.160094   -1.89727    0.12177   -0.01773    0
    2      0.000D+00      0.292D-02      -323.59779280    819.139584   -1.36778    0.06811   -0.00339    1
    3      0.781D-02      0.179D-02      -323.61438885    820.284666   -1.72822    0.09693   -0.01146    2
    4      0.260D-02      0.576D-03      -323.61672515    820.486466   -1.63757    0.08872   -0.01021    3
    5      0.963D-03      0.133D-03      -323.61685451    820.226453   -1.66149    0.09029   -0.00982    4
    6      0.223D-03      0.229D-04      -323.61686064    820.253303   -1.66284    0.08982   -0.01008    5
    7      0.845D-04      0.436D-05      -323.61686084    820.248453   -1.66318    0.09006   -0.00987    6
    8      0.108D-04      0.127D-05      -323.61686085    820.249382   -1.66349    0.08989   -0.01003    7
    9      0.349D-05      0.346D-06      -323.61686086    820.249475   -1.66347    0.09000   -0.00993    7
   10      0.871D-06      0.160D-06      -323.61686086    820.249443   -1.66347    0.08995   -0.00997    7
   11      0.304D-06      0.258D-07      -323.61686086    820.249443   -1.66347    0.08995   -0.00997    7
   12      0.109D-06      0.562D-08      -323.61686086    820.249444   -1.66347    0.08995   -0.00997    7
   13      0.191D-07      0.194D-08      -323.61686086    820.249444   -1.66347    0.08995   -0.00997    7
   14      0.611D-08      0.632D-09      -323.61686086    820.249443   -1.66347    0.08995   -0.00997    7
   15      0.214D-08      0.273D-09      -323.61686086    820.249443   -1.66347    0.08995   -0.00997    7
   16      0.651D-09      0.127D-09      -323.61686086    820.249443   -1.66347    0.08995   -0.00997    7
   17      0.443D-09      0.706D-10      -323.61686086    820.249443   -1.66347    0.08995   -0.00997    8
   18      0.233D-09      0.327D-10      -323.61686086    820.249443   -1.66347    0.08995   -0.00997    8
   19      0.285D-09      0.978D-11      -323.61686086    820.249443   -1.66347    0.08995   -0.00997    9
   20      0.135D-09      0.225D-11      -323.61686086    820.249443   -1.66347    0.08995   -0.00997    9
   21      0.187D-09      0.126D-11      -323.61686086    820.249443   -1.66347    0.08995   -0.00997    9
   22      0.786D-10      0.769D-12      -323.61686086    820.249443   -1.66347    0.08995   -0.00997    9
   23      0.846D-10      0.661D-12      -323.61686086    820.249443   -1.66347    0.08995   -0.00997    0

 Final occupancy:  28

 !RHF STATE 1.1 Energy               -323.616860855727
 Nuclear energy                       303.41119770
 One-electron energy                -1037.15278026
 Two-electron energy                  410.12472170
 Virial quotient                       -1.00170956
 !RHF STATE 1.1 Dipole moment          -1.66346683     0.08995393    -0.00996674
 Dipole moment /Debye                  -4.22783403     0.22862512    -0.02533128

 Orbital energies:

         1.1          2.1          3.1          4.1          5.1          6.1          7.1          8.1          9.1         10.1
    -15.591641   -11.283863   -11.266449   -11.265760   -11.265547   -11.264656   -11.264436   -11.263702    -1.218330    -1.173920

        11.1         12.1         13.1         14.1         15.1         16.1         17.1         18.1         19.1         20.1
     -1.037780    -1.037774    -0.845714    -0.845710    -0.789911    -0.729356    -0.664869    -0.639184    -0.608553    -0.608552

        21.1         22.1         23.1         24.1         25.1         26.1         27.1         28.1         29.1         30.1
     -0.565224    -0.520373    -0.514843    -0.514842    -0.475687    -0.475681    -0.359658    -0.359655     0.055866     0.060086


 **********************************************************************************************************************************
 DATASETS  * FILE   NREC   LENGTH (MB)   RECORD NAMES
              1      19     2151.88       500      610      700      900      950      970     1000      129      960     1100   
                                          VAR    BASINP    GEOM    SYMINP    ZMAT    AOBASIS   BASIS     P2S    ABASIS      S 
                                         1400     1410     1200     1210     1080     1600     1650     1300     1700   
                                           T        V       H0       H01     AOSYM     SMH    MOLCAS    ERIS     OPER   

              2       3        1.49       700     1000     2100   
                                         GEOM     BASIS     RHF  

 PROGRAMS   *        TOTAL       RHF       INT
 CPU TIMES  *        73.53     54.27     19.20
 REAL TIME  *        85.92 SEC
 DISK USED  *         7.98 GB      
 GA USED    *         0.01 MB       (max)       0.00 MB       (current)
 **********************************************************************************************************************************


1PROGRAM * CCSD (Closed-shell coupled cluster)     Authors: C. Hampel, H.-J. Werner, 1991, M. Deegan, P.J. Knowles, 1992


 Convergence thresholds:  THRVAR = 1.00D-08  THRDEN = 1.00D-12

 CCSD(T)     terms to be evaluated (factor= 1.000)


 Number of core orbitals:           8 (   8 )
 Number of closed-shell orbitals:  20 (  20 )
 Number of external orbitals:     191 ( 191 )

 Molecular orbitals read from record     2100.2  Type=RHF/CANONICAL (state 1.1)

 Number of N-1 electron functions:              20
 Number of N-2 electron functions:             210
 Number of singly external CSFs:              3820
 Number of doubly external CSFs:           7298110
 Total number of CSFs:                     7301931

 Length of J-op  integral file:               0.00 MB
 Length of K-op  integral file:               3.32 MB
 Length of 3-ext integral record:             0.00 MB

 Memory could be reduced to 174.82 Mwords without degradation in triples

 Integral transformation finished. Total CPU:  23.11 sec, npass=  1  Memory used: 128.13 MW

 Reference energy:                   -323.61686086

 MP2 singlet pair energy:              -0.67334549
 MP2 triplet pair energy:              -0.43520232
 MP2 correlation energy:               -1.10854781
 MP2 total energy:                   -324.72540867

 SCS-MP2 correlation energy:           -1.07880715   (PS=  1.200000  PT=  0.333333)
 SCS-MP2 total energy:               -324.69566800

 ITER.      SQ.NORM     CORR.ENERGY   TOTAL ENERGY   ENERGY CHANGE        DEN1      VAR(S)    VAR(P)  DIIS     TIME
   1      1.42873415    -1.14462781  -324.76148867    -0.03608000    -0.00288732  0.51D-02  0.99D-02  1  1    96.14
   2      1.46305664    -1.15050116  -324.76736202    -0.00587335    -0.03103166  0.83D-04  0.13D-02  2  2   169.65
   3      1.47634840    -1.15094884  -324.76780970    -0.00044768    -0.00655952  0.40D-04  0.12D-03  3  3   243.14
   4      1.48204061    -1.15119853  -324.76805938    -0.00024968    -0.00178584  0.22D-05  0.15D-04  4  4   316.70
   5      1.48356999    -1.15123423  -324.76809508    -0.00003570    -0.00036588  0.25D-06  0.14D-05  5  5   390.22
   6      1.48387619    -1.15122571  -324.76808656     0.00000852    -0.00005025  0.24D-07  0.91D-07  6  6   463.82
   7      1.48391098    -1.15122912  -324.76808997    -0.00000341    -0.00000225  0.34D-08  0.80D-08  6  2   537.42
   8      1.48391565    -1.15122947  -324.76809033    -0.00000036    -0.00000042  0.41D-09  0.83D-09  6  1   610.99
   9      1.48391588    -1.15122964  -324.76809050    -0.00000017     0.00000079  0.63D-10  0.78D-10  6  3   684.62
  10      1.48391625    -1.15122970  -324.76809056    -0.00000006     0.00000002  0.10D-10  0.99D-11  6  4   758.19
  11      1.48391598    -1.15122974  -324.76809059    -0.00000004     0.00000022  0.17D-11  0.14D-11  6  5   831.86
  12      1.48391581    -1.15122975  -324.76809060    -0.00000001     0.00000008  0.25D-12  0.27D-12  6  6   905.50
  13      1.48391568    -1.15122975  -324.76809061    -0.00000000     0.00000005  0.14D-13  0.52D-13  6  2   979.12
  14      1.48391562    -1.15122975  -324.76809061    -0.00000000     0.00000002  0.22D-14  0.94D-14  6  1  1052.69
  15      1.48391559    -1.15122975  -324.76809061     0.00000000     0.00000001  0.46D-15  0.13D-14  6  3  1126.29
  16      1.48391558    -1.15122975  -324.76809061    -0.00000000     0.00000000  0.98D-16  0.19D-15  6  4  1199.88
  17      1.48391558    -1.15122975  -324.76809061    -0.00000000     0.00000000  0.19D-16  0.28D-16  6  5  1273.45
  18      1.48391557    -1.15122975  -324.76809061    -0.00000000     0.00000000  0.37D-17  0.36D-17  6  6  1347.07
  19      1.48391557    -1.15122975  -324.76809061    -0.00000000     0.00000000  0.82D-18  0.60D-18  6  2  1420.66
  20      1.48391557    -1.15122975  -324.76809061    -0.00000000     0.00000000  0.18D-18  0.13D-18  6  1  1494.26
  21      1.48391557    -1.15122975  -324.76809061    -0.00000000     0.00000000  0.65D-19  0.40D-19  6  3  1567.86
  22      1.48391557    -1.15122975  -324.76809061     0.00000000     0.00000000  0.29D-19  0.17D-19  6  4  1641.46

 Norm of t1 vector:      0.09773703      S-energy:    -0.00000000      T1 diagnostic:  0.01092733
                                                                       D1 diagnostic:  0.02771966


 Total CPU time for triples:   1507.46 sec


 RESULTS
 =======

  Reference energy                   -323.616860855726
  CCSD singlet pair energy             -0.770021620207
  CCSD triplet pair energy             -0.381208133671
  CCSD correlation energy              -1.151229753878

  Triples (T) contribution             -0.054016523070
  Total correlation energy             -1.205246276949

  CCSD total energy                  -324.768090609604
  CCSD[T] energy                     -324.823439472064
  CCSD-T energy                      -324.821501639512
 !CCSD(T) total energy               -324.822107132674

 Timing summary (sec):

 STEP                 CPU(USER)    SYS     CPU(TOT)    WALL
 Transformation         23.94      1.17     25.11     25.12
 CCSD iterations      1617.55     14.82   1632.37   1632.51
 Triples              1507.46     15.66   1523.12   1523.19

 Program statistics:

 Available memory in ccsd:               999998300
 Min. memory needed in ccsd:              17709720
 Max. memory used in ccsd:                24415330
 Max. memory used in cckext:              20754978 (22 integral passes)



 **********************************************************************************************************************************
 DATASETS  * FILE   NREC   LENGTH (MB)   RECORD NAMES
              1      20     2834.05       500      610      700      900      950      970     1000      129      960     1100   
                                          VAR    BASINP    GEOM    SYMINP    ZMAT    AOBASIS   BASIS     P2S    ABASIS      S 
                                         1400     1410     1200     1210     1080     1600     1650     1300     1700     1380   
                                           T        V       H0       H01     AOSYM     SMH    MOLCAS    ERIS     OPER     JKOP   

              2       3        1.49       700     1000     2100   
                                         GEOM     BASIS     RHF  

 PROGRAMS   *        TOTAL   CCSD(T)       RHF       INT
 CPU TIMES  *      3222.49   3148.96     54.27     19.20
 REAL TIME  *      3266.89 SEC
 DISK USED  *         7.98 GB      
 GA USED    *         0.01 MB       (max)       0.00 MB       (current)
 **********************************************************************************************************************************

        CCSD(T)         RHF-SCF 
   -324.82210713   -323.61686086
 **********************************************************************************************************************************
 Variable memory released
