
 Primary working directories    : /tmp/1047041.88.gen6.q
 Secondary working directories  : /tmp/1047041.88.gen6.q
 Wavefunction directory         : /home/vulcan/mel64643/wfu/
 Main file repository           : /tmp/1047041.88.gen6.q/

 ARCHNAME  : Linux/x86_64
 FC        : /opt/intel/compilers_and_libraries_2016.1.150/linux/bin/intel64/ifort
 FCVERSION : 16.0.1
 BLASLIB   : -mkl
 id        : ccgc

 Nodes     nprocs
 n083         1
 ga_uses_ma=false, calling ma_init with nominal heap.
 GA-space will be limited to   8.0 MW (determined by -G option)

 Using customized tuning parameters: mindgm=10; mindgv=16; mindgc=4; mindgr=1; noblas=0; mincuda=1000; minvec=7
 default implementation of scratch files=df  

 ***,Optimization of ben_hcn
 memory,1000,m
 gthresh,energy=1.0d-12,orbital=1.0d-10,oneint=1.0d-16,twoint=1.0d-16,optgrad=1.0d-6,compress=1.0d-13
 geomtyp=xyz
 
 
 
 bohr
 geometry = {
  C   -1.8846338403    1.3661835053    2.2894422200
  C   -1.8574979231    2.6889421589   -0.0039616028
  C   -1.8749169373    1.3659000953   -2.2936265267
  C   -1.9193713093   -1.2762742534   -2.2925460669
  C   -1.9464098236   -2.5947709655   -0.0063451986
  C   -1.9289300069   -1.2678464999    2.2902975199
  H   -1.8653212526    2.3906237578    4.0626678143
  H   -1.8173875638    4.7365332000   -0.0047217925
  H   -1.8479392975    2.3888871581   -4.0675853104
  H   -1.9264172299   -2.3009159828   -4.0657151232
  H   -1.9742115612   -4.6425161434   -0.0055625502
  H   -1.9435176477   -2.2910745735    4.0642417845
  N    6.6241457389   -0.1990613111    0.0073379313
  C    4.4344422780   -0.0759592876    0.0101989065
  H    2.4147676235    0.0378726899    0.0129785087
 }
 
 basis=aug-cc-pvdz, H=cc-pvdz
 {rhf;maxit,200}
 {ccsd(t)}

 Variables initialized (661), CPU time= 0.00 sec
 Commands  initialized (458), CPU time= 0.00 sec, 486 directives.
 Default parameters read. Elapsed time= 0.04 sec

 Checking input...
 Passed
1


                                         ***  PROGRAM SYSTEM MOLPRO  ***
                         Copyright, University College Cardiff Consultants Limited, 2008

                                    Version 2010.1 linked May 16 2016 07:17:05


 **********************************************************************************************************************************
 LABEL *   Optimization of ben_hcn                                                       
 Linux-4.4.3/n083(x86_64) 64 bit mpp version                                             DATE: 06-Mar-24          TIME: 12:08:22  
 **********************************************************************************************************************************

 SHA1:             9e8077add272b0f3cad6f7df79ec5211205f459d
 **********************************************************************************************************************************

 THRESHOLDS:

 ZERO    =  1.00D-12  ONEINT  =  1.00D-16  TWOINT  =  1.00D-16  PREFAC  =  1.00D-14  LOCALI  =  1.00D-09  EORDER  =  1.00D-04
 ENERGY  =  1.00D-12  ETEST   =  0.00D+00  EDENS   =  0.00D+00  THRDEDEF=  1.00D-06  GRADIENT=  1.00D-02  STEP    =  1.00D-03
 ORBITAL =  1.00D-10  CIVEC   =  1.00D-05  COEFF   =  1.00D-04  PRINTCI =  5.00D-02  PUNCHCI =  9.90D+01  OPTGRAD =  1.00D-06
 OPTENERG=  1.00D-06  OPTSTEP =  3.00D-04  THRGRAD =  1.00D-10  COMPRESS=  1.00D-13  VARMIN  =  1.00D-07  VARMAX  =  1.00D-03
 THRDOUB =  0.00D+00  THRDIV  =  1.00D-05  THRRED  =  1.00D-07  THRPSP  =  1.00D+00  THRDC   =  1.00D-10  THRCS   =  1.00D-10
 THRNRM  =  1.00D-08  THREQ   =  0.00D+00  THRDE   =  1.00D+00  THRREF  =  1.00D-05  SPARFAC =  1.00D+00  THRDLP  =  1.00D-07
 THRDIA  =  1.00D-10  THRDLS  =  1.00D-07  THRGPS  =  0.00D+00  THRKEX  =  0.00D+00  THRDIS  =  2.00D-01  THRVAR  =  1.00D-10
 THRLOC  =  1.00D-06  THRGAP  =  1.00D-06  THRLOCT = -1.00D+00  THRGAPT = -1.00D+00  THRORB  =  1.00D-06  THRMLTP =  0.00D+00
 THRCPQCI=  1.00D-10  KEXTA   =  0.00D+00  THRCOARS=  0.00D+00  SYMTOL  =  1.00D-06  GRADTOL =  1.00D-06  THROVL  =  1.00D-08
 THRORTH =  1.00D-08  GRID    =  1.00D-06  GRIDMAX =  1.00D-03  DTMAX   =  0.00D+00

 SETTING GEOMTYP        =    XYZ
 ZUNIT=BOHR
 

 Variable memory set to 1000000000 words,  buffer space   230000 words

 SETTING BASIS          =    AUG-CC-PVDZ,H=CC-PVDZ


 Recomputing integrals since basis changed


 Using spherical harmonics

 Library entry C      S aug-cc-pVDZ          selected for orbital group  1
 Library entry C      P aug-cc-pVDZ          selected for orbital group  1
 Library entry C      D aug-cc-pVDZ          selected for orbital group  1
 Library entry H      S cc-pVDZ              selected for orbital group  2
 Library entry H      P cc-pVDZ              selected for orbital group  2
 Library entry N      S aug-cc-pVDZ          selected for orbital group  3
 Library entry N      P aug-cc-pVDZ          selected for orbital group  3
 Library entry N      D aug-cc-pVDZ          selected for orbital group  3

1PROGRAM * SEWARD (Integral evaluation for generally contracted gaussian basis sets)     Author: Roland Lindh, 1990

 Geometry written to block  1 of record 700


 Point group  C1  



 ATOMIC COORDINATES

 NR  ATOM    CHARGE       X              Y              Z

   1  C       6.00   -1.884633840    1.366183505    2.289442220
   2  C       6.00   -1.857497923    2.688942159   -0.003961603
   3  C       6.00   -1.874916937    1.365900095   -2.293626527
   4  C       6.00   -1.919371309   -1.276274253   -2.292546067
   5  C       6.00   -1.946409824   -2.594770965   -0.006345199
   6  C       6.00   -1.928930007   -1.267846500    2.290297520
   7  H       1.00   -1.865321253    2.390623758    4.062667814
   8  H       1.00   -1.817387564    4.736533200   -0.004721792
   9  H       1.00   -1.847939297    2.388887158   -4.067585310
  10  H       1.00   -1.926417230   -2.300915983   -4.065715123
  11  H       1.00   -1.974211561   -4.642516143   -0.005562550
  12  H       1.00   -1.943517648   -2.291074573    4.064241785
  13  N       7.00    6.624145739   -0.199061311    0.007337931
  14  C       6.00    4.434442278   -0.075959288    0.010198907
  15  H       1.00    2.414767623    0.037872690    0.012978509

 Bond lengths in Bohr (Angstrom)

 1-2  2.647664614  1-6  2.634402579  1-7  2.047969681  2-3  2.644486564  2-8  2.047984006
     ( 1.401083771)     ( 1.394065804)     ( 1.083738880)     ( 1.399402019)     ( 1.083746461)

  3- 4  2.642548514   3- 9  2.047964865   4- 5  2.639295185   4-10  2.047942582   5- 6  2.652470897
       ( 1.398376447)       ( 1.083736332)       ( 1.396654859)       ( 1.083724540)       ( 1.403627146)

  5-11  2.047934047   6-12  2.047946958  13-14  2.193162908  14-15  2.022881894
       ( 1.083720023)       ( 1.083726856)       ( 1.160571826)       ( 1.070462995)

 Bond angles

  1- 2- 3  119.99746316   1- 2- 8  120.00138155   1- 6- 5  120.00123787   1- 6-12  119.99777437

  2-1-6  119.99850423   2-1-7  119.99930032   2-3-4  119.99920705   2-3-9  119.99924970

  3- 2- 8  120.00090502   3- 4- 5  120.00130467   3- 4-10  119.99737977   4- 3- 9  120.00125778

  4- 5- 6  120.00228299   4- 5-11  119.99920511   5- 4-10  120.00098993   5- 6-12  120.00066952

  6- 1- 7  120.00192394   6- 5-11  119.99816034  13-14-15  179.99091354

 NUCLEAR CHARGE:                   56
 NUMBER OF PRIMITIVE AOS:         345
 NUMBER OF SYMMETRY AOS:          329
 NUMBER OF CONTRACTIONS:          219   ( 219A   )
 NUMBER OF CORE ORBITALS:           8   (   8A   )
 NUMBER OF VALENCE ORBITALS:       39   (  39A   )


 NUCLEAR REPULSION ENERGY  303.39373109


 Eigenvalues of metric

         1 0.864E-05 0.186E-04 0.229E-04 0.534E-04 0.627E-04 0.634E-04 0.927E-04 0.932E-04


 Contracted 2-electron integrals neglected if value below      1.0D-16
 AO integral compression algorithm  1   Integral accuracy      1.0D-16

     2340.684 MB (compressed) written to integral file ( 91.2%)

     Node minimum: 2340.684 MB, node maximum: 2340.684 MB


 NUMBER OF SORTED TWO-ELECTRON INTEGRALS:  290176095.     BUFFER LENGTH:  32768
 NUMBER OF SEGMENTS:  19  SEGMENT LENGTH:   15999762      RECORD LENGTH: 524288

 Memory used in sort:      16.56 MW

 SORT1 READ   320642736. AND WROTE   287602919. INTEGRALS IN    832 RECORDS. CPU TIME:     2.88 SEC, REAL TIME:     4.51 SEC
 SORT2 READ   287602919. AND WROTE   290176095. INTEGRALS IN   8929 RECORDS. CPU TIME:     1.75 SEC, REAL TIME:     2.83 SEC

 FILE SIZES:   FILE 1:  2151.5 MBYTE,  FILE 4:  3489.7 MBYTE,   TOTAL:   5641.2 MBYTE

 OPERATOR DM      FOR CENTER  0  COORDINATES:    0.000000    0.000000    0.000000


 **********************************************************************************************************************************
 DATASETS  * FILE   NREC   LENGTH (MB)   RECORD NAMES
              1      19     2152.08       500      610      700      900      950      970     1000      129      960     1100   
                                          VAR    BASINP    GEOM    SYMINP    ZMAT    AOBASIS   BASIS     P2S    ABASIS      S 
                                         1400     1410     1200     1210     1080     1600     1650     1300     1700   
                                           T        V       H0       H01     AOSYM     SMH    MOLCAS    ERIS     OPER   

 PROGRAMS   *        TOTAL       INT
 CPU TIMES  *        15.27     15.24
 REAL TIME  *        19.58 SEC
 DISK USED  *         7.98 GB      
 GA USED    *         0.01 MB       (max)       0.00 MB       (current)
 **********************************************************************************************************************************

1PROGRAM * RHF-SCF (CLOSED SHELL)       Authors: W. Meyer, H.-J. Werner


 NUMBER OF ELECTRONS:      28+   28-    SPACE SYMMETRY=1    SPIN SYMMETRY: Singlet 
 CONVERGENCE THRESHOLDS:    1.00E-10 (Density)    1.00E-13 (Energy)
 MAX. NUMBER OF ITERATIONS:      200
 INTERPOLATION TYPE:            DIIS
 INTERPOLATION STEPS:              2 (START)      1 (STEP)
 LEVEL SHIFTS:                  0.00 (CLOSED)  0.00 (OPEN) 



 Orbital guess generated from atomic densities. Full valence occupancy:   47

 Molecular orbital dump at record        2100.2

 ITERATION    DDIFF          GRAD             ENERGY        2-EL.EN.            DIPOLE MOMENTS         DIIS
    1      0.000D+00      0.000D+00      -323.54134670    822.124535   -1.89880    0.10258    0.00210    0
    2      0.000D+00      0.292D-02      -323.59778832    819.103796   -1.36876    0.04983   -0.00065    1
    3      0.781D-02      0.179D-02      -323.61438476    820.249089   -1.72960    0.07897    0.00062    2
    4      0.260D-02      0.576D-03      -323.61672128    820.450784   -1.63886    0.07175    0.00030    3
    5      0.963D-03      0.133D-03      -323.61685069    820.190799   -1.66280    0.07246    0.00028    4
    6      0.223D-03      0.229D-04      -323.61685685    820.217663   -1.66415    0.07242    0.00027    5
    7      0.845D-04      0.437D-05      -323.61685705    820.212777   -1.66450    0.07234    0.00026    6
    8      0.108D-04      0.126D-05      -323.61685707    820.213776   -1.66482    0.07240    0.00027    7
    9      0.354D-05      0.312D-06      -323.61685707    820.213806   -1.66478    0.07235    0.00026    6
   10      0.967D-06      0.114D-06      -323.61685707    820.213782   -1.66479    0.07239    0.00027    6
   11      0.314D-06      0.694D-07      -323.61685707    820.213805   -1.66478    0.07237    0.00026    7
   12      0.213D-06      0.315D-07      -323.61685707    820.213795   -1.66478    0.07238    0.00026    7
   13      0.123D-06      0.992D-08      -323.61685707    820.213800   -1.66478    0.07238    0.00026    8
   14      0.463D-07      0.311D-08      -323.61685707    820.213796   -1.66478    0.07238    0.00026    8
   15      0.117D-07      0.115D-08      -323.61685707    820.213797   -1.66478    0.07238    0.00026    9
   16      0.271D-08      0.162D-09      -323.61685707    820.213797   -1.66478    0.07238    0.00026    9
   17      0.693D-09      0.688D-10      -323.61685707    820.213797   -1.66478    0.07238    0.00026    8
   18      0.294D-09      0.306D-10      -323.61685707    820.213797   -1.66478    0.07238    0.00026    8
   19      0.145D-09      0.154D-10      -323.61685707    820.213797   -1.66478    0.07238    0.00026    8
   20      0.222D-09      0.693D-11      -323.61685707    820.213797   -1.66478    0.07238    0.00026    8
   21      0.197D-09      0.334D-11      -323.61685707    820.213797   -1.66478    0.07238    0.00026    9
   22      0.131D-09      0.932D-12      -323.61685707    820.213797   -1.66478    0.07238    0.00026    9
   23      0.108D-09      0.687D-12      -323.61685707    820.213797   -1.66478    0.07238    0.00026    9
   24      0.940D-10      0.584D-12      -323.61685707    820.213797   -1.66478    0.07238    0.00026    9
   25      0.491D-10      0.550D-12      -323.61685707    820.213797   -1.66478    0.07238    0.00026    9
   26      0.471D-10      0.482D-12      -323.61685707    820.213797   -1.66478    0.07238    0.00026    0

 Final occupancy:  28

 !RHF STATE 1.1 Energy               -323.616857074908
 Nuclear energy                       303.39373109
 One-electron energy                -1037.11748685
 Two-electron energy                  410.10689868
 Virial quotient                       -1.00170915
 !RHF STATE 1.1 Dipole moment          -1.66478072     0.07237524     0.00026486
 Dipole moment /Debye                  -4.23117339     0.18394746     0.00067315

 Orbital energies:

         1.1          2.1          3.1          4.1          5.1          6.1          7.1          8.1          9.1         10.1
    -15.591649   -11.283865   -11.266281   -11.265843   -11.265566   -11.264663   -11.264333   -11.263892    -1.218336    -1.173921

        11.1         12.1         13.1         14.1         15.1         16.1         17.1         18.1         19.1         20.1
     -1.038666    -1.036920    -0.846343    -0.845081    -0.789910    -0.729360    -0.664874    -0.639190    -0.609234    -0.607892

        21.1         22.1         23.1         24.1         25.1         26.1         27.1         28.1         29.1         30.1
     -0.565229    -0.520377    -0.515385    -0.514308    -0.475692    -0.475686    -0.360454    -0.358894     0.055869     0.060065


 **********************************************************************************************************************************
 DATASETS  * FILE   NREC   LENGTH (MB)   RECORD NAMES
              1      19     2152.08       500      610      700      900      950      970     1000      129      960     1100   
                                          VAR    BASINP    GEOM    SYMINP    ZMAT    AOBASIS   BASIS     P2S    ABASIS      S 
                                         1400     1410     1200     1210     1080     1600     1650     1300     1700   
                                           T        V       H0       H01     AOSYM     SMH    MOLCAS    ERIS     OPER   

              2       3        1.49       700     1000     2100   
                                         GEOM     BASIS     RHF  

 PROGRAMS   *        TOTAL       RHF       INT
 CPU TIMES  *        61.15     45.88     15.24
 REAL TIME  *        70.69 SEC
 DISK USED  *         7.98 GB      
 GA USED    *         0.01 MB       (max)       0.00 MB       (current)
 **********************************************************************************************************************************


1PROGRAM * CCSD (Closed-shell coupled cluster)     Authors: C. Hampel, H.-J. Werner, 1991, M. Deegan, P.J. Knowles, 1992


 Convergence thresholds:  THRVAR = 1.00D-08  THRDEN = 1.00D-12

 CCSD(T)     terms to be evaluated (factor= 1.000)


 Number of core orbitals:           8 (   8 )
 Number of closed-shell orbitals:  20 (  20 )
 Number of external orbitals:     191 ( 191 )

 Molecular orbitals read from record     2100.2  Type=RHF/CANONICAL (state 1.1)

 Number of N-1 electron functions:              20
 Number of N-2 electron functions:             210
 Number of singly external CSFs:              3820
 Number of doubly external CSFs:           7298110
 Total number of CSFs:                     7301931

 Length of J-op  integral file:               0.00 MB
 Length of K-op  integral file:               3.32 MB
 Length of 3-ext integral record:             0.00 MB

 Memory could be reduced to 174.82 Mwords without degradation in triples

 Integral transformation finished. Total CPU:  13.94 sec, npass=  1  Memory used: 128.13 MW

 Reference energy:                   -323.61685707

 MP2 singlet pair energy:              -0.67334262
 MP2 triplet pair energy:              -0.43519250
 MP2 correlation energy:               -1.10853512
 MP2 total energy:                   -324.72539219

 SCS-MP2 correlation energy:           -1.07879758   (PS=  1.200000  PT=  0.333333)
 SCS-MP2 total energy:               -324.69565466

 ITER.      SQ.NORM     CORR.ENERGY   TOTAL ENERGY   ENERGY CHANGE        DEN1      VAR(S)    VAR(P)  DIIS     TIME
   1      1.42873252    -1.14462066  -324.76147774    -0.03608555    -0.00289345  0.51D-02  0.99D-02  1  1    59.18
   2      1.46305490    -1.15049411  -324.76735118    -0.00587344    -0.03103122  0.83D-04  0.13D-02  2  2   104.64
   3      1.47634674    -1.15094181  -324.76779889    -0.00044770    -0.00655946  0.40D-04  0.12D-03  3  3   150.13
   4      1.48203886    -1.15119148  -324.76804855    -0.00024967    -0.00178584  0.22D-05  0.15D-04  4  4   195.70
   5      1.48356833    -1.15122718  -324.76808425    -0.00003570    -0.00036588  0.25D-06  0.14D-05  5  5   241.31
   6      1.48387457    -1.15121866  -324.76807574     0.00000851    -0.00005025  0.24D-07  0.91D-07  6  6   286.93
   7      1.48390939    -1.15122207  -324.76807915    -0.00000341    -0.00000225  0.35D-08  0.80D-08  6  2   332.53
   8      1.48391408    -1.15122243  -324.76807950    -0.00000036    -0.00000041  0.46D-09  0.84D-09  6  1   378.17
   9      1.48391432    -1.15122260  -324.76807967    -0.00000017     0.00000078  0.86D-10  0.83D-10  6  3   423.80
  10      1.48391473    -1.15122265  -324.76807973    -0.00000006     0.00000001  0.21D-10  0.12D-10  6  4   469.43
  11      1.48391447    -1.15122269  -324.76807977    -0.00000004     0.00000022  0.63D-11  0.24D-11  6  5   515.03
  12      1.48391430    -1.15122270  -324.76807978    -0.00000001     0.00000009  0.19D-11  0.67D-12  6  6   560.65
  13      1.48391414    -1.15122271  -324.76807978    -0.00000001     0.00000006  0.43D-12  0.16D-12  6  2   606.22
  14      1.48391406    -1.15122271  -324.76807978     0.00000000     0.00000002  0.86D-13  0.39D-13  6  1   651.83
  15      1.48391404    -1.15122271  -324.76807978     0.00000000     0.00000000  0.12D-13  0.66D-14  6  3   697.46
  16      1.48391404    -1.15122271  -324.76807978     0.00000000    -0.00000000  0.15D-14  0.11D-14  6  4   743.08
  17      1.48391404    -1.15122271  -324.76807978     0.00000000    -0.00000000  0.13D-15  0.19D-15  6  6   788.67
  18      1.48391404    -1.15122271  -324.76807978    -0.00000000    -0.00000000  0.14D-16  0.18D-16  6  5   834.27
  19      1.48391404    -1.15122271  -324.76807978     0.00000000    -0.00000000  0.30D-17  0.34D-17  6  2   879.90
  20      1.48391404    -1.15122271  -324.76807978     0.00000000    -0.00000000  0.72D-18  0.73D-18  6  1   925.51
  21      1.48391404    -1.15122271  -324.76807978     0.00000000    -0.00000000  0.22D-18  0.15D-18  6  3   971.11
  22      1.48391404    -1.15122271  -324.76807978     0.00000000    -0.00000000  0.94D-19  0.55D-19  6  4  1016.71
  23      1.48391404    -1.15122271  -324.76807978     0.00000000    -0.00000000  0.52D-19  0.26D-19  6  6  1062.33
  24      1.48391404    -1.15122271  -324.76807978     0.00000000    -0.00000000  0.36D-19  0.15D-19  6  5  1107.94

 Norm of t1 vector:      0.09774147      S-energy:    -0.00000000      T1 diagnostic:  0.01092783
                                                                       D1 diagnostic:  0.02772890

 Doubles amplitudes (print threshold =  0.500E-01):

         I         J         SYM. A    SYM. B    A         B      T(IJ, AB)

        19        19         1         1         8         8     -0.06148668
        20        20         1         1         7         7     -0.06274214


 Total CPU time for triples:    959.27 sec


 RESULTS
 =======

  Reference energy                   -323.616857074910
  CCSD singlet pair energy             -0.770021098566
  CCSD triplet pair energy             -0.381201609126
  CCSD correlation energy              -1.151222707693

  Triples (T) contribution             -0.054014589382
  Total correlation energy             -1.205237297075

  CCSD total energy                  -324.768079782603
  CCSD[T] energy                     -324.823426738226
  CCSD-T energy                      -324.821488866520
 !CCSD(T) total energy               -324.822094371985

 Timing summary (sec):

 STEP                 CPU(USER)    SYS     CPU(TOT)    WALL
 Transformation         14.39      0.99     15.38     15.39
 CCSD iterations      1093.56     15.37   1108.93   1109.12
 Triples               959.27     13.02    972.29    972.41

 Program statistics:

 Available memory in ccsd:               999998300
 Min. memory needed in ccsd:              17709720
 Max. memory used in ccsd:                24415330
 Max. memory used in cckext:              20754978 (24 integral passes)



 **********************************************************************************************************************************
 DATASETS  * FILE   NREC   LENGTH (MB)   RECORD NAMES
              1      20     2834.25       500      610      700      900      950      970     1000      129      960     1100   
                                          VAR    BASINP    GEOM    SYMINP    ZMAT    AOBASIS   BASIS     P2S    ABASIS      S 
                                         1400     1410     1200     1210     1080     1600     1650     1300     1700     1380   
                                           T        V       H0       H01     AOSYM     SMH    MOLCAS    ERIS     OPER     JKOP   

              2       3        1.49       700     1000     2100   
                                         GEOM     BASIS     RHF  

 PROGRAMS   *        TOTAL   CCSD(T)       RHF       INT
 CPU TIMES  *      2128.39   2067.24     45.88     15.24
 REAL TIME  *      2167.74 SEC
 DISK USED  *         7.98 GB      
 GA USED    *         0.01 MB       (max)       0.00 MB       (current)
 **********************************************************************************************************************************

        CCSD(T)         RHF-SCF 
   -324.82209437   -323.61685707
 **********************************************************************************************************************************
 Variable memory released
