
 Primary working directories    : /tmp/942027.64.gen4.q
 Secondary working directories  : /tmp/942027.64.gen4.q
 Wavefunction directory         : /home/vulcan/mel64643/wfu/
 Main file repository           : /tmp/942027.64.gen4.q/

 ARCHNAME  : Linux/x86_64
 FC        : /opt/intel/compilers_and_libraries_2016.1.150/linux/bin/intel64/ifort
 FCVERSION : 16.0.1
 BLASLIB   : -mkl
 id        : ccgc

 Nodes     nprocs
 n029         1
 ga_uses_ma=false, calling ma_init with nominal heap.
 GA-space will be limited to   8.0 MW (determined by -G option)

 Using customized tuning parameters: mindgm=10; mindgv=16; mindgc=4; mindgr=1; noblas=0; mincuda=1000; minvec=7
 default implementation of scratch files=df  

 ***,Optimization of h2o_2
 memory,1000,m
 gthresh,energy=1.0d-12,orbital=1.0d-10,oneint=1.0d-16,twoint=1.0d-16,optgrad=1.0d-6,compress=1.0d-13
 geomtyp=xyz
 
 bohr
 geometry = {
  O   -2.8124241600   -0.2069270255    0.0051125690
  H   -3.5627937664    1.4463245348   -0.0079058594
  H   -1.0108074156    0.1068553888    0.0042888878
  O    2.6786062208    0.1996092515    0.0013034647
  H    3.3349489910   -0.6995425286   -1.4458161917
  H    3.3374581382   -0.7063658670    1.4430171296
 }
 
 basis=aug-cc-pvdz, H=cc-pvdz
 {rhf;maxit,200}
 {ccsd(t);maxit,200}

 Variables initialized (661), CPU time= 0.00 sec
 Commands  initialized (458), CPU time= 0.01 sec, 486 directives.
 Default parameters read. Elapsed time= 0.06 sec

 Checking input...
 Passed
1


                                         ***  PROGRAM SYSTEM MOLPRO  ***
                         Copyright, University College Cardiff Consultants Limited, 2008

                                    Version 2010.1 linked May 16 2016 07:17:05


 **********************************************************************************************************************************
 LABEL *   Optimization of h2o_2                                                         
 Linux-4.4.3/n029(x86_64) 64 bit mpp version                                             DATE: 21-Oct-23          TIME: 20:27:49  
 **********************************************************************************************************************************

 SHA1:             9e8077add272b0f3cad6f7df79ec5211205f459d
 **********************************************************************************************************************************

 THRESHOLDS:

 ZERO    =  1.00D-12  ONEINT  =  1.00D-16  TWOINT  =  1.00D-16  PREFAC  =  1.00D-14  LOCALI  =  1.00D-09  EORDER  =  1.00D-04
 ENERGY  =  1.00D-12  ETEST   =  0.00D+00  EDENS   =  0.00D+00  THRDEDEF=  1.00D-06  GRADIENT=  1.00D-02  STEP    =  1.00D-03
 ORBITAL =  1.00D-10  CIVEC   =  1.00D-05  COEFF   =  1.00D-04  PRINTCI =  5.00D-02  PUNCHCI =  9.90D+01  OPTGRAD =  1.00D-06
 OPTENERG=  1.00D-06  OPTSTEP =  3.00D-04  THRGRAD =  1.00D-10  COMPRESS=  1.00D-13  VARMIN  =  1.00D-07  VARMAX  =  1.00D-03
 THRDOUB =  0.00D+00  THRDIV  =  1.00D-05  THRRED  =  1.00D-07  THRPSP  =  1.00D+00  THRDC   =  1.00D-10  THRCS   =  1.00D-10
 THRNRM  =  1.00D-08  THREQ   =  0.00D+00  THRDE   =  1.00D+00  THRREF  =  1.00D-05  SPARFAC =  1.00D+00  THRDLP  =  1.00D-07
 THRDIA  =  1.00D-10  THRDLS  =  1.00D-07  THRGPS  =  0.00D+00  THRKEX  =  0.00D+00  THRDIS  =  2.00D-01  THRVAR  =  1.00D-10
 THRLOC  =  1.00D-06  THRGAP  =  1.00D-06  THRLOCT = -1.00D+00  THRGAPT = -1.00D+00  THRORB  =  1.00D-06  THRMLTP =  0.00D+00
 THRCPQCI=  1.00D-10  KEXTA   =  0.00D+00  THRCOARS=  0.00D+00  SYMTOL  =  1.00D-06  GRADTOL =  1.00D-06  THROVL  =  1.00D-08
 THRORTH =  1.00D-08  GRID    =  1.00D-06  GRIDMAX =  1.00D-03  DTMAX   =  0.00D+00

 SETTING GEOMTYP        =    XYZ
 ZUNIT=BOHR
 

 Variable memory set to 1000000000 words,  buffer space   230000 words

 SETTING BASIS          =    AUG-CC-PVDZ,H=CC-PVDZ


 Recomputing integrals since basis changed


 Using spherical harmonics

 Library entry O      S aug-cc-pVDZ          selected for orbital group  1
 Library entry O      P aug-cc-pVDZ          selected for orbital group  1
 Library entry O      D aug-cc-pVDZ          selected for orbital group  1
 Library entry H      S cc-pVDZ              selected for orbital group  2
 Library entry H      P cc-pVDZ              selected for orbital group  2

1PROGRAM * SEWARD (Integral evaluation for generally contracted gaussian basis sets)     Author: Roland Lindh, 1990

 Geometry written to block  1 of record 700


 Point group  C1  



 ATOMIC COORDINATES

 NR  ATOM    CHARGE       X              Y              Z

   1  O       8.00   -2.812424160   -0.206927026    0.005112569
   2  H       1.00   -3.562793766    1.446324535   -0.007905859
   3  H       1.00   -1.010807416    0.106855389    0.004288888
   4  O       8.00    2.678606221    0.199609252    0.001303465
   5  H       1.00    3.334948991   -0.699542529   -1.445816192
   6  H       1.00    3.337458138   -0.706365867    1.443017130

 Bond lengths in Bohr (Angstrom)

 1-2  1.815616905  1-3  1.828738083  4-5  1.825764239  4-6  1.825764239
     ( 0.960783087)     ( 0.967726515)     ( 0.966152824)     ( 0.966152824)

 Bond angles

  2-1-3  104.53160049   5-4-6  104.58292364

 NUCLEAR CHARGE:                   20
 NUMBER OF PRIMITIVE AOS:         102
 NUMBER OF SYMMETRY AOS:           98
 NUMBER OF CONTRACTIONS:           66   (  66A   )
 NUMBER OF CORE ORBITALS:           2   (   2A   )
 NUMBER OF VALENCE ORBITALS:       12   (  12A   )


 NUCLEAR REPULSION ENERGY   36.51238010


 Eigenvalues of metric

         1 0.610E-02 0.785E-02 0.121E-01 0.130E-01 0.166E-01 0.166E-01 0.209E-01 0.286E-01


 Contracted 2-electron integrals neglected if value below      1.0D-16
 AO integral compression algorithm  1   Integral accuracy      1.0D-16

     22.282 MB (compressed) written to integral file ( 88.2%)

     Node minimum: 22.282 MB, node maximum: 22.282 MB


 NUMBER OF SORTED TWO-ELECTRON INTEGRALS:    2445366.     BUFFER LENGTH:  32768
 NUMBER OF SEGMENTS:   1  SEGMENT LENGTH:    2445366      RECORD LENGTH: 524288

 Memory used in sort:       3.00 MW

 SORT1 READ     3139200. AND WROTE     2377524. INTEGRALS IN      7 RECORDS. CPU TIME:     0.02 SEC, REAL TIME:     0.04 SEC
 SORT2 READ     2377524. AND WROTE     2445366. INTEGRALS IN     85 RECORDS. CPU TIME:     0.05 SEC, REAL TIME:     0.06 SEC

 FILE SIZES:   FILE 1:    20.3 MBYTE,  FILE 4:    29.4 MBYTE,   TOTAL:     49.7 MBYTE

 OPERATOR DM      FOR CENTER  0  COORDINATES:    0.000000    0.000000    0.000000


 **********************************************************************************************************************************
 DATASETS  * FILE   NREC   LENGTH (MB)   RECORD NAMES
              1      19       20.38       500      610      700      900      950      970     1000      129      960     1100   
                                          VAR    BASINP    GEOM    SYMINP    ZMAT    AOBASIS   BASIS     P2S    ABASIS      S 
                                         1400     1410     1200     1210     1080     1600     1650     1300     1700   
                                           T        V       H0       H01     AOSYM     SMH    MOLCAS    ERIS     OPER   

 PROGRAMS   *        TOTAL       INT
 CPU TIMES  *         0.46      0.40
 REAL TIME  *         1.08 SEC
 DISK USED  *        72.63 MB      
 GA USED    *         0.00 MB       (max)       0.00 MB       (current)
 **********************************************************************************************************************************

1PROGRAM * RHF-SCF (CLOSED SHELL)       Authors: W. Meyer, H.-J. Werner


 NUMBER OF ELECTRONS:      10+   10-    SPACE SYMMETRY=1    SPIN SYMMETRY: Singlet 
 CONVERGENCE THRESHOLDS:    1.00E-10 (Density)    1.00E-13 (Energy)
 MAX. NUMBER OF ITERATIONS:      200
 INTERPOLATION TYPE:            DIIS
 INTERPOLATION STEPS:              2 (START)      1 (STEP)
 LEVEL SHIFTS:                  0.00 (CLOSED)  0.00 (OPEN) 



 Orbital guess generated from atomic densities. Full valence occupancy:   14

 Molecular orbital dump at record        2100.2

 ITERATION    DDIFF          GRAD             ENERGY        2-EL.EN.            DIPOLE MOMENTS         DIIS
    1      0.000D+00      0.000D+00      -152.02022834    191.227478    1.37538    0.09081   -0.01002    0
    2      0.000D+00      0.118D-01      -152.06973398    184.744279    1.02756    0.03168   -0.00611    1
    3      0.225D-01      0.668D-02      -152.08663306    187.530938    1.08715    0.05664   -0.00706    2
    4      0.768D-02      0.748D-03      -152.08702623    187.308433    1.07322    0.05489   -0.00702    3
    5      0.126D-02      0.180D-03      -152.08705623    187.329900    1.06918    0.05588   -0.00701    4
    6      0.359D-03      0.364D-04      -152.08705775    187.332305    1.06833    0.05539   -0.00701    5
    7      0.880D-04      0.151D-04      -152.08705789    187.331456    1.06813    0.05570   -0.00701    6
    8      0.216D-04      0.369D-05      -152.08705791    187.331441    1.06801    0.05565   -0.00700    7
    9      0.942D-05      0.527D-06      -152.08705791    187.331446    1.06799    0.05566   -0.00700    6
   10      0.125D-05      0.101D-06      -152.08705791    187.331444    1.06799    0.05566   -0.00700    6
   11      0.239D-06      0.264D-07      -152.08705791    187.331447    1.06799    0.05566   -0.00700    6
   12      0.553D-07      0.757D-08      -152.08705791    187.331446    1.06799    0.05566   -0.00700    6
   13      0.191D-07      0.231D-08      -152.08705791    187.331447    1.06799    0.05566   -0.00700    6
   14      0.434D-08      0.803D-09      -152.08705791    187.331446    1.06799    0.05566   -0.00700    7
   15      0.149D-08      0.216D-09      -152.08705791    187.331446    1.06799    0.05566   -0.00700    7
   16      0.410D-09      0.110D-09      -152.08705791    187.331446    1.06799    0.05566   -0.00700    7
   17      0.165D-09      0.286D-10      -152.08705791    187.331446    1.06799    0.05566   -0.00700    8
   18      0.777D-10      0.316D-11      -152.08705791    187.331446    1.06799    0.05566   -0.00700    8
   19      0.584D-11      0.124D-11      -152.08705791    187.331446    1.06799    0.05566   -0.00700    7
   20      0.294D-11      0.188D-12      -152.08705791    187.331446    1.06799    0.05566   -0.00700    0

 Final occupancy:  10

 !RHF STATE 1.1 Energy               -152.087057912407
 Nuclear energy                        36.51238010
 One-electron energy                 -282.26516122
 Two-electron energy                   93.66572321
 Virial quotient                       -1.00176356
 !RHF STATE 1.1 Dipole moment           1.06798828     0.05565701    -0.00700450
 Dipole moment /Debye                   2.71437765     0.14145673    -0.01780250

 Orbital energies:

         1.1          2.1          3.1          4.1          5.1          6.1          7.1          8.1          9.1         10.1
    -20.603262   -20.545972    -1.379289    -1.323363    -0.739562    -0.693806    -0.613487    -0.558809    -0.529523    -0.479785

        11.1         12.1
      0.112573     0.152891


 **********************************************************************************************************************************
 DATASETS  * FILE   NREC   LENGTH (MB)   RECORD NAMES
              1      19       20.38       500      610      700      900      950      970     1000      129      960     1100   
                                          VAR    BASINP    GEOM    SYMINP    ZMAT    AOBASIS   BASIS     P2S    ABASIS      S 
                                         1400     1410     1200     1210     1080     1600     1650     1300     1700   
                                           T        V       H0       H01     AOSYM     SMH    MOLCAS    ERIS     OPER   

              2       3        0.44       700     1000     2100   
                                         GEOM     BASIS     RHF  

 PROGRAMS   *        TOTAL       RHF       INT
 CPU TIMES  *         0.87      0.41      0.40
 REAL TIME  *         1.56 SEC
 DISK USED  *        72.63 MB      
 GA USED    *         0.00 MB       (max)       0.00 MB       (current)
 **********************************************************************************************************************************


1PROGRAM * CCSD (Closed-shell coupled cluster)     Authors: C. Hampel, H.-J. Werner, 1991, M. Deegan, P.J. Knowles, 1992


 Convergence thresholds:  THRVAR = 1.00D-08  THRDEN = 1.00D-12

 CCSD(T)     terms to be evaluated (factor= 1.000)


 Number of core orbitals:           2 (   2 )
 Number of closed-shell orbitals:   8 (   8 )
 Number of external orbitals:      56 (  56 )

 Molecular orbitals read from record     2100.2  Type=RHF/CANONICAL (state 1.1)

 Number of N-1 electron functions:               8
 Number of N-2 electron functions:              36
 Number of singly external CSFs:               448
 Number of doubly external CSFs:            100576
 Total number of CSFs:                      101025

 Length of J-op  integral file:               0.00 MB
 Length of K-op  integral file:               0.33 MB
 Length of 3-ext integral record:             0.00 MB

 Memory could be reduced to 2.44 Mwords without degradation in triples

 Integral transformation finished. Total CPU:   0.09 sec, npass=  1  Memory used:   1.72 MW

 Reference energy:                   -152.08705791

 MP2 singlet pair energy:              -0.27040282
 MP2 triplet pair energy:              -0.16873048
 MP2 correlation energy:               -0.43913330
 MP2 total energy:                   -152.52619122

 SCS-MP2 correlation energy:           -0.42947124   (PS=  1.200000  PT=  0.333333)
 SCS-MP2 total energy:               -152.51652916

 ITER.      SQ.NORM     CORR.ENERGY   TOTAL ENERGY   ENERGY CHANGE        DEN1      VAR(S)    VAR(P)  DIIS     TIME
   1      1.12089538    -0.45277644  -152.53983435    -0.01364314    -0.00437880  0.23D-02  0.17D-02  1  1     0.25
   2      1.12901668    -0.45411882  -152.54117673    -0.00134238    -0.00871841  0.16D-04  0.26D-03  2  2     0.42
   3      1.13184235    -0.45437454  -152.54143245    -0.00025572    -0.00160085  0.34D-04  0.92D-05  3  3     0.59
   4      1.13273192    -0.45431542  -152.54137333     0.00005912    -0.00038689  0.14D-05  0.88D-06  4  4     0.77
   5      1.13296734    -0.45430369  -152.54136160     0.00001173    -0.00007274  0.19D-06  0.54D-07  5  5     0.94
   6      1.13301477    -0.45430005  -152.54135796     0.00000364    -0.00000664  0.19D-07  0.51D-08  6  6     1.11
   7      1.13302631    -0.45429865  -152.54135656     0.00000140    -0.00000109  0.13D-08  0.91D-09  6  2     1.28
   8      1.13302890    -0.45429863  -152.54135655     0.00000002    -0.00000005  0.15D-09  0.76D-10  6  1     1.46
   9      1.13302944    -0.45429858  -152.54135649     0.00000005     0.00000018  0.12D-10  0.91D-11  6  4     1.63
  10      1.13302972    -0.45429856  -152.54135647     0.00000002    -0.00000004  0.20D-11  0.71D-12  6  3     1.80
  11      1.13302969    -0.45429857  -152.54135648    -0.00000001     0.00000004  0.34D-12  0.10D-12  6  5     1.97
  12      1.13302966    -0.45429857  -152.54135648    -0.00000000     0.00000001  0.64D-13  0.15D-13  6  6     2.14
  13      1.13302964    -0.45429857  -152.54135649    -0.00000000     0.00000001  0.82D-14  0.27D-14  6  1     2.31
  14      1.13302963    -0.45429857  -152.54135649    -0.00000000     0.00000000  0.14D-14  0.36D-15  6  2     2.48
  15      1.13302963    -0.45429858  -152.54135649    -0.00000000     0.00000000  0.26D-15  0.59D-16  6  4     2.65
  16      1.13302963    -0.45429858  -152.54135649    -0.00000000    -0.00000000  0.35D-16  0.12D-16  6  3     2.82
  17      1.13302963    -0.45429858  -152.54135649     0.00000000    -0.00000000  0.30D-17  0.18D-17  6  6     3.00
  18      1.13302963    -0.45429858  -152.54135649    -0.00000000     0.00000000  0.30D-18  0.14D-18  6  5     3.17
  19      1.13302963    -0.45429858  -152.54135649     0.00000000    -0.00000000  0.71D-19  0.23D-19  6  2     3.34
  20      1.13302963    -0.45429858  -152.54135649     0.00000000    -0.00000000  0.12D-19  0.38D-20  6  1     3.51

 Norm of t1 vector:      0.06805099      S-energy:    -0.00000000      T1 diagnostic:  0.01202983
                                                                       D1 diagnostic:  0.02670203


 Total CPU time for triples:      1.16 sec


 RESULTS
 =======

  Reference energy                   -152.087057912406
  CCSD singlet pair energy             -0.304815505132
  CCSD triplet pair energy             -0.149483069898
  CCSD correlation energy              -0.454298575032

  Triples (T) contribution             -0.010294995137
  Total correlation energy             -0.464593570169

  CCSD total energy                  -152.541356487439
  CCSD[T] energy                     -152.552381241772
  CCSD-T energy                      -152.551364741213
 !CCSD(T) total energy               -152.551651482575

 Timing summary (sec):

 STEP                 CPU(USER)    SYS     CPU(TOT)    WALL
 Transformation          0.09      0.02      0.11      0.11
 CCSD iterations         3.42      0.14      3.56      3.60
 Triples                 1.16      0.01      1.17      1.18

 Program statistics:

 Available memory in ccsd:               999999644
 Min. memory needed in ccsd:                333849
 Max. memory used in ccsd:                  413833
 Max. memory used in cckext:                383006 (20 integral passes)



 **********************************************************************************************************************************
 DATASETS  * FILE   NREC   LENGTH (MB)   RECORD NAMES
              1      20       28.09       500      610      700      900      950      970     1000      129      960     1100   
                                          VAR    BASINP    GEOM    SYMINP    ZMAT    AOBASIS   BASIS     P2S    ABASIS      S 
                                         1400     1410     1200     1210     1080     1600     1650     1300     1700     1380   
                                           T        V       H0       H01     AOSYM     SMH    MOLCAS    ERIS     OPER     JKOP   

              2       3        0.44       700     1000     2100   
                                         GEOM     BASIS     RHF  

 PROGRAMS   *        TOTAL   CCSD(T)       RHF       INT
 CPU TIMES  *         5.56      4.68      0.41      0.40
 REAL TIME  *         6.50 SEC
 DISK USED  *        72.63 MB      
 GA USED    *         0.00 MB       (max)       0.00 MB       (current)
 **********************************************************************************************************************************

        CCSD(T)         RHF-SCF 
   -152.55165148   -152.08705791
 **********************************************************************************************************************************
 Variable memory released
