
 Primary working directories    : /tmp/916842.118.gen6.q
 Secondary working directories  : /tmp/916842.118.gen6.q
 Wavefunction directory         : /home/vulcan/lo21740/wfu/
 Main file repository           : /tmp/916842.118.gen6.q/

 ARCHNAME  : Linux/x86_64
 FC        : /opt/intel/compilers_and_libraries_2016.1.150/linux/bin/intel64/ifort
 FCVERSION : 16.0.1
 BLASLIB   : -mkl
 id        : ccgc

 Nodes     nprocs
 n082         1
 ga_uses_ma=false, calling ma_init with nominal heap.
 GA-space will be limited to   8.0 MW (determined by -G option)

 Using customized tuning parameters: mindgm=10; mindgv=16; mindgc=4; mindgr=1; noblas=0; mincuda=1000; minvec=7
 default implementation of scratch files=df  

 ***,Optimization of h2o_2
 memory,1000,m
 gthresh,energy=1.0d-12,orbital=1.0d-10,oneint=1.0d-16,twoint=1.0d-16,optgrad=1.0d-6,compress=1.0d-13
 geomtyp=xyz
 
 bohr
 geometry = {
  O   -2.8160518860   -0.2057677032   -0.0000000000
  H   -3.5621113643    1.4494845462    0.0000000000
  H   -1.0136230251    0.1033167145   -0.0000000000
  O    2.6760211310    0.1864501884   -0.0000000000
  H    3.3403765762   -0.6967649960   -1.4443710170
  H    3.3403765762   -0.6967649960    1.4443710170
 }
 
 basis=aug-cc-pvdz
 {rhf;maxit,200}
 {ccsd(t);maxit,200}

 Variables initialized (661), CPU time= 0.00 sec
 Commands  initialized (458), CPU time= 0.01 sec, 486 directives.
 Default parameters read. Elapsed time= 0.05 sec

 Checking input...
 Passed
1


                                         ***  PROGRAM SYSTEM MOLPRO  ***
                         Copyright, University College Cardiff Consultants Limited, 2008

                                    Version 2010.1 linked May 16 2016 07:17:05


 **********************************************************************************************************************************
 LABEL *   Optimization of h2o_2                                                         
 Linux-4.4.3/n082(x86_64) 64 bit mpp version                                             DATE: 18-Jul-23          TIME: 11:29:41  
 **********************************************************************************************************************************

 SHA1:             9e8077add272b0f3cad6f7df79ec5211205f459d
 **********************************************************************************************************************************

 THRESHOLDS:

 ZERO    =  1.00D-12  ONEINT  =  1.00D-16  TWOINT  =  1.00D-16  PREFAC  =  1.00D-14  LOCALI  =  1.00D-09  EORDER  =  1.00D-04
 ENERGY  =  1.00D-12  ETEST   =  0.00D+00  EDENS   =  0.00D+00  THRDEDEF=  1.00D-06  GRADIENT=  1.00D-02  STEP    =  1.00D-03
 ORBITAL =  1.00D-10  CIVEC   =  1.00D-05  COEFF   =  1.00D-04  PRINTCI =  5.00D-02  PUNCHCI =  9.90D+01  OPTGRAD =  1.00D-06
 OPTENERG=  1.00D-06  OPTSTEP =  3.00D-04  THRGRAD =  1.00D-10  COMPRESS=  1.00D-13  VARMIN  =  1.00D-07  VARMAX  =  1.00D-03
 THRDOUB =  0.00D+00  THRDIV  =  1.00D-05  THRRED  =  1.00D-07  THRPSP  =  1.00D+00  THRDC   =  1.00D-10  THRCS   =  1.00D-10
 THRNRM  =  1.00D-08  THREQ   =  0.00D+00  THRDE   =  1.00D+00  THRREF  =  1.00D-05  SPARFAC =  1.00D+00  THRDLP  =  1.00D-07
 THRDIA  =  1.00D-10  THRDLS  =  1.00D-07  THRGPS  =  0.00D+00  THRKEX  =  0.00D+00  THRDIS  =  2.00D-01  THRVAR  =  1.00D-10
 THRLOC  =  1.00D-06  THRGAP  =  1.00D-06  THRLOCT = -1.00D+00  THRGAPT = -1.00D+00  THRORB  =  1.00D-06  THRMLTP =  0.00D+00
 THRCPQCI=  1.00D-10  KEXTA   =  0.00D+00  THRCOARS=  0.00D+00  SYMTOL  =  1.00D-06  GRADTOL =  1.00D-06  THROVL  =  1.00D-08
 THRORTH =  1.00D-08  GRID    =  1.00D-06  GRIDMAX =  1.00D-03  DTMAX   =  0.00D+00

 SETTING GEOMTYP        =    XYZ
 ZUNIT=BOHR
 

 Variable memory set to 1000000000 words,  buffer space   230000 words

 SETTING BASIS          =    AUG-CC-PVDZ


 Recomputing integrals since basis changed


 Using spherical harmonics

 Library entry O      S aug-cc-pVDZ          selected for orbital group  1
 Library entry O      P aug-cc-pVDZ          selected for orbital group  1
 Library entry O      D aug-cc-pVDZ          selected for orbital group  1
 Library entry H      S aug-cc-pVDZ          selected for orbital group  2
 Library entry H      P aug-cc-pVDZ          selected for orbital group  2

1PROGRAM * SEWARD (Integral evaluation for generally contracted gaussian basis sets)     Author: Roland Lindh, 1990

 Geometry written to block  1 of record 700


 Point group  Cs  



 ATOMIC COORDINATES

 NR  ATOM    CHARGE       X              Y              Z

   1  O       8.00   -2.816051886   -0.205767703    0.000000000
   2  H       1.00   -3.562111364    1.449484546    0.000000000
   3  H       1.00   -1.013623025    0.103316715    0.000000000
   4  O       8.00    2.676021131    0.186450188    0.000000000
   5  H       1.00    3.340376576   -0.696764996   -1.444371017
   6  H       1.00    3.340376576   -0.696764996    1.444371017

 Bond lengths in Bohr (Angstrom)

 1-2  1.815616907  1-3  1.828738083  4-5  1.818693172  4-6  1.818693172
     ( 0.960783088)     ( 0.967726515)     ( 0.962410977)     ( 0.962410977)

 Bond angles

  2-1-3  104.53160047   5-4-6  105.15587816

 NUCLEAR CHARGE:                   20
 NUMBER OF PRIMITIVE AOS:         118
 NUMBER OF SYMMETRY AOS:          114
 NUMBER OF CONTRACTIONS:           82   (  55A'  +  27A"  )
 NUMBER OF CORE ORBITALS:           2   (   2A'  +   0A"  )
 NUMBER OF VALENCE ORBITALS:       12   (   9A'  +   3A"  )


 NUCLEAR REPULSION ENERGY   36.54307653


 Eigenvalues of metric

         1 0.166E-02 0.209E-02 0.263E-02 0.617E-02 0.892E-02 0.116E-01 0.153E-01 0.225E-01
         2 0.296E-02 0.163E-01 0.197E-01 0.628E-01 0.735E-01 0.119E+00 0.138E+00 0.160E+00


 Contracted 2-electron integrals neglected if value below      1.0D-16
 AO integral compression algorithm  1   Integral accuracy      1.0D-16

     30.409 MB (compressed) written to integral file ( 97.3%)

     Node minimum: 30.409 MB, node maximum: 30.409 MB


 NUMBER OF SORTED TWO-ELECTRON INTEGRALS:    3004561.     BUFFER LENGTH:  32768
 NUMBER OF SEGMENTS:   1  SEGMENT LENGTH:    3004561      RECORD LENGTH: 524288

 Memory used in sort:       3.56 MW

 SORT1 READ     3917200. AND WROTE     2966140. INTEGRALS IN      9 RECORDS. CPU TIME:     0.03 SEC, REAL TIME:     0.05 SEC
 SORT2 READ     2966140. AND WROTE     3004561. INTEGRALS IN    116 RECORDS. CPU TIME:     0.04 SEC, REAL TIME:     0.05 SEC

 FILE SIZES:   FILE 1:    26.3 MBYTE,  FILE 4:    37.8 MBYTE,   TOTAL:     64.1 MBYTE

 OPERATOR DM      FOR CENTER  0  COORDINATES:    0.000000    0.000000    0.000000


 **********************************************************************************************************************************
 DATASETS  * FILE   NREC   LENGTH (MB)   RECORD NAMES
              1      19       26.33       500      610      700      900      950      970     1000      129      960     1100   
                                          VAR    BASINP    GEOM    SYMINP    ZMAT    AOBASIS   BASIS     P2S    ABASIS      S 
                                         1400     1410     1200     1210     1080     1600     1650     1300     1700   
                                           T        V       H0       H01     AOSYM     SMH    MOLCAS    ERIS     OPER   

 PROGRAMS   *        TOTAL       INT
 CPU TIMES  *         0.34      0.30
 REAL TIME  *         0.56 SEC
 DISK USED  *        95.11 MB      
 GA USED    *         0.00 MB       (max)       0.00 MB       (current)
 **********************************************************************************************************************************

1PROGRAM * RHF-SCF (CLOSED SHELL)       Authors: W. Meyer, H.-J. Werner


 NUMBER OF ELECTRONS:      10+   10-
 CONVERGENCE THRESHOLDS:    1.00E-10 (Density)    1.00E-13 (Energy)
 MAX. NUMBER OF ITERATIONS:      200
 INTERPOLATION TYPE:            DIIS
 INTERPOLATION STEPS:              2 (START)      1 (STEP)
 LEVEL SHIFTS:                  0.00 (CLOSED)  0.00 (OPEN) 



 Orbital guess generated from atomic densities. Full valence occupancy:   11   3

 Molecular orbital dump at record        2100.2

 Initial alpha occupancy:   8   2
 Initial beta  occupancy:   8   2
 Wave function symmetry:    1

 ITERATION    DDIFF          GRAD             ENERGY        2-EL.EN.            DIPOLE MOMENTS         DIIS
    1      0.000D+00      0.000D+00      -152.02132426    191.272321    1.38082    0.10657    0.00000    0
    2      0.000D+00      0.127D-01      -152.07072226    184.761692    1.01810    0.02847    0.00000    1
    3      0.239D-01      0.724D-02      -152.08779048    187.560292    1.08177    0.06046    0.00000    2
    4      0.807D-02      0.796D-03      -152.08817228    187.345061    1.06746    0.05801    0.00000    3
    5      0.137D-02      0.190D-03      -152.08820127    187.365718    1.06356    0.05943    0.00000    4
    6      0.362D-03      0.416D-04      -152.08820286    187.368311    1.06286    0.05878    0.00000    5
    7      0.829D-04      0.195D-04      -152.08820307    187.367312    1.06263    0.05917    0.00000    6
    8      0.274D-04      0.385D-05      -152.08820309    187.367263    1.06253    0.05914    0.00000    7
    9      0.954D-05      0.606D-06      -152.08820309    187.367272    1.06251    0.05914    0.00000    6
   10      0.131D-05      0.121D-06      -152.08820309    187.367268    1.06251    0.05914    0.00000    6
   11      0.268D-06      0.304D-07      -152.08820309    187.367273    1.06251    0.05914    0.00000    6
   12      0.610D-07      0.944D-08      -152.08820309    187.367270    1.06251    0.05914    0.00000    6
   13      0.225D-07      0.357D-08      -152.08820309    187.367271    1.06251    0.05914    0.00000    6
   14      0.674D-08      0.940D-09      -152.08820309    187.367271    1.06251    0.05914    0.00000    7
   15      0.212D-08      0.276D-09      -152.08820309    187.367271    1.06251    0.05914    0.00000    7
   16      0.450D-09      0.123D-09      -152.08820309    187.367271    1.06251    0.05914    0.00000    7
   17      0.231D-09      0.347D-10      -152.08820309    187.367271    1.06251    0.05914    0.00000    7
   18      0.808D-10      0.786D-11      -152.08820309    187.367271    1.06251    0.05914    0.00000    7
   19      0.162D-10      0.206D-11      -152.08820309    187.367271    1.06251    0.05914    0.00000    0

 Final occupancy:   8   2

 !RHF STATE 1.1 Energy               -152.088203091320
 Nuclear energy                        36.54307653
 One-electron energy                 -282.31491521
 Two-electron energy                   93.68363559
 Virial quotient                       -1.00167020
 !RHF STATE 1.1 Dipole moment           1.06251045     0.05913908     0.00000000
 Dipole moment /Debye                   2.70045531     0.15030671     0.00000000

 Orbital energies:

         1.1          2.1          3.1          4.1          5.1          6.1          7.1          8.1          9.1         10.1
    -20.602678   -20.546405    -1.380963    -1.324015    -0.694371    -0.613266    -0.558966    -0.530062     0.028331     0.055952

         1.2          2.2          3.2          4.2
     -0.742814    -0.480281     0.055195     0.210992


 **********************************************************************************************************************************
 DATASETS  * FILE   NREC   LENGTH (MB)   RECORD NAMES
              1      19       26.33       500      610      700      900      950      970     1000      129      960     1100   
                                          VAR    BASINP    GEOM    SYMINP    ZMAT    AOBASIS   BASIS     P2S    ABASIS      S 
                                         1400     1410     1200     1210     1080     1600     1650     1300     1700   
                                           T        V       H0       H01     AOSYM     SMH    MOLCAS    ERIS     OPER   

              2       3        0.42       700     1000     2100   
                                         GEOM     BASIS     RHF  

 PROGRAMS   *        TOTAL       RHF       INT
 CPU TIMES  *         0.61      0.27      0.30
 REAL TIME  *         0.87 SEC
 DISK USED  *        95.11 MB      
 GA USED    *         0.00 MB       (max)       0.00 MB       (current)
 **********************************************************************************************************************************


1PROGRAM * CCSD (Closed-shell coupled cluster)     Authors: C. Hampel, H.-J. Werner, 1991, M. Deegan, P.J. Knowles, 1992


 Convergence thresholds:  THRVAR = 1.00D-08  THRDEN = 1.00D-12

 CCSD(T)     terms to be evaluated (factor= 1.000)


 Number of core orbitals:           2 (   2   0 )
 Number of closed-shell orbitals:   8 (   6   2 )
 Number of external orbitals:      72 (  47  25 )

 Molecular orbitals read from record     2100.2  Type=RHF/CANONICAL (state 1.1)

 Number of N-1 electron functions:               8
 Number of N-2 electron functions:              36
 Number of singly external CSFs:               332
 Number of doubly external CSFs:             85168
 Total number of CSFs:                       85501

 Length of J-op  integral file:               0.00 MB
 Length of K-op  integral file:               0.29 MB
 Length of 3-ext integral record:             0.00 MB

 Memory could be reduced to 2.51 Mwords without degradation in triples

 Integral transformation finished. Total CPU:   0.05 sec, npass=  1  Memory used:   0.88 MW

 Reference energy:                   -152.08820309

 MP2 singlet pair energy:              -0.27224030
 MP2 triplet pair energy:              -0.16967713
 MP2 correlation energy:               -0.44191743
 MP2 total energy:                   -152.53012052

 SCS-MP2 correlation energy:           -0.43226524   (PS=  1.200000  PT=  0.333333)
 SCS-MP2 total energy:               -152.52046833

 ITER.      SQ.NORM     CORR.ENERGY   TOTAL ENERGY   ENERGY CHANGE        DEN1      VAR(S)    VAR(P)  DIIS     TIME
   1      1.12160010    -0.45556047  -152.54376356    -0.01364304    -0.00399315  0.25D-02  0.17D-02  1  1     0.12
   2      1.12997472    -0.45682905  -152.54503214    -0.00126857    -0.00891632  0.17D-04  0.28D-03  2  2     0.20
   3      1.13294748    -0.45708586  -152.54528895    -0.00025681    -0.00167730  0.35D-04  0.10D-04  3  3     0.28
   4      1.13388093    -0.45702088  -152.54522398     0.00006498    -0.00040705  0.17D-05  0.10D-05  4  4     0.35
   5      1.13413733    -0.45700620  -152.54520929     0.00001468    -0.00008250  0.22D-06  0.69D-07  5  5     0.44
   6      1.13418807    -0.45700307  -152.54520616     0.00000313    -0.00000664  0.23D-07  0.66D-08  6  6     0.52
   7      1.13420063    -0.45700153  -152.54520463     0.00000154    -0.00000123  0.20D-08  0.12D-08  6  2     0.59
   8      1.13420377    -0.45700148  -152.54520457     0.00000005    -0.00000008  0.24D-09  0.13D-09  6  1     0.67
   9      1.13420436    -0.45700146  -152.54520455     0.00000002     0.00000027  0.27D-10  0.15D-10  6  4     0.75
  10      1.13420476    -0.45700142  -152.54520451     0.00000004    -0.00000007  0.52D-11  0.14D-11  6  3     0.83
  11      1.13420473    -0.45700143  -152.54520452    -0.00000001     0.00000004  0.11D-11  0.24D-12  6  5     0.91
  12      1.13420470    -0.45700143  -152.54520452    -0.00000000     0.00000001  0.22D-12  0.52D-13  6  6     0.99
  13      1.13420466    -0.45700143  -152.54520453    -0.00000000     0.00000001  0.29D-13  0.91D-14  6  1     1.07
  14      1.13420465    -0.45700144  -152.54520453    -0.00000000     0.00000000  0.43D-14  0.12D-14  6  2     1.15
  15      1.13420465    -0.45700144  -152.54520453     0.00000000    -0.00000000  0.62D-15  0.24D-15  6  3     1.23
  16      1.13420465    -0.45700144  -152.54520453     0.00000000    -0.00000000  0.66D-16  0.30D-16  6  4     1.31
  17      1.13420465    -0.45700144  -152.54520453     0.00000000    -0.00000000  0.76D-17  0.36D-17  6  5     1.39
  18      1.13420465    -0.45700144  -152.54520453     0.00000000    -0.00000000  0.12D-17  0.81D-18  6  4     1.46
  19      1.13420465    -0.45700144  -152.54520453     0.00000000    -0.00000000  0.11D-18  0.62D-19  6  1     1.54
  20      1.13420465    -0.45700144  -152.54520453    -0.00000000     0.00000000  0.23D-19  0.72D-20  6  6     1.62
  21      1.13420465    -0.45700144  -152.54520453    -0.00000000     0.00000000  0.47D-20  0.13D-20  6  2     1.70

 Norm of t1 vector:      0.07018873      S-energy:    -0.00000000      T1 diagnostic:  0.01240773
                                                                       D1 diagnostic:  0.02771805


 Total CPU time for triples:      0.65 sec


 RESULTS
 =======

  Reference energy                   -152.088203091320
  CCSD singlet pair energy             -0.306629194553
  CCSD triplet pair energy             -0.150372241044
  CCSD correlation energy              -0.457001435597

  Triples (T) contribution             -0.010945153350
  Total correlation energy             -0.467946588947

  CCSD total energy                  -152.545204526917
  CCSD[T] energy                     -152.556958864925
  CCSD-T energy                      -152.555811384017
 !CCSD(T) total energy               -152.556149680268

 Timing summary (sec):

 STEP                 CPU(USER)    SYS     CPU(TOT)    WALL
 Transformation          0.05      0.01      0.06      0.06
 CCSD iterations         1.65      0.10      1.75      1.78
 Triples                 0.65      0.01      0.66      0.66

 Program statistics:

 Available memory in ccsd:               999999644
 Min. memory needed in ccsd:                276138
 Max. memory used in ccsd:                  344222
 Max. memory used in cckext:                390441 (21 integral passes)



 **********************************************************************************************************************************
 DATASETS  * FILE   NREC   LENGTH (MB)   RECORD NAMES
              1      20       34.07       500      610      700      900      950      970     1000      129      960     1100   
                                          VAR    BASINP    GEOM    SYMINP    ZMAT    AOBASIS   BASIS     P2S    ABASIS      S 
                                         1400     1410     1200     1210     1080     1600     1650     1300     1700     1380   
                                           T        V       H0       H01     AOSYM     SMH    MOLCAS    ERIS     OPER     JKOP   

              2       3        0.42       700     1000     2100   
                                         GEOM     BASIS     RHF  

 PROGRAMS   *        TOTAL   CCSD(T)       RHF       INT
 CPU TIMES  *         2.97      2.36      0.27      0.30
 REAL TIME  *         3.45 SEC
 DISK USED  *        95.11 MB      
 GA USED    *         0.00 MB       (max)       0.00 MB       (current)
 **********************************************************************************************************************************

        CCSD(T)         RHF-SCF 
   -152.55614968   -152.08820309
 **********************************************************************************************************************************
 Variable memory released
