
 Primary working directories    : /tmp/1047041.53.gen6.q
 Secondary working directories  : /tmp/1047041.53.gen6.q
 Wavefunction directory         : /home/vulcan/mel64643/wfu/
 Main file repository           : /tmp/1047041.53.gen6.q/

 ARCHNAME  : Linux/x86_64
 FC        : /opt/intel/compilers_and_libraries_2016.1.150/linux/bin/intel64/ifort
 FCVERSION : 16.0.1
 BLASLIB   : -mkl
 id        : ccgc

 Nodes     nprocs
 n087         1
 ga_uses_ma=false, calling ma_init with nominal heap.
 GA-space will be limited to   8.0 MW (determined by -G option)

 Using customized tuning parameters: mindgm=10; mindgv=16; mindgc=4; mindgr=1; noblas=0; mincuda=1000; minvec=7
 default implementation of scratch files=df  

 ***,Optimization of ben_hcn
 memory,1000,m
 gthresh,energy=1.0d-12,orbital=1.0d-10,oneint=1.0d-16,twoint=1.0d-16,optgrad=1.0d-6,compress=1.0d-13
 geomtyp=xyz
 
 
 
 bohr
 geometry = {
  C   -1.8726673868    1.3655517426    2.2798524407
  C   -1.8516525944    2.6844123236   -0.0064379038
  C   -1.8811169078    1.3641614535   -2.2918172632
  C   -1.9315579847   -1.2747398750   -2.2908228625
  C   -1.9525591015   -2.5934177711   -0.0046630627
  C   -1.9230885736   -1.2733690755    2.2806243866
  H   -1.8439835511    2.3897538132    4.0530887964
  H   -1.8068555938    4.7319062077   -0.0071548092
  H   -1.8588241745    2.3872753368   -4.0657679687
  H   -1.9479754527   -2.2991715390   -4.0640512888
  H   -1.9850478546   -4.6410939825   -0.0039725881
  H   -1.9329920305   -2.2967524544    4.0545113969
  N    6.6254930023   -0.1743329345    0.0501982414
  C    4.4350126142   -0.0700618400    0.0204199238
  H    2.4146168365    0.0264021426   -0.0069069247
 }
 
 basis=aug-cc-pvdz, H=cc-pvdz
 {rhf;maxit,200}
 {ccsd(t)}

 Variables initialized (661), CPU time= 0.01 sec
 Commands  initialized (458), CPU time= 0.00 sec, 486 directives.
 Default parameters read. Elapsed time= 0.04 sec

 Checking input...
 Passed
1


                                         ***  PROGRAM SYSTEM MOLPRO  ***
                         Copyright, University College Cardiff Consultants Limited, 2008

                                    Version 2010.1 linked May 16 2016 07:17:05


 **********************************************************************************************************************************
 LABEL *   Optimization of ben_hcn                                                       
 Linux-4.4.3/n087(x86_64) 64 bit mpp version                                             DATE: 06-Mar-24          TIME: 09:42:52  
 **********************************************************************************************************************************

 SHA1:             9e8077add272b0f3cad6f7df79ec5211205f459d
 **********************************************************************************************************************************

 THRESHOLDS:

 ZERO    =  1.00D-12  ONEINT  =  1.00D-16  TWOINT  =  1.00D-16  PREFAC  =  1.00D-14  LOCALI  =  1.00D-09  EORDER  =  1.00D-04
 ENERGY  =  1.00D-12  ETEST   =  0.00D+00  EDENS   =  0.00D+00  THRDEDEF=  1.00D-06  GRADIENT=  1.00D-02  STEP    =  1.00D-03
 ORBITAL =  1.00D-10  CIVEC   =  1.00D-05  COEFF   =  1.00D-04  PRINTCI =  5.00D-02  PUNCHCI =  9.90D+01  OPTGRAD =  1.00D-06
 OPTENERG=  1.00D-06  OPTSTEP =  3.00D-04  THRGRAD =  1.00D-10  COMPRESS=  1.00D-13  VARMIN  =  1.00D-07  VARMAX  =  1.00D-03
 THRDOUB =  0.00D+00  THRDIV  =  1.00D-05  THRRED  =  1.00D-07  THRPSP  =  1.00D+00  THRDC   =  1.00D-10  THRCS   =  1.00D-10
 THRNRM  =  1.00D-08  THREQ   =  0.00D+00  THRDE   =  1.00D+00  THRREF  =  1.00D-05  SPARFAC =  1.00D+00  THRDLP  =  1.00D-07
 THRDIA  =  1.00D-10  THRDLS  =  1.00D-07  THRGPS  =  0.00D+00  THRKEX  =  0.00D+00  THRDIS  =  2.00D-01  THRVAR  =  1.00D-10
 THRLOC  =  1.00D-06  THRGAP  =  1.00D-06  THRLOCT = -1.00D+00  THRGAPT = -1.00D+00  THRORB  =  1.00D-06  THRMLTP =  0.00D+00
 THRCPQCI=  1.00D-10  KEXTA   =  0.00D+00  THRCOARS=  0.00D+00  SYMTOL  =  1.00D-06  GRADTOL =  1.00D-06  THROVL  =  1.00D-08
 THRORTH =  1.00D-08  GRID    =  1.00D-06  GRIDMAX =  1.00D-03  DTMAX   =  0.00D+00

 SETTING GEOMTYP        =    XYZ
 ZUNIT=BOHR
 

 Variable memory set to 1000000000 words,  buffer space   230000 words

 SETTING BASIS          =    AUG-CC-PVDZ,H=CC-PVDZ


 Recomputing integrals since basis changed


 Using spherical harmonics

 Library entry C      S aug-cc-pVDZ          selected for orbital group  1
 Library entry C      P aug-cc-pVDZ          selected for orbital group  1
 Library entry C      D aug-cc-pVDZ          selected for orbital group  1
 Library entry H      S cc-pVDZ              selected for orbital group  2
 Library entry H      P cc-pVDZ              selected for orbital group  2
 Library entry N      S aug-cc-pVDZ          selected for orbital group  3
 Library entry N      P aug-cc-pVDZ          selected for orbital group  3
 Library entry N      D aug-cc-pVDZ          selected for orbital group  3

1PROGRAM * SEWARD (Integral evaluation for generally contracted gaussian basis sets)     Author: Roland Lindh, 1990

 Geometry written to block  1 of record 700


 Point group  C1  



 ATOMIC COORDINATES

 NR  ATOM    CHARGE       X              Y              Z

   1  C       6.00   -1.872667387    1.365551743    2.279852441
   2  C       6.00   -1.851652594    2.684412324   -0.006437904
   3  C       6.00   -1.881116908    1.364161453   -2.291817263
   4  C       6.00   -1.931557985   -1.274739875   -2.290822862
   5  C       6.00   -1.952559101   -2.593417771   -0.004663063
   6  C       6.00   -1.923088574   -1.273369076    2.280624387
   7  H       1.00   -1.843983551    2.389753813    4.053088796
   8  H       1.00   -1.806855594    4.731906208   -0.007154809
   9  H       1.00   -1.858824175    2.387275337   -4.065767969
  10  H       1.00   -1.947975453   -2.299171539   -4.064051289
  11  H       1.00   -1.985047855   -4.641093983   -0.003972588
  12  H       1.00   -1.932992030   -2.296752454    4.054511397
  13  N       7.00    6.625493002   -0.174332935    0.050198241
  14  C       6.00    4.435012614   -0.070061840    0.020419924
  15  H       1.00    2.414616837    0.026402143   -0.006906925

 Bond lengths in Bohr (Angstrom)

 1-2  2.639499648  1-6  2.639402579  1-7  2.047969682  2-3  2.639486564  2-8  2.047984006
     ( 1.396763057)     ( 1.396711690)     ( 1.083738880)     ( 1.396756133)     ( 1.083746461)

  3- 4  2.639383548   3- 9  2.047964865   4- 5  2.639295184   4-10  2.047942582   5- 6  2.639305931
       ( 1.396701619)       ( 1.083736332)       ( 1.396654859)       ( 1.083724540)       ( 1.396660546)

  5-11  2.047934047   6-12  2.047946958  13-14  2.193162908  14-15  2.022881894
       ( 1.083720023)       ( 1.083726856)       ( 1.160571826)       ( 1.070462995)

 Bond angles

  1- 2- 3  119.99746281   1- 2- 8  120.00138172   1- 6- 5  120.00123810   1- 6-12  119.99777425

  2-1-6  119.99849991   2-1-7  119.99930248   2-3-4  119.99920891   2-3-9  119.99924876

  3- 2- 8  120.00090520   3- 4- 5  120.00130481   3- 4-10  119.99737970   4- 3- 9  120.00125686

  4- 5- 6  120.00228544   4- 5-11  119.99920389   5- 4-10  120.00098987   5- 6-12  120.00066941

  6- 1- 7  120.00192610   6- 5-11  119.99815911  13-14-15  179.99091354

 NUCLEAR CHARGE:                   56
 NUMBER OF PRIMITIVE AOS:         345
 NUMBER OF SYMMETRY AOS:          329
 NUMBER OF CONTRACTIONS:          219   ( 219A   )
 NUMBER OF CORE ORBITALS:           8   (   8A   )
 NUMBER OF VALENCE ORBITALS:       39   (  39A   )


 NUCLEAR REPULSION ENERGY  303.67054543


 Eigenvalues of metric

         1 0.851E-05 0.184E-04 0.225E-04 0.525E-04 0.622E-04 0.622E-04 0.923E-04 0.923E-04


 Contracted 2-electron integrals neglected if value below      1.0D-16
 AO integral compression algorithm  1   Integral accuracy      1.0D-16

     2346.451 MB (compressed) written to integral file ( 91.5%)

     Node minimum: 2346.451 MB, node maximum: 2346.451 MB


 NUMBER OF SORTED TWO-ELECTRON INTEGRALS:  290176095.     BUFFER LENGTH:  32768
 NUMBER OF SEGMENTS:  19  SEGMENT LENGTH:   15999762      RECORD LENGTH: 524288

 Memory used in sort:      16.56 MW

 SORT1 READ   320642736. AND WROTE   287627638. INTEGRALS IN    832 RECORDS. CPU TIME:     2.89 SEC, REAL TIME:     4.50 SEC
 SORT2 READ   287627638. AND WROTE   290176095. INTEGRALS IN   8951 RECORDS. CPU TIME:     1.73 SEC, REAL TIME:     2.82 SEC

 FILE SIZES:   FILE 1:  2156.5 MBYTE,  FILE 4:  3489.7 MBYTE,   TOTAL:   5646.2 MBYTE

 OPERATOR DM      FOR CENTER  0  COORDINATES:    0.000000    0.000000    0.000000


 **********************************************************************************************************************************
 DATASETS  * FILE   NREC   LENGTH (MB)   RECORD NAMES
              1      19     2157.07       500      610      700      900      950      970     1000      129      960     1100   
                                          VAR    BASINP    GEOM    SYMINP    ZMAT    AOBASIS   BASIS     P2S    ABASIS      S 
                                         1400     1410     1200     1210     1080     1600     1650     1300     1700   
                                           T        V       H0       H01     AOSYM     SMH    MOLCAS    ERIS     OPER   

 PROGRAMS   *        TOTAL       INT
 CPU TIMES  *        15.25     15.21
 REAL TIME  *        19.53 SEC
 DISK USED  *         7.99 GB      
 GA USED    *         0.01 MB       (max)       0.00 MB       (current)
 **********************************************************************************************************************************

1PROGRAM * RHF-SCF (CLOSED SHELL)       Authors: W. Meyer, H.-J. Werner


 NUMBER OF ELECTRONS:      28+   28-    SPACE SYMMETRY=1    SPIN SYMMETRY: Singlet 
 CONVERGENCE THRESHOLDS:    1.00E-10 (Density)    1.00E-13 (Energy)
 MAX. NUMBER OF ITERATIONS:      200
 INTERPOLATION TYPE:            DIIS
 INTERPOLATION STEPS:              2 (START)      1 (STEP)
 LEVEL SHIFTS:                  0.00 (CLOSED)  0.00 (OPEN) 



 Orbital guess generated from atomic densities. Full valence occupancy:   47

 Molecular orbital dump at record        2100.2

 ITERATION    DDIFF          GRAD             ENERGY        2-EL.EN.            DIPOLE MOMENTS         DIIS
    1      0.000D+00      0.000D+00      -323.54136854    822.714060   -1.89880    0.08711   -0.02466    0
    2      0.000D+00      0.292D-02      -323.59795746    819.626072   -1.36893    0.04325   -0.01217    1
    3      0.789D-02      0.179D-02      -323.61460615    820.794849   -1.72958    0.06777   -0.01882    2
    4      0.261D-02      0.576D-03      -323.61693643    820.998031   -1.63846    0.06160   -0.01728    3
    5      0.964D-03      0.135D-03      -323.61706831    820.735771   -1.66271    0.06229   -0.01739    4
    6      0.226D-03      0.229D-04      -323.61707444    820.762410   -1.66406    0.06224   -0.01740    5
    7      0.851D-04      0.434D-05      -323.61707464    820.757586   -1.66441    0.06219   -0.01737    6
    8      0.108D-04      0.123D-05      -323.61707466    820.758574   -1.66472    0.06223   -0.01740    7
    9      0.345D-05      0.266D-06      -323.61707466    820.758604   -1.66469    0.06220   -0.01738    6
   10      0.818D-06      0.651D-07      -323.61707466    820.758586   -1.66469    0.06222   -0.01739    6
   11      0.184D-06      0.335D-07      -323.61707466    820.758599   -1.66469    0.06221   -0.01738    7
   12      0.761D-07      0.677D-08      -323.61707466    820.758594   -1.66469    0.06221   -0.01739    7
   13      0.226D-07      0.236D-08      -323.61707466    820.758597   -1.66469    0.06221   -0.01739    7
   14      0.610D-08      0.706D-09      -323.61707466    820.758595   -1.66469    0.06221   -0.01739    7
   15      0.210D-08      0.284D-09      -323.61707466    820.758596   -1.66469    0.06221   -0.01739    8
   16      0.753D-09      0.877D-10      -323.61707466    820.758596   -1.66469    0.06221   -0.01739    8
   17      0.244D-09      0.346D-10      -323.61707466    820.758596   -1.66469    0.06221   -0.01739    8
   18      0.111D-09      0.154D-10      -323.61707466    820.758596   -1.66469    0.06221   -0.01739    8
   19      0.148D-09      0.743D-11      -323.61707466    820.758596   -1.66469    0.06221   -0.01739    8
   20      0.187D-09      0.314D-11      -323.61707466    820.758596   -1.66469    0.06221   -0.01739    9
   21      0.155D-09      0.139D-11      -323.61707466    820.758596   -1.66469    0.06221   -0.01739    9
   22      0.908D-10      0.744D-12      -323.61707466    820.758596   -1.66469    0.06221   -0.01739    9
   23      0.761D-10      0.563D-12      -323.61707466    820.758596   -1.66469    0.06221   -0.01739    9
   24      0.561D-10      0.535D-12      -323.61707466    820.758596   -1.66469    0.06221   -0.01739    0

 Final occupancy:  28

 !RHF STATE 1.1 Energy               -323.617074658296
 Nuclear energy                       303.67054543
 One-electron energy                -1037.66691794
 Two-electron energy                  410.37929786
 Virial quotient                       -1.00159851
 !RHF STATE 1.1 Dipole moment          -1.66468840     0.06221413    -0.01738519
 Dipole moment /Debye                  -4.23093875     0.15812220    -0.04418586

 Orbital energies:

         1.1          2.1          3.1          4.1          5.1          6.1          7.1          8.1          9.1         10.1
    -15.591731   -11.283942   -11.265582   -11.265028   -11.265021   -11.263833   -11.263825   -11.263234    -1.218409    -1.175225

        11.1         12.1         13.1         14.1         15.1         16.1         17.1         18.1         19.1         20.1
     -1.038454    -1.038453    -0.846003    -0.846001    -0.790015    -0.729931    -0.664244    -0.640039    -0.608727    -0.608726

        21.1         22.1         23.1         24.1         25.1         26.1         27.1         28.1         29.1         30.1
     -0.565335    -0.521249    -0.514757    -0.514756    -0.475762    -0.475759    -0.360061    -0.360057     0.055833     0.060082


 **********************************************************************************************************************************
 DATASETS  * FILE   NREC   LENGTH (MB)   RECORD NAMES
              1      19     2157.07       500      610      700      900      950      970     1000      129      960     1100   
                                          VAR    BASINP    GEOM    SYMINP    ZMAT    AOBASIS   BASIS     P2S    ABASIS      S 
                                         1400     1410     1200     1210     1080     1600     1650     1300     1700   
                                           T        V       H0       H01     AOSYM     SMH    MOLCAS    ERIS     OPER   

              2       3        1.49       700     1000     2100   
                                         GEOM     BASIS     RHF  

 PROGRAMS   *        TOTAL       RHF       INT
 CPU TIMES  *        57.52     42.27     15.21
 REAL TIME  *        66.46 SEC
 DISK USED  *         7.99 GB      
 GA USED    *         0.01 MB       (max)       0.00 MB       (current)
 **********************************************************************************************************************************


1PROGRAM * CCSD (Closed-shell coupled cluster)     Authors: C. Hampel, H.-J. Werner, 1991, M. Deegan, P.J. Knowles, 1992


 Convergence thresholds:  THRVAR = 1.00D-08  THRDEN = 1.00D-12

 CCSD(T)     terms to be evaluated (factor= 1.000)


 Number of core orbitals:           8 (   8 )
 Number of closed-shell orbitals:  20 (  20 )
 Number of external orbitals:     191 ( 191 )

 Molecular orbitals read from record     2100.2  Type=RHF/CANONICAL (state 1.1)

 Number of N-1 electron functions:              20
 Number of N-2 electron functions:             210
 Number of singly external CSFs:              3820
 Number of doubly external CSFs:           7298110
 Total number of CSFs:                     7301931

 Length of J-op  integral file:               0.00 MB
 Length of K-op  integral file:               3.32 MB
 Length of 3-ext integral record:             0.00 MB

 Memory could be reduced to 174.82 Mwords without degradation in triples

 Integral transformation finished. Total CPU:  13.96 sec, npass=  1  Memory used: 128.13 MW

 Reference energy:                   -323.61707466

 MP2 singlet pair energy:              -0.67299989
 MP2 triplet pair energy:              -0.43508597
 MP2 correlation energy:               -1.10808586
 MP2 total energy:                   -324.72516052

 SCS-MP2 correlation energy:           -1.07832003   (PS=  1.200000  PT=  0.333333)
 SCS-MP2 total energy:               -324.69539469

 ITER.      SQ.NORM     CORR.ENERGY   TOTAL ENERGY   ENERGY CHANGE        DEN1      VAR(S)    VAR(P)  DIIS     TIME
   1      1.42816949    -1.14419642  -324.76127108    -0.03611056    -0.00297467  0.51D-02  0.99D-02  1  1    59.22
   2      1.46240507    -1.15005526  -324.76712992    -0.00585884    -0.03098713  0.83D-04  0.13D-02  2  2   104.76
   3      1.47563646    -1.15049986  -324.76757452    -0.00044460    -0.00653868  0.40D-04  0.12D-03  3  3   150.30
   4      1.48129307    -1.15074765  -324.76782231    -0.00024779    -0.00177792  0.22D-05  0.15D-04  4  4   195.85
   5      1.48280740    -1.15078299  -324.76785765    -0.00003535    -0.00036299  0.25D-06  0.14D-05  5  5   241.46
   6      1.48310972    -1.15077451  -324.76784917     0.00000848    -0.00004983  0.23D-07  0.89D-07  6  6   287.05
   7      1.48314391    -1.15077791  -324.76785257    -0.00000339    -0.00000224  0.34D-08  0.78D-08  6  2   332.66
   8      1.48314840    -1.15077826  -324.76785292    -0.00000035    -0.00000041  0.40D-09  0.81D-09  6  1   378.24
   9      1.48314857    -1.15077843  -324.76785309    -0.00000017     0.00000078  0.62D-10  0.75D-10  6  3   423.86
  10      1.48314891    -1.15077849  -324.76785315    -0.00000006     0.00000002  0.99D-11  0.94D-11  6  4   469.47
  11      1.48314862    -1.15077852  -324.76785318    -0.00000004     0.00000022  0.17D-11  0.13D-11  6  5   515.09
  12      1.48314846    -1.15077853  -324.76785319    -0.00000001     0.00000008  0.25D-12  0.25D-12  6  6   560.70
  13      1.48314832    -1.15077854  -324.76785320    -0.00000000     0.00000005  0.14D-13  0.49D-13  6  2   606.30
  14      1.48314826    -1.15077854  -324.76785320    -0.00000000     0.00000002  0.22D-14  0.88D-14  6  1   651.91
  15      1.48314824    -1.15077854  -324.76785320     0.00000000     0.00000001  0.44D-15  0.12D-14  6  3   697.51
  16      1.48314823    -1.15077854  -324.76785320    -0.00000000     0.00000000  0.96D-16  0.18D-15  6  4   743.08
  17      1.48314822    -1.15077854  -324.76785320    -0.00000000     0.00000000  0.19D-16  0.26D-16  6  5   788.71
  18      1.48314822    -1.15077854  -324.76785320    -0.00000000     0.00000000  0.37D-17  0.33D-17  6  6   834.31
  19      1.48314822    -1.15077854  -324.76785320    -0.00000000     0.00000000  0.83D-18  0.56D-18  6  2   879.93
  20      1.48314822    -1.15077854  -324.76785320    -0.00000000     0.00000000  0.19D-18  0.13D-18  6  1   925.56
  21      1.48314822    -1.15077854  -324.76785320    -0.00000000     0.00000000  0.67D-19  0.39D-19  6  3   971.18
  22      1.48314822    -1.15077854  -324.76785320    -0.00000000     0.00000000  0.30D-19  0.17D-19  6  4  1016.80

 Norm of t1 vector:      0.09756387      S-energy:     0.00000000      T1 diagnostic:  0.01090797
                                                                       D1 diagnostic:  0.02770627

 Doubles amplitudes (print threshold =  0.500E-01):

         I         J         SYM. A    SYM. B    A         B      T(IJ, AB)

        19        19         1         1         7         7     -0.06050277
        20        20         1         1         8         8     -0.06050306


 Total CPU time for triples:    960.93 sec


 RESULTS
 =======

  Reference energy                   -323.617074658293
  CCSD singlet pair energy             -0.769582434850
  CCSD triplet pair energy             -0.381196105475
  CCSD correlation energy              -1.150778540325

  Triples (T) contribution             -0.053900995956
  Total correlation energy             -1.204679536281

  CCSD total energy                  -324.767853198617
  CCSD[T] energy                     -324.823082271098
  CCSD-T energy                      -324.821150385842
 !CCSD(T) total energy               -324.821754194574

 Timing summary (sec):

 STEP                 CPU(USER)    SYS     CPU(TOT)    WALL
 Transformation         14.41      0.98     15.39     15.40
 CCSD iterations      1002.40     13.41   1015.81   1015.97
 Triples               960.93     14.42    975.35    975.47

 Program statistics:

 Available memory in ccsd:               999998300
 Min. memory needed in ccsd:              17709720
 Max. memory used in ccsd:                24415330
 Max. memory used in cckext:              20754978 (22 integral passes)



 **********************************************************************************************************************************
 DATASETS  * FILE   NREC   LENGTH (MB)   RECORD NAMES
              1      20     2839.24       500      610      700      900      950      970     1000      129      960     1100   
                                          VAR    BASINP    GEOM    SYMINP    ZMAT    AOBASIS   BASIS     P2S    ABASIS      S 
                                         1400     1410     1200     1210     1080     1600     1650     1300     1700     1380   
                                           T        V       H0       H01     AOSYM     SMH    MOLCAS    ERIS     OPER     JKOP   

              2       3        1.49       700     1000     2100   
                                         GEOM     BASIS     RHF  

 PROGRAMS   *        TOTAL   CCSD(T)       RHF       INT
 CPU TIMES  *      2035.28   1977.76     42.27     15.21
 REAL TIME  *      2073.43 SEC
 DISK USED  *         7.99 GB      
 GA USED    *         0.01 MB       (max)       0.00 MB       (current)
 **********************************************************************************************************************************

        CCSD(T)         RHF-SCF 
   -324.82175419   -323.61707466
 **********************************************************************************************************************************
 Variable memory released
