
 Primary working directories    : /tmp/862637.192.gen4.q
 Secondary working directories  : /tmp/862637.192.gen4.q
 Wavefunction directory         : /home/vulcan/lo21740/wfu/
 Main file repository           : /tmp/862637.192.gen4.q/

 ARCHNAME  : Linux/x86_64
 FC        : /opt/intel/compilers_and_libraries_2016.1.150/linux/bin/intel64/ifort
 FCVERSION : 16.0.1
 BLASLIB   : -mkl
 id        : ccgc

 Nodes     nprocs
 n066         1
 ga_uses_ma=false, calling ma_init with nominal heap.
 GA-space will be limited to   8.0 MW (determined by -G option)

 Using customized tuning parameters: mindgm=10; mindgv=16; mindgc=4; mindgr=1; noblas=0; mincuda=1000; minvec=7
 default implementation of scratch files=df  

 ***,Optimization of formic acid
 memory,1000,m
 gthresh,energy=1.0d-12,orbital=1.0d-10,oneint=1.0d-16,twoint=1.0d-16,optgrad=1.0d-6,compress=1.0d-13
 geomtyp=xyz
 
 bohr
 geometry = {
  C   -3.5011877948   -0.8326453445    0.0000000000
  O   -3.0965350400    1.6232985967   -0.0000000000
  O   -1.8876008597   -2.4807753869   -0.0000000000
  H   -5.5188992675   -1.2727896401    0.0000000000
  H   -1.2381562702    1.9542432049    0.0000000000
  C    3.5000329700    0.8288978808    0.0000000000
  O    3.0921587219   -1.6220655869   -0.0000000000
  O    1.8831821884    2.4816756860    0.0000000000
  H    5.5208004926    1.2739726121   -0.0000000000
  H    1.2462048593   -1.9538120221   -0.0000000000
 }
 
 basis=AVDZ, H=VDZ
 {rhf;maxit,200}
 {ccsd(t);maxit,200}

 Variables initialized (661), CPU time= 0.01 sec
 Commands  initialized (458), CPU time= 0.00 sec, 486 directives.
 Default parameters read. Elapsed time= 0.05 sec

 Checking input...
 Passed
1


                                         ***  PROGRAM SYSTEM MOLPRO  ***
                         Copyright, University College Cardiff Consultants Limited, 2008

                                    Version 2010.1 linked May 16 2016 07:17:05


 **********************************************************************************************************************************
 LABEL *   Optimization of formic acid                                                   
 Linux-4.4.3/n066(x86_64) 64 bit mpp version                                             DATE: 27-Apr-23          TIME: 15:32:36  
 **********************************************************************************************************************************

 SHA1:             9e8077add272b0f3cad6f7df79ec5211205f459d
 **********************************************************************************************************************************

 THRESHOLDS:

 ZERO    =  1.00D-12  ONEINT  =  1.00D-16  TWOINT  =  1.00D-16  PREFAC  =  1.00D-14  LOCALI  =  1.00D-09  EORDER  =  1.00D-04
 ENERGY  =  1.00D-12  ETEST   =  0.00D+00  EDENS   =  0.00D+00  THRDEDEF=  1.00D-06  GRADIENT=  1.00D-02  STEP    =  1.00D-03
 ORBITAL =  1.00D-10  CIVEC   =  1.00D-05  COEFF   =  1.00D-04  PRINTCI =  5.00D-02  PUNCHCI =  9.90D+01  OPTGRAD =  1.00D-06
 OPTENERG=  1.00D-06  OPTSTEP =  3.00D-04  THRGRAD =  1.00D-10  COMPRESS=  1.00D-13  VARMIN  =  1.00D-07  VARMAX  =  1.00D-03
 THRDOUB =  0.00D+00  THRDIV  =  1.00D-05  THRRED  =  1.00D-07  THRPSP  =  1.00D+00  THRDC   =  1.00D-10  THRCS   =  1.00D-10
 THRNRM  =  1.00D-08  THREQ   =  0.00D+00  THRDE   =  1.00D+00  THRREF  =  1.00D-05  SPARFAC =  1.00D+00  THRDLP  =  1.00D-07
 THRDIA  =  1.00D-10  THRDLS  =  1.00D-07  THRGPS  =  0.00D+00  THRKEX  =  0.00D+00  THRDIS  =  2.00D-01  THRVAR  =  1.00D-10
 THRLOC  =  1.00D-06  THRGAP  =  1.00D-06  THRLOCT = -1.00D+00  THRGAPT = -1.00D+00  THRORB  =  1.00D-06  THRMLTP =  0.00D+00
 THRCPQCI=  1.00D-10  KEXTA   =  0.00D+00  THRCOARS=  0.00D+00  SYMTOL  =  1.00D-06  GRADTOL =  1.00D-06  THROVL  =  1.00D-08
 THRORTH =  1.00D-08  GRID    =  1.00D-06  GRIDMAX =  1.00D-03  DTMAX   =  0.00D+00

 SETTING GEOMTYP        =    XYZ
 ZUNIT=BOHR
 

 Variable memory set to 1000000000 words,  buffer space   230000 words

 SETTING BASIS          =    AVDZ,H=VDZ


 Recomputing integrals since basis changed


 Using spherical harmonics

 Library entry C      S aug-cc-pVDZ          selected for orbital group  1
 Library entry C      P aug-cc-pVDZ          selected for orbital group  1
 Library entry C      D aug-cc-pVDZ          selected for orbital group  1
 Library entry O      S aug-cc-pVDZ          selected for orbital group  2
 Library entry O      P aug-cc-pVDZ          selected for orbital group  2
 Library entry O      D aug-cc-pVDZ          selected for orbital group  2
 Library entry H      S cc-pVDZ              selected for orbital group  3
 Library entry H      P cc-pVDZ              selected for orbital group  3

1PROGRAM * SEWARD (Integral evaluation for generally contracted gaussian basis sets)     Author: Roland Lindh, 1990

 Geometry written to block  1 of record 700


 Point group  Cs  



 ATOMIC COORDINATES

 NR  ATOM    CHARGE       X              Y              Z

   1  C       6.00   -3.501187795   -0.832645345    0.000000000
   2  O       8.00   -3.096535040    1.623298597    0.000000000
   3  O       8.00   -1.887600860   -2.480775387    0.000000000
   4  H       1.00   -5.518899268   -1.272789640    0.000000000
   5  H       1.00   -1.238156270    1.954243205    0.000000000
   6  C       6.00    3.500032970    0.828897881    0.000000000
   7  O       8.00    3.092158722   -1.622065587    0.000000000
   8  O       8.00    1.883182188    2.481675686    0.000000000
   9  H       1.00    5.520800493    1.273972612    0.000000000
  10  H       1.00    1.246204859   -1.953812022    0.000000000

 Bond lengths in Bohr (Angstrom)

 1-2  2.489056949  1-3  2.306511529  1-4  2.065160185  2-5  1.887616483  6-7  2.484669661
     ( 1.317152209)     ( 1.220553333)     ( 1.092835703)     ( 0.998883622)     ( 1.314830556)

  6- 8  2.312116114   6- 9  2.069201029   7-10  1.875526955
       ( 1.223519152)       ( 1.094974025)       ( 0.992486120)

 Bond angles

  1-2-5  109.45377532   2-1-3  126.25050873   2-1-4  111.66200572   3-1-4  122.08748555

  6- 7-10  109.63640864   7- 6- 8  126.18131936   7- 6- 9  111.86932636   8- 6- 9  121.94935428

 NUCLEAR CHARGE:                   48
 NUMBER OF PRIMITIVE AOS:         250
 NUMBER OF SYMMETRY AOS:          238
 NUMBER OF CONTRACTIONS:          158   ( 112A'  +  46A"  )
 NUMBER OF CORE ORBITALS:           6   (   6A'  +   0A"  )
 NUMBER OF VALENCE ORBITALS:       28   (  22A'  +   6A"  )


 NUCLEAR REPULSION ENERGY  235.53077054


 Eigenvalues of metric

         1 0.779E-03 0.127E-02 0.143E-02 0.198E-02 0.276E-02 0.420E-02 0.474E-02 0.695E-02
         2 0.270E-01 0.379E-01 0.473E-01 0.520E-01 0.617E-01 0.743E-01 0.105E+00 0.138E+00


 Contracted 2-electron integrals neglected if value below      1.0D-16
 AO integral compression algorithm  1   Integral accuracy      1.0D-16

     353.370 MB (compressed) written to integral file ( 94.6%)

     Node minimum: 353.370 MB, node maximum: 353.370 MB


 NUMBER OF SORTED TWO-ELECTRON INTEGRALS:   41131481.     BUFFER LENGTH:  32768
 NUMBER OF SEGMENTS:   3  SEGMENT LENGTH:   15997996      RECORD LENGTH: 524288

 Memory used in sort:      16.56 MW

 SORT1 READ    46708508. AND WROTE    40803118. INTEGRALS IN    118 RECORDS. CPU TIME:     0.53 SEC, REAL TIME:     0.79 SEC
 SORT2 READ    40803118. AND WROTE    41131481. INTEGRALS IN   1348 RECORDS. CPU TIME:     0.34 SEC, REAL TIME:     0.55 SEC

 FILE SIZES:   FILE 1:   319.8 MBYTE,  FILE 4:   495.0 MBYTE,   TOTAL:    814.7 MBYTE

 OPERATOR DM      FOR CENTER  0  COORDINATES:    0.000000    0.000000    0.000000


 **********************************************************************************************************************************
 DATASETS  * FILE   NREC   LENGTH (MB)   RECORD NAMES
              1      19      319.94       500      610      700      900      950      970     1000      129      960     1100   
                                          VAR    BASINP    GEOM    SYMINP    ZMAT    AOBASIS   BASIS     P2S    ABASIS      S 
                                         1400     1410     1200     1210     1080     1600     1650     1300     1700   
                                           T        V       H0       H01     AOSYM     SMH    MOLCAS    ERIS     OPER   

 PROGRAMS   *        TOTAL       INT
 CPU TIMES  *         4.63      4.58
 REAL TIME  *         5.45 SEC
 DISK USED  *         1.17 GB      
 GA USED    *         0.00 MB       (max)       0.00 MB       (current)
 **********************************************************************************************************************************

1PROGRAM * RHF-SCF (CLOSED SHELL)       Authors: W. Meyer, H.-J. Werner


 NUMBER OF ELECTRONS:      24+   24-
 CONVERGENCE THRESHOLDS:    1.00E-10 (Density)    1.00E-13 (Energy)
 MAX. NUMBER OF ITERATIONS:      200
 INTERPOLATION TYPE:            DIIS
 INTERPOLATION STEPS:              2 (START)      1 (STEP)
 LEVEL SHIFTS:                  0.00 (CLOSED)  0.00 (OPEN) 



 Orbital guess generated from atomic densities. Full valence occupancy:   28   6

 Molecular orbital dump at record        2100.2

 Initial alpha occupancy:  20   4
 Initial beta  occupancy:  20   4
 Wave function symmetry:    1

 ITERATION    DDIFF          GRAD             ENERGY        2-EL.EN.            DIPOLE MOMENTS         DIIS
    1      0.000D+00      0.000D+00      -377.47438076    746.306071    0.02532   -0.01421    0.00000    0
    2      0.000D+00      0.943D-02      -377.56260646    743.506666    0.01742   -0.00418    0.00000    1
    3      0.179D-01      0.593D-02      -377.60995434    745.781672    0.01939   -0.00935    0.00000    2
    4      0.668D-02      0.847D-03      -377.61156350    745.384064    0.01832   -0.00809    0.00000    3
    5      0.130D-02      0.359D-03      -377.61184636    745.421339    0.01836   -0.00867    0.00000    4
    6      0.540D-03      0.101D-03      -377.61189012    745.473036    0.01818   -0.00856    0.00000    5
    7      0.181D-03      0.449D-04      -377.61190062    745.455015    0.01817   -0.00860    0.00000    6
    8      0.104D-03      0.141D-04      -377.61190186    745.460527    0.01814   -0.00860    0.00000    7
    9      0.386D-04      0.466D-05      -377.61190198    745.459198    0.01816   -0.00862    0.00000    8
   10      0.125D-04      0.129D-05      -377.61190199    745.459426    0.01814   -0.00861    0.00000    7
   11      0.350D-05      0.395D-06      -377.61190199    745.459359    0.01816   -0.00862    0.00000    8
   12      0.999D-06      0.171D-06      -377.61190199    745.459377    0.01815   -0.00861    0.00000    8
   13      0.311D-06      0.478D-07      -377.61190199    745.459367    0.01815   -0.00861    0.00000    8
   14      0.927D-07      0.151D-07      -377.61190199    745.459369    0.01815   -0.00861    0.00000    8
   15      0.314D-07      0.727D-08      -377.61190199    745.459370    0.01815   -0.00861    0.00000    8
   16      0.126D-07      0.173D-08      -377.61190199    745.459369    0.01815   -0.00861    0.00000    8
   17      0.297D-08      0.612D-09      -377.61190199    745.459369    0.01815   -0.00861    0.00000    8
   18      0.115D-08      0.242D-09      -377.61190199    745.459369    0.01815   -0.00861    0.00000    8
   19      0.431D-09      0.974D-10      -377.61190199    745.459369    0.01815   -0.00861    0.00000    8
   20      0.204D-09      0.441D-10      -377.61190199    745.459369    0.01815   -0.00861    0.00000    8
   21      0.899D-10      0.146D-10      -377.61190199    745.459369    0.01815   -0.00861    0.00000    9
   22      0.326D-10      0.534D-11      -377.61190199    745.459369    0.01815   -0.00861    0.00000    0

 Final occupancy:  20   4

 !RHF STATE 1.1 Energy               -377.611901989950
 Nuclear energy                       235.53077054
 One-electron energy                 -985.87235704
 Two-electron energy                  372.72968451
 Virial quotient                       -1.00164085
 !RHF STATE 1.1 Dipole moment           0.01814878    -0.00861182     0.00000000
 Dipole moment /Debye                   0.04612658    -0.02188762     0.00000000

 Orbital energies:

         1.1          2.1          3.1          4.1          5.1          6.1          7.1          8.1          9.1         10.1
    -20.627002   -20.625502   -20.587801   -20.587410   -11.420603   -11.419194    -1.490364    -1.477564    -1.392135    -1.378173

        11.1         12.1         13.1         14.1         15.1         16.1         17.1         18.1         19.1         20.1
     -0.921916    -0.886141    -0.771408    -0.735479    -0.726742    -0.698114    -0.622434    -0.581944    -0.498046    -0.475641

        21.1         22.1
      0.069480     0.070602

         1.2          2.2          3.2          4.2          5.2          6.2
     -0.645648    -0.635246    -0.506861    -0.495124     0.080710     0.093008


 **********************************************************************************************************************************
 DATASETS  * FILE   NREC   LENGTH (MB)   RECORD NAMES
              1      19      319.94       500      610      700      900      950      970     1000      129      960     1100   
                                          VAR    BASINP    GEOM    SYMINP    ZMAT    AOBASIS   BASIS     P2S    ABASIS      S 
                                         1400     1410     1200     1210     1080     1600     1650     1300     1700   
                                           T        V       H0       H01     AOSYM     SMH    MOLCAS    ERIS     OPER   

              2       3        0.73       700     1000     2100   
                                         GEOM     BASIS     RHF  

 PROGRAMS   *        TOTAL       RHF       INT
 CPU TIMES  *         9.86      5.22      4.58
 REAL TIME  *        11.47 SEC
 DISK USED  *         1.17 GB      
 GA USED    *         0.00 MB       (max)       0.00 MB       (current)
 **********************************************************************************************************************************


1PROGRAM * CCSD (Closed-shell coupled cluster)     Authors: C. Hampel, H.-J. Werner, 1991, M. Deegan, P.J. Knowles, 1992


 Convergence thresholds:  THRVAR = 1.00D-08  THRDEN = 1.00D-12

 CCSD(T)     terms to be evaluated (factor= 1.000)


 Number of core orbitals:           6 (   6   0 )
 Number of closed-shell orbitals:  18 (  14   4 )
 Number of external orbitals:     134 (  92  42 )

 Molecular orbitals read from record     2100.2  Type=RHF/CANONICAL (state 1.1)

 Number of N-1 electron functions:              18
 Number of N-2 electron functions:             171
 Number of singly external CSFs:              1456
 Number of doubly external CSFs:           1518142
 Total number of CSFs:                     1519599

 Length of J-op  integral file:               0.00 MB
 Length of K-op  integral file:               1.05 MB
 Length of 3-ext integral record:             0.00 MB

 Memory could be reduced to 29.62 Mwords without degradation in triples

 Integral transformation finished. Total CPU:   1.59 sec, npass=  1  Memory used:  13.10 MW

 Reference energy:                   -377.61190199

 MP2 singlet pair energy:              -0.63199447
 MP2 triplet pair energy:              -0.43056299
 MP2 correlation energy:               -1.06255745
 MP2 total energy:                   -378.67445944

 SCS-MP2 correlation energy:           -1.02629922   (PS=  1.200000  PT=  0.333333)
 SCS-MP2 total energy:               -378.63820121

 ITER.      SQ.NORM     CORR.ENERGY   TOTAL ENERGY   ENERGY CHANGE        DEN1      VAR(S)    VAR(P)  DIIS     TIME
   1      1.30279314    -1.07991019  -378.69181218    -0.01735274     0.01548954  0.11D-01  0.60D-02  1  1     5.46
   2      1.32738917    -1.08101313  -378.69291512    -0.00110294    -0.02620978  0.24D-03  0.10D-02  2  2     9.43
   3      1.34056995    -1.08186666  -378.69376865    -0.00085353    -0.00594391  0.21D-03  0.45D-04  3  3    13.42
   4      1.34589492    -1.08159842  -378.69350041     0.00026824    -0.00176601  0.18D-04  0.80D-05  4  4    17.41
   5      1.34798266    -1.08150934  -378.69341133     0.00008908    -0.00046826  0.17D-05  0.73D-06  5  5    21.41
   6      1.34836522    -1.08148905  -378.69339104     0.00002029    -0.00002188  0.14D-06  0.84D-07  6  6    25.41
   7      1.34844759    -1.08147959  -378.69338158     0.00000947    -0.00000599  0.12D-07  0.12D-07  6  2    29.40
   8      1.34845339    -1.08148041  -378.69338240    -0.00000082     0.00000232  0.19D-08  0.11D-08  6  1    33.39
   9      1.34845408    -1.08148023  -378.69338222     0.00000018     0.00000127  0.31D-09  0.17D-09  6  4    37.38
  10      1.34845583    -1.08148006  -378.69338205     0.00000017    -0.00000050  0.70D-10  0.23D-10  6  3    41.37
  11      1.34845535    -1.08148018  -378.69338217    -0.00000012     0.00000022  0.16D-10  0.41D-11  6  5    45.37
  12      1.34845509    -1.08148020  -378.69338219    -0.00000002     0.00000004  0.29D-11  0.10D-11  6  6    49.37
  13      1.34845480    -1.08148024  -378.69338223    -0.00000004     0.00000011  0.48D-12  0.20D-12  6  1    53.36
  14      1.34845470    -1.08148024  -378.69338223    -0.00000001     0.00000002  0.66D-13  0.31D-13  6  2    57.35
  15      1.34845468    -1.08148024  -378.69338223    -0.00000000     0.00000000  0.12D-13  0.50D-14  6  4    61.34
  16      1.34845467    -1.08148024  -378.69338223    -0.00000000    -0.00000000  0.24D-14  0.11D-14  6  3    65.33
  17      1.34845467    -1.08148024  -378.69338223     0.00000000    -0.00000000  0.28D-15  0.17D-15  6  6    69.33
  18      1.34845467    -1.08148024  -378.69338223    -0.00000000     0.00000000  0.37D-16  0.17D-16  6  5    73.32
  19      1.34845467    -1.08148024  -378.69338223    -0.00000000     0.00000000  0.91D-17  0.28D-17  6  1    77.31
  20      1.34845467    -1.08148024  -378.69338223     0.00000000    -0.00000000  0.16D-17  0.82D-18  6  5    81.31
  21      1.34845467    -1.08148024  -378.69338223    -0.00000000     0.00000000  0.18D-18  0.93D-19  6  2    85.31
  22      1.34845467    -1.08148024  -378.69338223     0.00000000    -0.00000000  0.14D-19  0.14D-19  6  3    89.31
  23      1.34845467    -1.08148024  -378.69338223     0.00000000     0.00000000  0.26D-20  0.94D-21  6  4    93.31
  24      1.34845467    -1.08148024  -378.69338223     0.00000000     0.00000000  0.90D-21  0.22D-21  6  6    97.30

 Norm of t1 vector:      0.15400764      S-energy:     0.00000000      T1 diagnostic:  0.01814997
                                                                       D1 diagnostic:  0.06239384

 Singles amplitudes (print threshold =  0.500E-01):

         I         SYM. A    A   T(IA)

        16         2         4      0.05258552


 Total CPU time for triples:     89.25 sec


 RESULTS
 =======

  Reference energy                   -377.611901989951
  CCSD singlet pair energy             -0.702940403707
  CCSD triplet pair energy             -0.378539838994
  CCSD correlation energy              -1.081480242697

  Triples (T) contribution             -0.039460602221
  Total correlation energy             -1.120940844918

  CCSD total energy                  -378.693382232648
  CCSD[T] energy                     -378.736490696517
  CCSD-T energy                      -378.731587636590
 !CCSD(T) total energy               -378.732842834869

 Timing summary (sec):

 STEP                 CPU(USER)    SYS     CPU(TOT)    WALL
 Transformation          1.65      0.19      1.84      1.84
 CCSD iterations        95.66      2.68     98.34     98.48
 Triples                89.25      1.97     91.22     91.24

 Program statistics:

 Available memory in ccsd:               999998604
 Min. memory needed in ccsd:               3931458
 Max. memory used in ccsd:                 5315516
 Max. memory used in cckext:               5296012 (24 integral passes)



 **********************************************************************************************************************************
 DATASETS  * FILE   NREC   LENGTH (MB)   RECORD NAMES
              1      20      438.33       500      610      700      900      950      970     1000      129      960     1100   
                                          VAR    BASINP    GEOM    SYMINP    ZMAT    AOBASIS   BASIS     P2S    ABASIS      S 
                                         1400     1410     1200     1210     1080     1600     1650     1300     1700     1380   
                                           T        V       H0       H01     AOSYM     SMH    MOLCAS    ERIS     OPER     JKOP   

              2       3        0.73       700     1000     2100   
                                         GEOM     BASIS     RHF  

 PROGRAMS   *        TOTAL   CCSD(T)       RHF       INT
 CPU TIMES  *       196.43    186.57      5.22      4.58
 REAL TIME  *       203.08 SEC
 DISK USED  *         1.17 GB      
 GA USED    *         0.00 MB       (max)       0.00 MB       (current)
 **********************************************************************************************************************************

        CCSD(T)         RHF-SCF 
   -378.73284283   -377.61190199
 **********************************************************************************************************************************
 Variable memory released
