
 Primary working directories    : /tmp/1049102.1347.gen6.q
 Secondary working directories  : /tmp/1049102.1347.gen6.q
 Wavefunction directory         : /home/vulcan/mel64643/wfu/
 Main file repository           : /tmp/1049102.1347.gen6.q/

 ARCHNAME  : Linux/x86_64
 FC        : /opt/intel/compilers_and_libraries_2016.1.150/linux/bin/intel64/ifort
 FCVERSION : 16.0.1
 BLASLIB   : -mkl
 id        : ccgc

 Nodes     nprocs
 n085         1
 ga_uses_ma=false, calling ma_init with nominal heap.
 GA-space will be limited to   8.0 MW (determined by -G option)

 Using customized tuning parameters: mindgm=10; mindgv=16; mindgc=4; mindgr=1; noblas=0; mincuda=1000; minvec=7
 default implementation of scratch files=df  

 ***,Optimization of h2o_3
 memory,1000,m
 gthresh,energy=1.0d-12,orbital=1.0d-10,oneint=1.0d-16,twoint=1.0d-16,optgrad=1.0d-6,compress=1.0d-13
 geomtyp=xyz
 
 
 
 bohr
 geometry = {
  C    0.9157464046    1.4040269183   -2.2738046436
  C    0.7402364450    2.7078197304    0.0177069369
  C    0.9988604113    1.4043870048    2.3016989573
  C    1.4313961239   -1.2028905077    2.2941807313
  C    1.6076334142   -2.5061918887    0.0027112813
  C    1.3490679906   -1.2025355793   -2.2810766241
  H    0.7050856514    2.4204148350   -4.0393640134
  H    0.3895815889    4.7253975379    0.0277581320
  H    0.8569565808    2.4179666975    4.0759472656
  H    1.6281007425   -2.2060519941    4.0693051475
  H    1.9409322930   -4.5272129758    0.0010288759
  H    1.4826165991   -2.2095857783   -4.0599720574
  N   -5.4426083192   -0.3578188841   -0.0709260920
  H   -5.5915990077   -1.5691675989   -1.5513753590
  H   -6.0692210178   -1.3158624447    1.4687653013
  H   -3.5618540337   -0.0744846704    0.1974938376
 }
 
 basis=aug-cc-pvdz, H=cc-pvdz
 {rhf;maxit,200}
 {ccsd(t)}

 Variables initialized (661), CPU time= 0.00 sec
 Commands  initialized (458), CPU time= 0.00 sec, 486 directives.
 Default parameters read. Elapsed time= 0.05 sec

 Checking input...
 Passed
1


                                         ***  PROGRAM SYSTEM MOLPRO  ***
                         Copyright, University College Cardiff Consultants Limited, 2008

                                    Version 2010.1 linked May 16 2016 07:17:05


 **********************************************************************************************************************************
 LABEL *   Optimization of h2o_3                                                         
 Linux-4.4.3/n085(x86_64) 64 bit mpp version                                             DATE: 20-Mar-24          TIME: 23:23:37  
 **********************************************************************************************************************************

 SHA1:             9e8077add272b0f3cad6f7df79ec5211205f459d
 **********************************************************************************************************************************

 THRESHOLDS:

 ZERO    =  1.00D-12  ONEINT  =  1.00D-16  TWOINT  =  1.00D-16  PREFAC  =  1.00D-14  LOCALI  =  1.00D-09  EORDER  =  1.00D-04
 ENERGY  =  1.00D-12  ETEST   =  0.00D+00  EDENS   =  0.00D+00  THRDEDEF=  1.00D-06  GRADIENT=  1.00D-02  STEP    =  1.00D-03
 ORBITAL =  1.00D-10  CIVEC   =  1.00D-05  COEFF   =  1.00D-04  PRINTCI =  5.00D-02  PUNCHCI =  9.90D+01  OPTGRAD =  1.00D-06
 OPTENERG=  1.00D-06  OPTSTEP =  3.00D-04  THRGRAD =  1.00D-10  COMPRESS=  1.00D-13  VARMIN  =  1.00D-07  VARMAX  =  1.00D-03
 THRDOUB =  0.00D+00  THRDIV  =  1.00D-05  THRRED  =  1.00D-07  THRPSP  =  1.00D+00  THRDC   =  1.00D-10  THRCS   =  1.00D-10
 THRNRM  =  1.00D-08  THREQ   =  0.00D+00  THRDE   =  1.00D+00  THRREF  =  1.00D-05  SPARFAC =  1.00D+00  THRDLP  =  1.00D-07
 THRDIA  =  1.00D-10  THRDLS  =  1.00D-07  THRGPS  =  0.00D+00  THRKEX  =  0.00D+00  THRDIS  =  2.00D-01  THRVAR  =  1.00D-10
 THRLOC  =  1.00D-06  THRGAP  =  1.00D-06  THRLOCT = -1.00D+00  THRGAPT = -1.00D+00  THRORB  =  1.00D-06  THRMLTP =  0.00D+00
 THRCPQCI=  1.00D-10  KEXTA   =  0.00D+00  THRCOARS=  0.00D+00  SYMTOL  =  1.00D-06  GRADTOL =  1.00D-06  THROVL  =  1.00D-08
 THRORTH =  1.00D-08  GRID    =  1.00D-06  GRIDMAX =  1.00D-03  DTMAX   =  0.00D+00

 SETTING GEOMTYP        =    XYZ
 ZUNIT=BOHR
 

 Variable memory set to 1000000000 words,  buffer space   230000 words

 SETTING BASIS          =    AUG-CC-PVDZ,H=CC-PVDZ


 Recomputing integrals since basis changed


 Using spherical harmonics

 Library entry C      S aug-cc-pVDZ          selected for orbital group  1
 Library entry C      P aug-cc-pVDZ          selected for orbital group  1
 Library entry C      D aug-cc-pVDZ          selected for orbital group  1
 Library entry H      S cc-pVDZ              selected for orbital group  2
 Library entry H      P cc-pVDZ              selected for orbital group  2
 Library entry N      S aug-cc-pVDZ          selected for orbital group  3
 Library entry N      P aug-cc-pVDZ          selected for orbital group  3
 Library entry N      D aug-cc-pVDZ          selected for orbital group  3

1PROGRAM * SEWARD (Integral evaluation for generally contracted gaussian basis sets)     Author: Roland Lindh, 1990

 Geometry written to block  1 of record 700


 Point group  C1  



 ATOMIC COORDINATES

 NR  ATOM    CHARGE       X              Y              Z

   1  C       6.00    0.915746405    1.404026918   -2.273804644
   2  C       6.00    0.740236445    2.707819730    0.017706937
   3  C       6.00    0.998860411    1.404387005    2.301698957
   4  C       6.00    1.431396124   -1.202890508    2.294180731
   5  C       6.00    1.607633414   -2.506191889    0.002711281
   6  C       6.00    1.349067991   -1.202535579   -2.281076624
   7  H       1.00    0.705085651    2.420414835   -4.039364013
   8  H       1.00    0.389581589    4.725397538    0.027758132
   9  H       1.00    0.856956581    2.417966697    4.075947266
  10  H       1.00    1.628100743   -2.206051994    4.069305147
  11  H       1.00    1.940932293   -4.527212976    0.001028876
  12  H       1.00    1.482616599   -2.209585778   -4.059972057
  13  N       7.00   -5.442608319   -0.357818884   -0.070926092
  14  H       1.00   -5.591599008   -1.569167599   -1.551375359
  15  H       1.00   -6.069221018   -1.315862445    1.468765301
  16  H       1.00   -3.561854034   -0.074484670    0.197493838

 Bond lengths in Bohr (Angstrom)

 1-2  2.642291575  1-6  2.642345271  1-7  2.048077693  2-3  2.642431224  2-8  2.047847666
     ( 1.398240481)     ( 1.398268896)     ( 1.083796038)     ( 1.398314380)     ( 1.083674312)

  3- 4  2.642922567   3- 9  2.048276727   4- 5  2.642060997   4-10  2.048436567   5- 6  2.642359372
       ( 1.398574387)       ( 1.083901362)       ( 1.398118464)       ( 1.083985945)       ( 1.398276357)

  5-11  2.048320582   6-12  2.048524908  13-14  1.918669843  13-15  1.918629856  13-16  1.920823838
       ( 1.083924569)       ( 1.084032693)       ( 1.015316352)       ( 1.015295192)       ( 1.016456198)

 Bond angles

  1- 2- 3  119.98067146   1- 2- 8  120.11712850   1- 6- 5  120.02353157   1- 6-12  119.86918057

  2-1-6  120.00199192   2-1-7  119.72967378   2-3-4  120.01167955   2-3-9  119.85734420

  3- 2- 8  119.90052302   3- 4- 5  120.00136222   3- 4-10  119.75987511   4- 3- 9  120.13064454

  4- 5- 6  119.98073535   4- 5-11  119.88637779   5- 4-10  120.23875796   5- 6-12  120.10727332

  6- 1- 7  120.26759439   6- 5-11  120.13277286  14-13-15  106.17607583  14-13-16  106.08043224

 15-13-16  106.33745551

 NUCLEAR CHARGE:                   52
 NUMBER OF PRIMITIVE AOS:         322
 NUMBER OF SYMMETRY AOS:          308
 NUMBER OF CONTRACTIONS:          206   ( 206A   )
 NUMBER OF CORE ORBITALS:           7   (   7A   )
 NUMBER OF VALENCE ORBITALS:       37   (  37A   )


 NUCLEAR REPULSION ENERGY  273.71057343


 Eigenvalues of metric

         1 0.861E-05 0.184E-04 0.228E-04 0.532E-04 0.642E-04 0.644E-04 0.107E-03 0.107E-03


 Contracted 2-electron integrals neglected if value below      1.0D-16
 AO integral compression algorithm  1   Integral accuracy      1.0D-16

     1892.155 MB (compressed) written to integral file ( 94.5%)

     Node minimum: 1892.155 MB, node maximum: 1892.155 MB


 NUMBER OF SORTED TWO-ELECTRON INTEGRALS:  227303181.     BUFFER LENGTH:  32768
 NUMBER OF SEGMENTS:  15  SEGMENT LENGTH:   15999503      RECORD LENGTH: 524288

 Memory used in sort:      16.56 MW

 SORT1 READ   250230103. AND WROTE   226408048. INTEGRALS IN    654 RECORDS. CPU TIME:     2.21 SEC, REAL TIME:     3.42 SEC
 SORT2 READ   226408048. AND WROTE   227303181. INTEGRALS IN   7218 RECORDS. CPU TIME:     1.55 SEC, REAL TIME:     2.34 SEC

 FILE SIZES:   FILE 1:  1743.0 MBYTE,  FILE 4:  2743.1 MBYTE,   TOTAL:   4486.2 MBYTE

 OPERATOR DM      FOR CENTER  0  COORDINATES:    0.000000    0.000000    0.000000


 **********************************************************************************************************************************
 DATASETS  * FILE   NREC   LENGTH (MB)   RECORD NAMES
              1      19     1743.56       500      610      700      900      950      970     1000      129      960     1100   
                                          VAR    BASINP    GEOM    SYMINP    ZMAT    AOBASIS   BASIS     P2S    ABASIS      S 
                                         1400     1410     1200     1210     1080     1600     1650     1300     1700   
                                           T        V       H0       H01     AOSYM     SMH    MOLCAS    ERIS     OPER   

 PROGRAMS   *        TOTAL       INT
 CPU TIMES  *        12.74     12.70
 REAL TIME  *        16.12 SEC
 DISK USED  *         6.38 GB      
 GA USED    *         0.01 MB       (max)       0.00 MB       (current)
 **********************************************************************************************************************************

1PROGRAM * RHF-SCF (CLOSED SHELL)       Authors: W. Meyer, H.-J. Werner


 NUMBER OF ELECTRONS:      26+   26-    SPACE SYMMETRY=1    SPIN SYMMETRY: Singlet 
 CONVERGENCE THRESHOLDS:    1.00E-10 (Density)    1.00E-13 (Energy)
 MAX. NUMBER OF ITERATIONS:      200
 INTERPOLATION TYPE:            DIIS
 INTERPOLATION STEPS:              2 (START)      1 (STEP)
 LEVEL SHIFTS:                  0.00 (CLOSED)  0.00 (OPEN) 



 Orbital guess generated from atomic densities. Full valence occupancy:   44

 Molecular orbital dump at record        2100.2

 ITERATION    DDIFF          GRAD             ENERGY        2-EL.EN.            DIPOLE MOMENTS         DIIS
    1      0.000D+00      0.000D+00      -286.85324194    740.883490    0.51921   -0.76703    0.13677    0
    2      0.000D+00      0.322D-02      -286.92079799    735.093136    0.43472   -0.38213    0.06361    1
    3      0.826D-02      0.133D-02      -286.93012687    737.724859    0.45142   -0.52176    0.09300    2
    4      0.218D-02      0.381D-03      -286.93134502    737.205235    0.44993   -0.49450    0.08551    3
    5      0.783D-03      0.527D-04      -286.93136887    737.193886    0.45579   -0.50486    0.08933    4
    6      0.135D-03      0.178D-04      -286.93137132    737.208796    0.45463   -0.49924    0.08733    5
    7      0.512D-04      0.556D-05      -286.93137160    737.205752    0.45529   -0.50147    0.08805    6
    8      0.150D-04      0.129D-05      -286.93137162    737.204737    0.45544   -0.50111    0.08792    7
    9      0.417D-05      0.542D-06      -286.93137162    737.205195    0.45547   -0.50120    0.08795    7
   10      0.148D-05      0.143D-06      -286.93137163    737.205144    0.45548   -0.50121    0.08795    7
   11      0.516D-06      0.410D-07      -286.93137163    737.205129    0.45549   -0.50121    0.08795    7
   12      0.142D-06      0.175D-07      -286.93137163    737.205143    0.45548   -0.50121    0.08795    8
   13      0.613D-07      0.763D-08      -286.93137163    737.205138    0.45548   -0.50121    0.08795    8
   14      0.339D-07      0.363D-08      -286.93137163    737.205140    0.45548   -0.50121    0.08795    8
   15      0.202D-07      0.138D-08      -286.93137163    737.205139    0.45548   -0.50121    0.08795    8
   16      0.713D-08      0.457D-09      -286.93137163    737.205139    0.45548   -0.50121    0.08795    9
   17      0.211D-08      0.125D-09      -286.93137163    737.205139    0.45548   -0.50121    0.08795    9
   18      0.402D-09      0.383D-10      -286.93137163    737.205139    0.45548   -0.50121    0.08795    8
   19      0.233D-09      0.154D-10      -286.93137163    737.205139    0.45548   -0.50121    0.08795    9
   20      0.150D-09      0.819D-11      -286.93137163    737.205139    0.45548   -0.50121    0.08795    9
   21      0.120D-09      0.411D-11      -286.93137163    737.205139    0.45548   -0.50121    0.08795    9
   22      0.157D-09      0.121D-11      -286.93137163    737.205139    0.45548   -0.50121    0.08795    9
   23      0.112D-09      0.758D-12      -286.93137163    737.205139    0.45548   -0.50121    0.08795    9
   24      0.895D-10      0.701D-12      -286.93137163    737.205139    0.45548   -0.50121    0.08795    0

 Final occupancy:  26

 !RHF STATE 1.1 Energy               -286.931371625287
 Nuclear energy                       273.71057343
 One-electron energy                 -929.24451475
 Two-electron energy                  368.60256969
 Virial quotient                       -1.00146532
 !RHF STATE 1.1 Dipole moment           0.45548414    -0.50120874     0.08794962
 Dipole moment /Debye                   1.15764938    -1.27386211     0.22353099

 Orbital energies:

         1.1          2.1          3.1          4.1          5.1          6.1          7.1          8.1          9.1         10.1
    -15.535005   -11.250700   -11.250062   -11.249636   -11.248839   -11.248639   -11.247743    -1.157502    -1.125560    -1.022055

        11.1         12.1         13.1         14.1         15.1         16.1         17.1         18.1         19.1         20.1
     -1.021950    -0.830636    -0.830540    -0.714502    -0.650449    -0.623925    -0.611678    -0.609819    -0.593578    -0.593455

        21.1         22.1         23.1         24.1         25.1         26.1         27.1         28.1
     -0.504903    -0.500094    -0.500022    -0.413435    -0.342975    -0.341989     0.063906     0.066422


 **********************************************************************************************************************************
 DATASETS  * FILE   NREC   LENGTH (MB)   RECORD NAMES
              1      19     1743.56       500      610      700      900      950      970     1000      129      960     1100   
                                          VAR    BASINP    GEOM    SYMINP    ZMAT    AOBASIS   BASIS     P2S    ABASIS      S 
                                         1400     1410     1200     1210     1080     1600     1650     1300     1700   
                                           T        V       H0       H01     AOSYM     SMH    MOLCAS    ERIS     OPER   

              2       3        1.40       700     1000     2100   
                                         GEOM     BASIS     RHF  

 PROGRAMS   *        TOTAL       RHF       INT
 CPU TIMES  *        49.12     36.38     12.70
 REAL TIME  *        56.25 SEC
 DISK USED  *         6.38 GB      
 GA USED    *         0.01 MB       (max)       0.00 MB       (current)
 **********************************************************************************************************************************


1PROGRAM * CCSD (Closed-shell coupled cluster)     Authors: C. Hampel, H.-J. Werner, 1991, M. Deegan, P.J. Knowles, 1992


 Convergence thresholds:  THRVAR = 1.00D-08  THRDEN = 1.00D-12

 CCSD(T)     terms to be evaluated (factor= 1.000)


 Number of core orbitals:           7 (   7 )
 Number of closed-shell orbitals:  19 (  19 )
 Number of external orbitals:     180 ( 180 )

 Molecular orbitals read from record     2100.2  Type=RHF/CANONICAL (state 1.1)

 Number of N-1 electron functions:              19
 Number of N-2 electron functions:             190
 Number of singly external CSFs:              3420
 Number of doubly external CSFs:           5849910
 Total number of CSFs:                     5853331

 Length of J-op  integral file:               0.00 MB
 Length of K-op  integral file:               2.96 MB
 Length of 3-ext integral record:             0.00 MB

 Memory could be reduced to 140.12 Mwords without degradation in triples

 Integral transformation finished. Total CPU:  10.46 sec, npass=  1  Memory used: 101.90 MW

 Reference energy:                   -286.93137163

 MP2 singlet pair energy:              -0.62063179
 MP2 triplet pair energy:              -0.38983407
 MP2 correlation energy:               -1.01046586
 MP2 total energy:                   -287.94183749

 SCS-MP2 correlation energy:           -0.98732157   (PS=  1.200000  PT=  0.333333)
 SCS-MP2 total energy:               -287.91869320

 ITER.      SQ.NORM     CORR.ENERGY   TOTAL ENERGY   ENERGY CHANGE        DEN1      VAR(S)    VAR(P)  DIIS     TIME
   1      1.38488219    -1.05475800  -287.98612962    -0.04429213    -0.01721360  0.36D-02  0.80D-02  1  1    43.58
   2      1.41439483    -1.06062060  -287.99199223    -0.00586261    -0.02705282  0.63D-04  0.10D-02  2  2    77.05
   3      1.42352581    -1.06071633  -287.99208795    -0.00009572    -0.00464346  0.27D-04  0.84D-04  3  3   110.51
   4      1.42746306    -1.06088507  -287.99225670    -0.00016874    -0.00121413  0.22D-05  0.11D-04  4  4   144.00
   5      1.42867663    -1.06091602  -287.99228765    -0.00003095    -0.00027320  0.27D-06  0.13D-05  5  5   177.51
   6      1.42897920    -1.06090579  -287.99227741     0.00001023    -0.00004348  0.23D-07  0.79D-07  6  6   211.01
   7      1.42901994    -1.06090742  -287.99227904    -0.00000163    -0.00000103  0.35D-08  0.82D-08  6  2   244.53
   8      1.42902913    -1.06090727  -287.99227890     0.00000014    -0.00000117  0.76D-09  0.76D-09  6  1   278.04
   9      1.42902896    -1.06090741  -287.99227903    -0.00000014     0.00000123  0.21D-09  0.92D-10  6  4   311.57
  10      1.42903016    -1.06090742  -287.99227905    -0.00000001    -0.00000018  0.57D-10  0.15D-10  6  3   345.11
  11      1.42903010    -1.06090744  -287.99227906    -0.00000002     0.00000013  0.14D-10  0.37D-11  6  5   378.60
  12      1.42903006    -1.06090744  -287.99227906    -0.00000000     0.00000003  0.15D-11  0.10D-11  6  6   412.11
  13      1.42902989    -1.06090744  -287.99227907    -0.00000000     0.00000006  0.69D-13  0.20D-12  6  2   445.61
  14      1.42902978    -1.06090744  -287.99227907    -0.00000000     0.00000003  0.81D-14  0.40D-13  6  1   479.14
  15      1.42902973    -1.06090744  -287.99227907    -0.00000000     0.00000001  0.89D-15  0.54D-14  6  3   512.64
  16      1.42902971    -1.06090744  -287.99227907    -0.00000000     0.00000000  0.12D-15  0.37D-15  6  4   546.16
  17      1.42902970    -1.06090744  -287.99227907    -0.00000000     0.00000000  0.31D-16  0.44D-16  6  5   579.68
  18      1.42902970    -1.06090744  -287.99227907    -0.00000000     0.00000000  0.82D-17  0.71D-17  6  6   613.18
  19      1.42902970    -1.06090744  -287.99227907    -0.00000000     0.00000000  0.24D-17  0.77D-18  6  2   646.65
  20      1.42902970    -1.06090744  -287.99227907    -0.00000000     0.00000000  0.77D-18  0.19D-18  6  1   680.17
  21      1.42902970    -1.06090744  -287.99227907    -0.00000000     0.00000000  0.29D-18  0.78D-19  6  3   713.67
  22      1.42902970    -1.06090744  -287.99227907    -0.00000000     0.00000000  0.12D-18  0.38D-19  6  4   747.18
  23      1.42902970    -1.06090744  -287.99227907    -0.00000000     0.00000000  0.54D-19  0.21D-19  6  6   780.71

 Norm of t1 vector:      0.08385630      S-energy:    -0.00000000      T1 diagnostic:  0.00961898
                                                                       D1 diagnostic:  0.02619436

 Doubles amplitudes (print threshold =  0.500E-01):

         I         J         SYM. A    SYM. B    A         B      T(IJ, AB)

        18        18         1         1         6         6     -0.05119622
        19        19         1         1         7         7     -0.05458052


 Total CPU time for triples:    679.83 sec


 RESULTS
 =======

  Reference energy                   -286.931371625289
  CCSD singlet pair energy             -0.711155889416
  CCSD triplet pair energy             -0.349751554688
  CCSD correlation energy              -1.060907444104

  Triples (T) contribution             -0.045602685111
  Total correlation energy             -1.106510129215

  CCSD total energy                  -287.992279069393
  CCSD[T] energy                     -288.038751957041
  CCSD-T energy                      -288.037493215291
 !CCSD(T) total energy               -288.037881754504

 Timing summary (sec):

 STEP                 CPU(USER)    SYS     CPU(TOT)    WALL
 Transformation         10.80      0.76     11.56     11.57
 CCSD iterations       769.92     11.30    781.22    783.47
 Triples               679.83      9.43    689.26    689.35

 Program statistics:

 Available memory in ccsd:               999998456
 Min. memory needed in ccsd:              14392275
 Max. memory used in ccsd:                19775697
 Max. memory used in cckext:              16737545 (23 integral passes)



 **********************************************************************************************************************************
 DATASETS  * FILE   NREC   LENGTH (MB)   RECORD NAMES
              1      20     2287.16       500      610      700      900      950      970     1000      129      960     1100   
                                          VAR    BASINP    GEOM    SYMINP    ZMAT    AOBASIS   BASIS     P2S    ABASIS      S 
                                         1400     1410     1200     1210     1080     1600     1650     1300     1700     1380   
                                           T        V       H0       H01     AOSYM     SMH    MOLCAS    ERIS     OPER     JKOP   

              2       3        1.40       700     1000     2100   
                                         GEOM     BASIS     RHF  

 PROGRAMS   *        TOTAL   CCSD(T)       RHF       INT
 CPU TIMES  *      1509.68   1460.56     36.38     12.70
 REAL TIME  *      1540.75 SEC
 DISK USED  *         6.38 GB      
 GA USED    *         0.01 MB       (max)       0.00 MB       (current)
 **********************************************************************************************************************************

        CCSD(T)         RHF-SCF 
   -288.03788175   -286.93137163
 **********************************************************************************************************************************
 Variable memory released
