
 Primary working directories    : /tmp/999602.210.gen6.q
 Secondary working directories  : /tmp/999602.210.gen6.q
 Wavefunction directory         : /home/vulcan/jj04645/wfu/
 Main file repository           : /tmp/999602.210.gen6.q/

 ARCHNAME  : Linux/x86_64
 FC        : /opt/intel/compilers_and_libraries_2016.1.150/linux/bin/intel64/ifort
 FCVERSION : 16.0.1
 BLASLIB   : -mkl
 id        : ccgc

 Nodes     nprocs
 n076         1
 ga_uses_ma=false, calling ma_init with nominal heap.
 GA-space will be limited to   8.0 MW (determined by -G option)

 Using customized tuning parameters: mindgm=10; mindgv=16; mindgc=4; mindgr=1; noblas=0; mincuda=1000; minvec=7
 default implementation of scratch files=df  

 ***,Optimization of 1,3-difluorobenzene
 memory,1000,m
 gthresh,energy=1.0d-12,orbital=1.0d-10,oneint=1.0d-16,twoint=1.0d-16,optgrad=1.0d-6,compress=1.0d-13
 geomtyp=xyz
 
 bohr
 geometry = {
  F   -0.0000000000    4.4318387063   -1.7692933003
  C   -0.0000000000    2.2428646160   -0.4853864530
  C    0.0000000000   -2.2956983178    2.1428489419
  C   -0.0000000000   -0.0026089130   -1.8493045617
  C   -0.0000000000    2.3034635161    2.1457416107
  C   -0.0000000000    0.0001924245    3.4448979899
  C    0.0000000000   -2.2379239700   -0.4783402511
  H   -0.0000000000   -0.0070058430   -3.8906958194
  H   -0.0000000000    4.0926208292    3.1308128585
  H   -0.0000000000   -0.0021883030    5.4899144932
  F    0.0000000000   -4.4302911406   -1.7564445309
  H    0.0000000000   -4.0952636045    3.1087754578
 }
 
 basis=VDZ
 {rhf;maxit,200}
 {ccsd(t);maxit,200}

 Variables initialized (661), CPU time= 0.01 sec
 Commands  initialized (458), CPU time= 0.00 sec, 486 directives.
 Default parameters read. Elapsed time= 0.04 sec

 Checking input...
 Passed
1


                                         ***  PROGRAM SYSTEM MOLPRO  ***
                         Copyright, University College Cardiff Consultants Limited, 2008

                                    Version 2010.1 linked May 16 2016 07:17:05


 **********************************************************************************************************************************
 LABEL *   Optimization of 1,3-difluorobenzene                                           
 Linux-4.4.3/n076(x86_64) 64 bit mpp version                                             DATE: 07-Feb-24          TIME: 12:51:52  
 **********************************************************************************************************************************

 SHA1:             9e8077add272b0f3cad6f7df79ec5211205f459d
 **********************************************************************************************************************************

 THRESHOLDS:

 ZERO    =  1.00D-12  ONEINT  =  1.00D-16  TWOINT  =  1.00D-16  PREFAC  =  1.00D-14  LOCALI  =  1.00D-09  EORDER  =  1.00D-04
 ENERGY  =  1.00D-12  ETEST   =  0.00D+00  EDENS   =  0.00D+00  THRDEDEF=  1.00D-06  GRADIENT=  1.00D-02  STEP    =  1.00D-03
 ORBITAL =  1.00D-10  CIVEC   =  1.00D-05  COEFF   =  1.00D-04  PRINTCI =  5.00D-02  PUNCHCI =  9.90D+01  OPTGRAD =  1.00D-06
 OPTENERG=  1.00D-06  OPTSTEP =  3.00D-04  THRGRAD =  1.00D-10  COMPRESS=  1.00D-13  VARMIN  =  1.00D-07  VARMAX  =  1.00D-03
 THRDOUB =  0.00D+00  THRDIV  =  1.00D-05  THRRED  =  1.00D-07  THRPSP  =  1.00D+00  THRDC   =  1.00D-10  THRCS   =  1.00D-10
 THRNRM  =  1.00D-08  THREQ   =  0.00D+00  THRDE   =  1.00D+00  THRREF  =  1.00D-05  SPARFAC =  1.00D+00  THRDLP  =  1.00D-07
 THRDIA  =  1.00D-10  THRDLS  =  1.00D-07  THRGPS  =  0.00D+00  THRKEX  =  0.00D+00  THRDIS  =  2.00D-01  THRVAR  =  1.00D-10
 THRLOC  =  1.00D-06  THRGAP  =  1.00D-06  THRLOCT = -1.00D+00  THRGAPT = -1.00D+00  THRORB  =  1.00D-06  THRMLTP =  0.00D+00
 THRCPQCI=  1.00D-10  KEXTA   =  0.00D+00  THRCOARS=  0.00D+00  SYMTOL  =  1.00D-06  GRADTOL =  1.00D-06  THROVL  =  1.00D-08
 THRORTH =  1.00D-08  GRID    =  1.00D-06  GRIDMAX =  1.00D-03  DTMAX   =  0.00D+00

 SETTING GEOMTYP        =    XYZ
 ZUNIT=BOHR
 

 Variable memory set to 1000000000 words,  buffer space   230000 words

 SETTING BASIS          =    VDZ


 Recomputing integrals since basis changed


 Using spherical harmonics

 Library entry F      S cc-pVDZ              selected for orbital group  1
 Library entry F      P cc-pVDZ              selected for orbital group  1
 Library entry F      D cc-pVDZ              selected for orbital group  1
 Library entry C      S cc-pVDZ              selected for orbital group  2
 Library entry C      P cc-pVDZ              selected for orbital group  2
 Library entry C      D cc-pVDZ              selected for orbital group  2
 Library entry H      S cc-pVDZ              selected for orbital group  3
 Library entry H      P cc-pVDZ              selected for orbital group  3

1PROGRAM * SEWARD (Integral evaluation for generally contracted gaussian basis sets)     Author: Roland Lindh, 1990

 Geometry written to block  1 of record 700


 Point group  Cs  



 ATOMIC COORDINATES

 NR  ATOM    CHARGE       X              Y              Z

   1  F       9.00    0.000000000    4.431838706   -1.769293300
   2  C       6.00    0.000000000    2.242864616   -0.485386453
   3  C       6.00    0.000000000   -2.295698318    2.142848942
   4  C       6.00    0.000000000   -0.002608913   -1.849304562
   5  C       6.00    0.000000000    2.303463516    2.145741611
   6  C       6.00    0.000000000    0.000192424    3.444897990
   7  C       6.00    0.000000000   -2.237923970   -0.478340251
   8  H       1.00    0.000000000   -0.007005843   -3.890695819
   9  H       1.00    0.000000000    4.092620829    3.130812859
  10  H       1.00    0.000000000   -0.002188303    5.489914493
  11  F       9.00    0.000000000   -4.430291141   -1.756444531
  12  H       1.00    0.000000000   -4.095263605    3.108775458

 Bond lengths in Bohr (Angstrom)

 1-2  2.537720308  2-4  2.627246463  2-5  2.631825814  3-6  2.639402588  3-7  2.621825826
     ( 1.342903750)     ( 1.390278951)     ( 1.392702239)     ( 1.396711695)     ( 1.387410473)

  3-12  2.042412607   4- 7  2.622246469   4- 8  2.041395993   5- 6  2.644402583   5- 9  2.042412606
       ( 1.080798203)       ( 1.387633068)       ( 1.080260234)       ( 1.399357578)       ( 1.080798203)

  6-10  2.045017889   7-11  2.537720308
       ( 1.082176859)       ( 1.342903750)

 Bond angles

  1-2-4  118.33212332   1-2-5  119.07367917   2-4-7  117.20354009   2-4-8  121.39822995

  2- 5- 6  118.10572611   2- 5- 9  120.15560390   3- 6- 5  121.01639265   3- 6-10  119.49180368

  3- 7- 4  122.78430601   3- 7-11  118.97862492   4- 2- 5  122.59419751   4- 7-11  118.23706907

  5- 6-10  119.49180367   6- 3- 7  118.29583763   6- 3-12  122.21657203   6- 5- 9  121.73866999

  7- 3-12  119.48759034   7- 4- 8  121.39822996

 NUCLEAR CHARGE:                   58
 NUMBER OF PRIMITIVE AOS:         244
 NUMBER OF SYMMETRY AOS:          236
 NUMBER OF CONTRACTIONS:          132   (  96A'  +  36A"  )
 NUMBER OF CORE ORBITALS:           8   (   8A'  +   0A"  )
 NUMBER OF VALENCE ORBITALS:       36   (  28A'  +   8A"  )


 NUCLEAR REPULSION ENERGY  342.39456019


 Eigenvalues of metric

         1 0.395E-03 0.120E-02 0.169E-02 0.264E-02 0.306E-02 0.316E-02 0.125E-01 0.130E-01
         2 0.413E-01 0.907E-01 0.101E+00 0.162E+00 0.166E+00 0.185E+00 0.190E+00 0.214E+00


 Contracted 2-electron integrals neglected if value below      1.0D-16
 AO integral compression algorithm  1   Integral accuracy      1.0D-16

     155.976 MB (compressed) written to integral file ( 89.6%)

     Node minimum: 155.976 MB, node maximum: 155.976 MB


 NUMBER OF SORTED TWO-ELECTRON INTEGRALS:   20366295.     BUFFER LENGTH:  32768
 NUMBER OF SEGMENTS:   2  SEGMENT LENGTH:   15994311      RECORD LENGTH: 524288

 Memory used in sort:      16.55 MW

 SORT1 READ    21748561. AND WROTE    19841636. INTEGRALS IN     57 RECORDS. CPU TIME:     0.25 SEC, REAL TIME:     0.37 SEC
 SORT2 READ    19841636. AND WROTE    20366295. INTEGRALS IN    595 RECORDS. CPU TIME:     0.18 SEC, REAL TIME:     0.25 SEC

 FILE SIZES:   FILE 1:   148.2 MBYTE,  FILE 4:   239.1 MBYTE,   TOTAL:    387.3 MBYTE

 OPERATOR DM      FOR CENTER  0  COORDINATES:    0.000000    0.000000    0.000000


 **********************************************************************************************************************************
 DATASETS  * FILE   NREC   LENGTH (MB)   RECORD NAMES
              1      19      148.32       500      610      700      900      950      970     1000      129      960     1100   
                                          VAR    BASINP    GEOM    SYMINP    ZMAT    AOBASIS   BASIS     P2S    ABASIS      S 
                                         1400     1410     1200     1210     1080     1600     1650     1300     1700   
                                           T        V       H0       H01     AOSYM     SMH    MOLCAS    ERIS     OPER   

 PROGRAMS   *        TOTAL       INT
 CPU TIMES  *         3.55      3.51
 REAL TIME  *         4.02 SEC
 DISK USED  *       544.15 MB      
 GA USED    *         0.00 MB       (max)       0.00 MB       (current)
 **********************************************************************************************************************************

1PROGRAM * RHF-SCF (CLOSED SHELL)       Authors: W. Meyer, H.-J. Werner


 NUMBER OF ELECTRONS:      29+   29-
 CONVERGENCE THRESHOLDS:    1.00E-10 (Density)    1.00E-13 (Energy)
 MAX. NUMBER OF ITERATIONS:      200
 INTERPOLATION TYPE:            DIIS
 INTERPOLATION STEPS:              2 (START)      1 (STEP)
 LEVEL SHIFTS:                  0.00 (CLOSED)  0.00 (OPEN) 



 Orbital guess generated from atomic densities. Full valence occupancy:   36   8

 Molecular orbital dump at record        2100.2

 Initial alpha occupancy:  24   5
 Initial beta  occupancy:  24   5
 Wave function symmetry:    1

 ITERATION    DDIFF          GRAD             ENERGY        2-EL.EN.            DIPOLE MOMENTS         DIIS
    1      0.000D+00      0.000D+00      -428.34407794    993.126213    0.00000    0.01063    0.47957    0
    2      0.000D+00      0.778D-02      -428.41811739    992.660671    0.00000   -0.00609    0.92229    1
    3      0.159D-01      0.352D-02      -428.43188780    992.995552    0.00000    0.00271    0.62196    2
    4      0.505D-02      0.935D-03      -428.43344047    993.052002    0.00000   -0.00009    0.73490    3
    5      0.189D-02      0.284D-03      -428.43357549    993.016693    0.00000    0.00066    0.70178    4
    6      0.478D-03      0.591D-04      -428.43358320    993.026016    0.00000    0.00057    0.70614    5
    7      0.126D-03      0.178D-04      -428.43358425    993.029297    0.00000    0.00060    0.70449    6
    8      0.427D-04      0.637D-05      -428.43358438    993.028662    0.00000    0.00058    0.70492    7
    9      0.142D-04      0.291D-05      -428.43358441    993.029044    0.00000    0.00059    0.70464    8
   10      0.770D-05      0.112D-05      -428.43358442    993.029608    0.00000    0.00058    0.70471    8
   11      0.348D-05      0.624D-06      -428.43358442    993.029519    0.00000    0.00059    0.70468    8
   12      0.213D-05      0.247D-06      -428.43358442    993.029616    0.00000    0.00059    0.70469    8
   13      0.121D-05      0.418D-07      -428.43358442    993.029642    0.00000    0.00059    0.70469    8
   14      0.136D-06      0.161D-07      -428.43358442    993.029637    0.00000    0.00059    0.70469    9
   15      0.539D-07      0.393D-08      -428.43358442    993.029637    0.00000    0.00059    0.70469    9
   16      0.113D-07      0.163D-08      -428.43358442    993.029637    0.00000    0.00059    0.70469    9
   17      0.457D-08      0.571D-09      -428.43358442    993.029637    0.00000    0.00059    0.70469    8
   18      0.150D-08      0.174D-09      -428.43358442    993.029637    0.00000    0.00059    0.70469    8
   19      0.377D-09      0.655D-10      -428.43358442    993.029637    0.00000    0.00059    0.70469    8
   20      0.140D-09      0.154D-10      -428.43358442    993.029637    0.00000    0.00059    0.70469    8
   21      0.405D-10      0.599D-11      -428.43358442    993.029637    0.00000    0.00059    0.70469    8
   22      0.135D-10      0.317D-11      -428.43358442    993.029637    0.00000    0.00059    0.70469    8
   23      0.106D-10      0.139D-11      -428.43358442    993.029637    0.00000    0.00059    0.70469    8
   24      0.550D-11      0.364D-12      -428.43358442    993.029637    0.00000    0.00059    0.70469    8
   25      0.228D-11      0.148D-12      -428.43358442    993.029637    0.00000    0.00059    0.70469    9
   26      0.975D-12      0.651D-13      -428.43358442    993.029637    0.00000    0.00059    0.70469    0

 Final occupancy:  24   5

 !RHF STATE 1.1 Energy               -428.433584419541
 Nuclear energy                       342.39456019
 One-electron energy                -1267.34296318
 Two-electron energy                  496.51481857
 Virial quotient                       -1.00059952
 !RHF STATE 1.1 Dipole moment           0.00000000     0.00058571     0.70468754
 Dipole moment /Debye                   0.00000000     0.00148863     1.79101976

 Orbital energies:

         1.1          2.1          3.1          4.1          5.1          6.1          7.1          8.1          9.1         10.1
    -26.321048   -26.320615   -11.349979   -11.348737   -11.273217   -11.258487   -11.256568   -11.255472    -1.639505    -1.638863

        11.1         12.1         13.1         14.1         15.1         16.1         17.1         18.1         19.1         20.1
     -1.178989    -1.046883    -1.036899    -0.875035    -0.865131    -0.774652    -0.740938    -0.702833    -0.685007    -0.668335

        21.1         22.1         23.1         24.1         25.1         26.1
     -0.622964    -0.586149    -0.555131    -0.533003     0.179961     0.221262

         1.2          2.2          3.2          4.2          5.2          6.2          7.2
     -0.703900    -0.695846    -0.513734    -0.360347    -0.348396     0.113764     0.131878


 **********************************************************************************************************************************
 DATASETS  * FILE   NREC   LENGTH (MB)   RECORD NAMES
              1      19      148.32       500      610      700      900      950      970     1000      129      960     1100   
                                          VAR    BASINP    GEOM    SYMINP    ZMAT    AOBASIS   BASIS     P2S    ABASIS      S 
                                         1400     1410     1200     1210     1080     1600     1650     1300     1700   
                                           T        V       H0       H01     AOSYM     SMH    MOLCAS    ERIS     OPER   

              2       3        0.68       700     1000     2100   
                                         GEOM     BASIS     RHF  

 PROGRAMS   *        TOTAL       RHF       INT
 CPU TIMES  *         6.22      2.67      3.51
 REAL TIME  *         7.03 SEC
 DISK USED  *       544.15 MB      
 GA USED    *         0.00 MB       (max)       0.00 MB       (current)
 **********************************************************************************************************************************


1PROGRAM * CCSD (Closed-shell coupled cluster)     Authors: C. Hampel, H.-J. Werner, 1991, M. Deegan, P.J. Knowles, 1992


 Convergence thresholds:  THRVAR = 1.00D-08  THRDEN = 1.00D-12

 CCSD(T)     terms to be evaluated (factor= 1.000)


 Number of core orbitals:           8 (   8   0 )
 Number of closed-shell orbitals:  21 (  16   5 )
 Number of external orbitals:     103 (  72  31 )

 Molecular orbitals read from record     2100.2  Type=RHF/CANONICAL (state 1.1)

 Number of N-1 electron functions:              21
 Number of N-2 electron functions:             231
 Number of singly external CSFs:              1307
 Number of doubly external CSFs:           1221574
 Total number of CSFs:                     1222882

 Length of J-op  integral file:               0.00 MB
 Length of K-op  integral file:               0.76 MB
 Length of 3-ext integral record:             0.00 MB

 Memory could be reduced to 16.61 Mwords without degradation in triples

 Integral transformation finished. Total CPU:   0.77 sec, npass=  1  Memory used:   9.88 MW

 Reference energy:                   -428.43358442

 MP2 singlet pair energy:              -0.67263077
 MP2 triplet pair energy:              -0.46572722
 MP2 correlation energy:               -1.13835799
 MP2 total energy:                   -429.57194240

 SCS-MP2 correlation energy:           -1.09694275   (PS=  1.200000  PT=  0.333333)
 SCS-MP2 total energy:               -429.53052717

 ITER.      SQ.NORM     CORR.ENERGY   TOTAL ENERGY   ENERGY CHANGE        DEN1      VAR(S)    VAR(P)  DIIS     TIME
   1      1.36210190    -1.16810397  -429.60168839    -0.02974598     0.00048711  0.67D-02  0.73D-02  1  1     3.33
   2      1.38856892    -1.17163720  -429.60522162    -0.00353323    -0.02699764  0.13D-03  0.11D-02  2  2     5.96
   3      1.39936141    -1.17223860  -429.60582302    -0.00060139    -0.00537904  0.86D-04  0.10D-03  3  3     8.58
   4      1.40339298    -1.17216429  -429.60574871     0.00007431    -0.00142427  0.48D-05  0.20D-04  4  4    11.20
   5      1.40523470    -1.17219475  -429.60577917    -0.00003046    -0.00045151  0.91D-06  0.22D-05  5  5    13.83
   6      1.40571104    -1.17220049  -429.60578491    -0.00000574    -0.00006809  0.12D-06  0.24D-06  6  6    16.47
   7      1.40579816    -1.17219547  -429.60577989     0.00000502     0.00000031  0.28D-07  0.22D-07  6  1    19.11
   8      1.40582315    -1.17219659  -429.60578101    -0.00000112    -0.00000757  0.61D-08  0.30D-08  6  2    21.73
   9      1.40582446    -1.17219725  -429.60578167    -0.00000066     0.00000229  0.17D-08  0.34D-09  6  3    24.35
  10      1.40582682    -1.17219702  -429.60578144     0.00000023    -0.00000121  0.38D-09  0.76D-10  6  4    26.98
  11      1.40582688    -1.17219725  -429.60578167    -0.00000024     0.00000032  0.46D-10  0.20D-10  6  5    29.62
  12      1.40582708    -1.17219724  -429.60578166     0.00000002    -0.00000007  0.11D-10  0.24D-11  6  6    32.26
  13      1.40582708    -1.17219726  -429.60578168    -0.00000002     0.00000005  0.57D-12  0.56D-12  6  1    34.89
  14      1.40582707    -1.17219726  -429.60578168    -0.00000001     0.00000002  0.15D-12  0.87D-13  6  2    37.53
  15      1.40582706    -1.17219726  -429.60578168     0.00000000     0.00000000  0.40D-13  0.14D-13  6  3    40.17
  16      1.40582706    -1.17219726  -429.60578168    -0.00000000     0.00000000  0.63D-14  0.42D-14  6  4    42.79
  17      1.40582707    -1.17219726  -429.60578168    -0.00000000    -0.00000000  0.16D-14  0.72D-15  6  5    45.41
  18      1.40582707    -1.17219726  -429.60578168    -0.00000000    -0.00000000  0.21D-15  0.11D-15  6  6    48.04
  19      1.40582707    -1.17219726  -429.60578168    -0.00000000    -0.00000000  0.32D-16  0.23D-16  6  1    50.67
  20      1.40582707    -1.17219726  -429.60578168     0.00000000    -0.00000000  0.13D-16  0.30D-17  6  2    53.30
  21      1.40582707    -1.17219726  -429.60578168    -0.00000000    -0.00000000  0.15D-17  0.69D-18  6  3    55.94
  22      1.40582707    -1.17219726  -429.60578168    -0.00000000    -0.00000000  0.48D-18  0.15D-18  6  4    58.57
  23      1.40582707    -1.17219726  -429.60578168     0.00000000    -0.00000000  0.10D-18  0.27D-19  6  5    61.20
  24      1.40582707    -1.17219726  -429.60578168    -0.00000000    -0.00000000  0.13D-19  0.63D-20  6  6    63.83
  25      1.40582707    -1.17219726  -429.60578168    -0.00000000     0.00000000  0.42D-20  0.17D-20  6  1    66.46

 Norm of t1 vector:      0.10828659      S-energy:     0.00000000      T1 diagnostic:  0.01181504
                                                                       D1 diagnostic:  0.03167027

 Doubles amplitudes (print threshold =  0.500E-01):

         I         J         SYM. A    SYM. B    A         B      T(IJ, AB)

        20        20         2         2         1         1     -0.08684139
        21        20         2         2         1         2      0.05131193
        21        21         2         2         2         2     -0.08401823


 Total CPU time for triples:     41.57 sec


 RESULTS
 =======

  Reference energy                   -428.433584419541
  CCSD singlet pair energy             -0.756711142992
  CCSD triplet pair energy             -0.415486121360
  CCSD correlation energy              -1.172197264352

  Triples (T) contribution             -0.043064738997
  Total correlation energy             -1.215262003350

  CCSD total energy                  -429.605781683893
  CCSD[T] energy                     -429.650846078366
  CCSD-T energy                      -429.648122161743
 !CCSD(T) total energy               -429.648846422891

 Timing summary (sec):

 STEP                 CPU(USER)    SYS     CPU(TOT)    WALL
 Transformation          0.81      0.12      0.93      0.93
 CCSD iterations        65.65      1.70     67.35     67.43
 Triples                41.57      1.36     42.93     42.94

 Program statistics:

 Available memory in ccsd:               999998136
 Min. memory needed in ccsd:               3240252
 Max. memory used in ccsd:                 4334402
 Max. memory used in cckext:               4782293 (25 integral passes)



 **********************************************************************************************************************************
 DATASETS  * FILE   NREC   LENGTH (MB)   RECORD NAMES
              1      20      222.56       500      610      700      900      950      970     1000      129      960     1100   
                                          VAR    BASINP    GEOM    SYMINP    ZMAT    AOBASIS   BASIS     P2S    ABASIS      S 
                                         1400     1410     1200     1210     1080     1600     1650     1300     1700     1380   
                                           T        V       H0       H01     AOSYM     SMH    MOLCAS    ERIS     OPER     JKOP   

              2       3        0.68       700     1000     2100   
                                         GEOM     BASIS     RHF  

 PROGRAMS   *        TOTAL   CCSD(T)       RHF       INT
 CPU TIMES  *       114.25    108.03      2.67      3.51
 REAL TIME  *       118.37 SEC
 DISK USED  *       591.55 MB      
 GA USED    *         0.00 MB       (max)       0.00 MB       (current)
 **********************************************************************************************************************************

        CCSD(T)         RHF-SCF 
   -429.64884642   -428.43358442
 **********************************************************************************************************************************
 Variable memory released
