
 Primary working directories    : /tmp/1049502.1715.gen4.q
 Secondary working directories  : /tmp/1049502.1715.gen4.q
 Wavefunction directory         : /home/vulcan/jj04645/wfu/
 Main file repository           : /tmp/1049502.1715.gen4.q/

 ARCHNAME  : Linux/x86_64
 FC        : /opt/intel/compilers_and_libraries_2016.1.150/linux/bin/intel64/ifort
 FCVERSION : 16.0.1
 BLASLIB   : -mkl
 id        : ccgc

 Nodes     nprocs
 n054         1
 ga_uses_ma=false, calling ma_init with nominal heap.
 GA-space will be limited to   8.0 MW (determined by -G option)

 Using customized tuning parameters: mindgm=10; mindgv=16; mindgc=4; mindgr=1; noblas=0; mincuda=1000; minvec=7
 default implementation of scratch files=df  

 ***,Optimization of neopentane
 memory,1000,m
 gthresh,energy=1.0d-12,orbital=1.0d-10,oneint=1.0d-16,twoint=1.0d-16,optgrad=1.0d-6,compress=1.0d-13
 geomtyp=xyz
 
 bohr
 geometry = {
  C    0.0012247218   -0.0012247218   -0.0000000000
  C    2.3666673298   -0.0012239809   -1.6726189368
  C    0.0012239809   -2.3666673298    1.6726189368
  C    0.0012239809    2.3642164042    1.6726210326
  C   -2.3642164042   -0.0012239809   -1.6726210326
  H    2.4056353576    1.6770849513   -2.8788198740
  H   -1.6770849513   -2.4056353576    2.8788198740
  H    1.6743267644    2.4177960309    2.8854756732
  H   -2.4177960309   -1.6743267644   -2.8854756732
  H    4.0852850523    0.0042396378   -0.5239312716
  H   -0.0042396378   -4.0852850523    0.5239312716
  H    0.0014968826    4.0781357684    0.5169219288
  H   -4.0781357684   -0.0014968826   -0.5169219288
  H    2.4138539806   -1.6729071114   -2.8876946589
  H    1.6729071114   -2.4138539806    2.8876946589
  H   -1.6756653142    2.4067070555    2.8806760462
  H   -2.4067070555    1.6756653142   -2.8806760462
 }
 
 basis=VDZ
 {rhf;maxit,200}
 {ccsd(t);maxit,200}

 Variables initialized (661), CPU time= 0.00 sec
 Commands  initialized (458), CPU time= 0.00 sec, 486 directives.
 Default parameters read. Elapsed time= 0.05 sec

 Checking input...
 Passed
1


                                         ***  PROGRAM SYSTEM MOLPRO  ***
                         Copyright, University College Cardiff Consultants Limited, 2008

                                    Version 2010.1 linked May 16 2016 07:17:05


 **********************************************************************************************************************************
 LABEL *   Optimization of neopentane                                                    
 Linux-4.4.3/n054(x86_64) 64 bit mpp version                                             DATE: 31-Mar-24          TIME: 02:53:07  
 **********************************************************************************************************************************

 SHA1:             9e8077add272b0f3cad6f7df79ec5211205f459d
 **********************************************************************************************************************************

 THRESHOLDS:

 ZERO    =  1.00D-12  ONEINT  =  1.00D-16  TWOINT  =  1.00D-16  PREFAC  =  1.00D-14  LOCALI  =  1.00D-09  EORDER  =  1.00D-04
 ENERGY  =  1.00D-12  ETEST   =  0.00D+00  EDENS   =  0.00D+00  THRDEDEF=  1.00D-06  GRADIENT=  1.00D-02  STEP    =  1.00D-03
 ORBITAL =  1.00D-10  CIVEC   =  1.00D-05  COEFF   =  1.00D-04  PRINTCI =  5.00D-02  PUNCHCI =  9.90D+01  OPTGRAD =  1.00D-06
 OPTENERG=  1.00D-06  OPTSTEP =  3.00D-04  THRGRAD =  1.00D-10  COMPRESS=  1.00D-13  VARMIN  =  1.00D-07  VARMAX  =  1.00D-03
 THRDOUB =  0.00D+00  THRDIV  =  1.00D-05  THRRED  =  1.00D-07  THRPSP  =  1.00D+00  THRDC   =  1.00D-10  THRCS   =  1.00D-10
 THRNRM  =  1.00D-08  THREQ   =  0.00D+00  THRDE   =  1.00D+00  THRREF  =  1.00D-05  SPARFAC =  1.00D+00  THRDLP  =  1.00D-07
 THRDIA  =  1.00D-10  THRDLS  =  1.00D-07  THRGPS  =  0.00D+00  THRKEX  =  0.00D+00  THRDIS  =  2.00D-01  THRVAR  =  1.00D-10
 THRLOC  =  1.00D-06  THRGAP  =  1.00D-06  THRLOCT = -1.00D+00  THRGAPT = -1.00D+00  THRORB  =  1.00D-06  THRMLTP =  0.00D+00
 THRCPQCI=  1.00D-10  KEXTA   =  0.00D+00  THRCOARS=  0.00D+00  SYMTOL  =  1.00D-06  GRADTOL =  1.00D-06  THROVL  =  1.00D-08
 THRORTH =  1.00D-08  GRID    =  1.00D-06  GRIDMAX =  1.00D-03  DTMAX   =  0.00D+00

 SETTING GEOMTYP        =    XYZ
 ZUNIT=BOHR
 

 Variable memory set to 1000000000 words,  buffer space   230000 words

 SETTING BASIS          =    VDZ


 Recomputing integrals since basis changed


 Using spherical harmonics

 Library entry C      S cc-pVDZ              selected for orbital group  1
 Library entry C      P cc-pVDZ              selected for orbital group  1
 Library entry C      D cc-pVDZ              selected for orbital group  1
 Library entry H      S cc-pVDZ              selected for orbital group  2
 Library entry H      P cc-pVDZ              selected for orbital group  2

1PROGRAM * SEWARD (Integral evaluation for generally contracted gaussian basis sets)     Author: Roland Lindh, 1990

 Geometry written to block  1 of record 700


 Point group  C1  



 ATOMIC COORDINATES

 NR  ATOM    CHARGE       X              Y              Z

   1  C       6.00    0.001224722   -0.001224722    0.000000000
   2  C       6.00    2.366667330   -0.001223981   -1.672618937
   3  C       6.00    0.001223981   -2.366667330    1.672618937
   4  C       6.00    0.001223981    2.364216404    1.672621033
   5  C       6.00   -2.364216404   -0.001223981   -1.672621033
   6  H       1.00    2.405635358    1.677084951   -2.878819874
   7  H       1.00   -1.677084951   -2.405635358    2.878819874
   8  H       1.00    1.674326764    2.417796031    2.885475673
   9  H       1.00   -2.417796031   -1.674326764   -2.885475673
  10  H       1.00    4.085285052    0.004239638   -0.523931272
  11  H       1.00   -0.004239638   -4.085285052    0.523931272
  12  H       1.00    0.001496883    4.078135768    0.516921929
  13  H       1.00   -4.078135768   -0.001496883   -0.516921929
  14  H       1.00    2.413853981   -1.672907111   -2.887694659
  15  H       1.00    1.672907111   -2.413853981    2.887694659
  16  H       1.00   -1.675665314    2.406707056    2.880676046
  17  H       1.00   -2.406707056    1.675665314   -2.880676046

 Bond lengths in Bohr (Angstrom)

 1-2  2.897062795  1-3  2.897062795  1-4  2.897062795  1-5  2.897062795  2-6  2.067162326
     ( 1.533059604)     ( 1.533059604)     ( 1.533059604)     ( 1.533059604)     ( 1.093895190)

  2-10  2.067162325   2-14  2.067162325   3- 7  2.067162326   3-11  2.067162325   3-15  2.067162325
       ( 1.093895190)       ( 1.093895190)       ( 1.093895190)       ( 1.093895190)       ( 1.093895190)

  4- 8  2.067162325   4-12  2.067162326   4-16  2.067162325   5- 9  2.067162325   5-13  2.067162326
       ( 1.093895190)       ( 1.093895190)       ( 1.093895190)       ( 1.093895190)       ( 1.093895190)

  5-17  2.067162325
       ( 1.093895190)

 Bond angles

  1- 2- 6  110.62676721   1- 2-10  110.97763080   1- 2-14  110.97762965   1- 3- 7  110.62676721

  1- 3-11  110.97763080   1- 3-15  110.97762965   1- 4- 8  111.09458395   1- 4-12  110.74372155

  1- 4-16  110.74372030   1- 5- 9  111.09458395   1- 5-13  110.74372155   1- 5-17  110.74372030

  2-1-3  109.47122063   2-1-4  109.47122064   2-1-5  109.47122063   3-1-4  109.47122063

  3- 1- 5  109.47122064   4- 1- 5  109.47122064   6- 2-10  107.84397613   6- 2-14  108.24911630

  7- 3-11  107.84397613   7- 3-15  108.24911630   8- 4-12  107.84397491   8- 4-16  108.24911489

  9- 5-13  107.84397491   9- 5-17  108.24911489  10- 2-14  108.04654517  11- 3-15  108.04654517

 12- 4-16  108.04654592  13- 5-17  108.04654592

 NUCLEAR CHARGE:                   42
 NUMBER OF PRIMITIVE AOS:         219
 NUMBER OF SYMMETRY AOS:          214
 NUMBER OF CONTRACTIONS:          130   ( 130A   )
 NUMBER OF CORE ORBITALS:           5   (   5A   )
 NUMBER OF VALENCE ORBITALS:       32   (  32A   )


 NUCLEAR REPULSION ENERGY  198.59919745


 Eigenvalues of metric

         1 0.280E-02 0.503E-02 0.504E-02 0.504E-02 0.171E-01 0.189E-01 0.189E-01 0.189E-01


 Contracted 2-electron integrals neglected if value below      1.0D-16
 AO integral compression algorithm  1   Integral accuracy      1.0D-16

     300.417 MB (compressed) written to integral file ( 96.4%)

     Node minimum: 300.417 MB, node maximum: 300.417 MB


 NUMBER OF SORTED TWO-ELECTRON INTEGRALS:   36256870.     BUFFER LENGTH:  32768
 NUMBER OF SEGMENTS:   3  SEGMENT LENGTH:   15998004      RECORD LENGTH: 524288

 Memory used in sort:      16.56 MW

 SORT1 READ    38982888. AND WROTE    36130230. INTEGRALS IN    105 RECORDS. CPU TIME:     0.40 SEC, REAL TIME:     0.60 SEC
 SORT2 READ    36130230. AND WROTE    36256870. INTEGRALS IN   1146 RECORDS. CPU TIME:     0.29 SEC, REAL TIME:     0.43 SEC

 FILE SIZES:   FILE 1:   281.5 MBYTE,  FILE 4:   440.4 MBYTE,   TOTAL:    721.9 MBYTE

 OPERATOR DM      FOR CENTER  0  COORDINATES:    0.000000    0.000000    0.000000


 **********************************************************************************************************************************
 DATASETS  * FILE   NREC   LENGTH (MB)   RECORD NAMES
              1      19      281.72       500      610      700      900      950      970     1000      129      960     1100   
                                          VAR    BASINP    GEOM    SYMINP    ZMAT    AOBASIS   BASIS     P2S    ABASIS      S 
                                         1400     1410     1200     1210     1080     1600     1650     1300     1700   
                                           T        V       H0       H01     AOSYM     SMH    MOLCAS    ERIS     OPER   

 PROGRAMS   *        TOTAL       INT
 CPU TIMES  *         4.25      4.21
 REAL TIME  *         4.91 SEC
 DISK USED  *         1.02 GB      
 GA USED    *         0.01 MB       (max)       0.00 MB       (current)
 **********************************************************************************************************************************

1PROGRAM * RHF-SCF (CLOSED SHELL)       Authors: W. Meyer, H.-J. Werner


 NUMBER OF ELECTRONS:      21+   21-    SPACE SYMMETRY=1    SPIN SYMMETRY: Singlet 
 CONVERGENCE THRESHOLDS:    1.00E-10 (Density)    1.00E-13 (Energy)
 MAX. NUMBER OF ITERATIONS:      200
 INTERPOLATION TYPE:            DIIS
 INTERPOLATION STEPS:              2 (START)      1 (STEP)
 LEVEL SHIFTS:                  0.00 (CLOSED)  0.00 (OPEN) 



 Orbital guess generated from atomic densities. Full valence occupancy:   37

 Molecular orbital dump at record        2100.2

 ITERATION    DDIFF          GRAD             ENERGY        2-EL.EN.            DIPOLE MOMENTS         DIIS
    1      0.000D+00      0.000D+00      -196.27089069    527.677277   -0.00296    0.00296   -0.00000    0
    2      0.000D+00      0.467D-02      -196.33874889    521.943895    0.00022   -0.00022    0.00000    1
    3      0.930D-02      0.177D-02      -196.34653924    524.513965   -0.00065    0.00065    0.00000    2
    4      0.346D-02      0.571D-03      -196.34768597    523.812640   -0.00040    0.00040   -0.00000    3
    5      0.114D-02      0.118D-03      -196.34772056    523.879153   -0.00039    0.00039    0.00000    4
    6      0.198D-03      0.238D-04      -196.34772223    523.875395   -0.00040    0.00040   -0.00000    5
    7      0.659D-04      0.226D-05      -196.34772225    523.875161   -0.00040    0.00040   -0.00000    6
    8      0.684D-05      0.489D-06      -196.34772225    523.875119   -0.00041    0.00041   -0.00000    6
    9      0.137D-05      0.723D-07      -196.34772225    523.875111   -0.00041    0.00041    0.00000    5
   10      0.243D-06      0.143D-07      -196.34772225    523.875119   -0.00041    0.00041   -0.00000    5
   11      0.368D-07      0.497D-08      -196.34772225    523.875116   -0.00041    0.00041    0.00000    6
   12      0.101D-07      0.514D-09      -196.34772225    523.875117   -0.00041    0.00041    0.00000    6
   13      0.135D-08      0.130D-09      -196.34772225    523.875117   -0.00041    0.00041    0.00000    6
   14      0.303D-09      0.338D-10      -196.34772225    523.875117   -0.00041    0.00041   -0.00000    6
   15      0.861D-10      0.885D-11      -196.34772225    523.875117   -0.00041    0.00041   -0.00000    6
   16      0.281D-10      0.197D-11      -196.34772225    523.875117   -0.00041    0.00041   -0.00000    6
   17      0.425D-11      0.673D-12      -196.34772225    523.875117   -0.00041    0.00041   -0.00000    6
   18      0.164D-11      0.147D-12      -196.34772225    523.875117   -0.00041    0.00041   -0.00000    0

 Final occupancy:  21

 !RHF STATE 1.1 Energy               -196.347722254940
 Nuclear energy                       198.59919745
 One-electron energy                 -656.88447806
 Two-electron energy                  261.93755836
 Virial quotient                       -1.00118138
 !RHF STATE 1.1 Dipole moment          -0.00040598     0.00040598    -0.00000000
 Dipole moment /Debye                  -0.00103183     0.00103183    -0.00000000

 Orbital energies:

         1.1          2.1          3.1          4.1          5.1          6.1          7.1          8.1          9.1         10.1
    -11.230716   -11.214185   -11.214165   -11.214022   -11.213995    -1.103748    -0.927647    -0.927561    -0.927476    -0.728613

        11.1         12.1         13.1         14.1         15.1         16.1         17.1         18.1         19.1         20.1
     -0.609381    -0.609077    -0.608771    -0.551001    -0.549969    -0.508224    -0.507787    -0.507353    -0.450722    -0.450332

        21.1         22.1         23.1
     -0.449937     0.170677     0.231085


 **********************************************************************************************************************************
 DATASETS  * FILE   NREC   LENGTH (MB)   RECORD NAMES
              1      19      281.72       500      610      700      900      950      970     1000      129      960     1100   
                                          VAR    BASINP    GEOM    SYMINP    ZMAT    AOBASIS   BASIS     P2S    ABASIS      S 
                                         1400     1410     1200     1210     1080     1600     1650     1300     1700   
                                           T        V       H0       H01     AOSYM     SMH    MOLCAS    ERIS     OPER   

              2       3        0.89       700     1000     2100   
                                         GEOM     BASIS     RHF  

 PROGRAMS   *        TOTAL       RHF       INT
 CPU TIMES  *         9.21      4.96      4.21
 REAL TIME  *        10.48 SEC
 DISK USED  *         1.02 GB      
 GA USED    *         0.01 MB       (max)       0.00 MB       (current)
 **********************************************************************************************************************************


1PROGRAM * CCSD (Closed-shell coupled cluster)     Authors: C. Hampel, H.-J. Werner, 1991, M. Deegan, P.J. Knowles, 1992


 Convergence thresholds:  THRVAR = 1.00D-08  THRDEN = 1.00D-12

 CCSD(T)     terms to be evaluated (factor= 1.000)


 Number of core orbitals:           5 (   5 )
 Number of closed-shell orbitals:  16 (  16 )
 Number of external orbitals:     109 ( 109 )

 Molecular orbitals read from record     2100.2  Type=RHF/CANONICAL (state 1.1)

 Number of N-1 electron functions:              16
 Number of N-2 electron functions:             136
 Number of singly external CSFs:              1744
 Number of doubly external CSFs:           1521640
 Total number of CSFs:                     1523385

 Length of J-op  integral file:               0.00 MB
 Length of K-op  integral file:               1.20 MB
 Length of 3-ext integral record:             0.00 MB

 Memory could be reduced to 28.13 Mwords without degradation in triples

 Integral transformation finished. Total CPU:   1.89 sec, npass=  1  Memory used:  22.98 MW

 Reference energy:                   -196.34772225

 MP2 singlet pair energy:              -0.48845332
 MP2 triplet pair energy:              -0.25007837
 MP2 correlation energy:               -0.73853169
 MP2 total energy:                   -197.08625394

 SCS-MP2 correlation energy:           -0.74174830   (PS=  1.200000  PT=  0.333333)
 SCS-MP2 total energy:               -197.08947056

 ITER.      SQ.NORM     CORR.ENERGY   TOTAL ENERGY   ENERGY CHANGE        DEN1      VAR(S)    VAR(P)  DIIS     TIME
   1      1.28821670    -0.80655675  -197.15427900    -0.06802506    -0.04667748  0.17D-02  0.47D-02  1  1     6.95
   2      1.31151630    -0.81149046  -197.15921272    -0.00493371    -0.02352528  0.47D-04  0.32D-03  2  2    12.08
   3      1.31554337    -0.81163970  -197.15936196    -0.00014924    -0.00245155  0.53D-05  0.22D-04  3  3    17.21
   4      1.31658503    -0.81170218  -197.15942443    -0.00006248    -0.00046131  0.25D-06  0.12D-05  4  4    22.35
   5      1.31670996    -0.81170673  -197.15942899    -0.00000455    -0.00005021  0.15D-07  0.93D-07  5  5    27.49
   6      1.31672252    -0.81170428  -197.15942654     0.00000245    -0.00000859  0.68D-09  0.61D-08  6  6    32.64
   7      1.31672103    -0.81170457  -197.15942682    -0.00000028     0.00000068  0.16D-09  0.52D-09  6  1    37.79
   8      1.31672074    -0.81170471  -197.15942697    -0.00000015     0.00000026  0.78D-11  0.30D-10  6  2    42.93
   9      1.31672045    -0.81170476  -197.15942701    -0.00000005     0.00000025  0.11D-11  0.25D-11  6  3    48.07
  10      1.31672034    -0.81170477  -197.15942702    -0.00000001     0.00000009  0.89D-13  0.22D-12  6  4    53.21
  11      1.31672028    -0.81170477  -197.15942703    -0.00000000     0.00000004  0.94D-14  0.24D-13  6  5    58.37
  12      1.31672025    -0.81170477  -197.15942703    -0.00000000     0.00000002  0.89D-15  0.12D-14  6  1    63.51
  13      1.31672024    -0.81170477  -197.15942703    -0.00000000     0.00000000  0.78D-16  0.70D-16  6  6    68.65
  14      1.31672024    -0.81170477  -197.15942703    -0.00000000     0.00000000  0.15D-16  0.96D-17  6  2    73.78
  15      1.31672024    -0.81170477  -197.15942703    -0.00000000     0.00000000  0.13D-17  0.11D-17  6  3    78.92
  16      1.31672024    -0.81170477  -197.15942703     0.00000000    -0.00000000  0.70D-19  0.92D-19  6  4    84.06
  17      1.31672024    -0.81170477  -197.15942703     0.00000000    -0.00000000  0.34D-20  0.85D-20  6  5    89.19
  18      1.31672024    -0.81170477  -197.15942703     0.00000000    -0.00000000  0.38D-21  0.12D-20  6  1    94.32
  19      1.31672024    -0.81170477  -197.15942703     0.00000000    -0.00000000  0.31D-22  0.16D-21  6  6    99.47

 Norm of t1 vector:      0.05469733      S-energy:    -0.00000000      T1 diagnostic:  0.00683717
                                                                       D1 diagnostic:  0.01261012


 Total CPU time for triples:     81.46 sec


 RESULTS
 =======

  Reference energy                   -196.347722254941
  CCSD singlet pair energy             -0.577588070282
  CCSD triplet pair energy             -0.234116703151
  CCSD correlation energy              -0.811704773433

  Triples (T) contribution             -0.023942491084
  Total correlation energy             -0.835647264517

  CCSD total energy                  -197.159427028375
  CCSD[T] energy                     -197.183828858721
  CCSD-T energy                      -197.183120857291
 !CCSD(T) total energy               -197.183369519459

 Timing summary (sec):

 STEP                 CPU(USER)    SYS     CPU(TOT)    WALL
 Transformation          1.97      0.17      2.14      2.14
 CCSD iterations        97.51      2.11     99.62     99.71
 Triples                81.46      1.58     83.04     83.04

 Program statistics:

 Available memory in ccsd:               999998876
 Min. memory needed in ccsd:               3966807
 Max. memory used in ccsd:                 5311887
 Max. memory used in cckext:               4858018 (19 integral passes)



 **********************************************************************************************************************************
 DATASETS  * FILE   NREC   LENGTH (MB)   RECORD NAMES
              1      20      393.43       500      610      700      900      950      970     1000      129      960     1100   
                                          VAR    BASINP    GEOM    SYMINP    ZMAT    AOBASIS   BASIS     P2S    ABASIS      S 
                                         1400     1410     1200     1210     1080     1600     1650     1300     1700     1380   
                                           T        V       H0       H01     AOSYM     SMH    MOLCAS    ERIS     OPER     JKOP   

              2       3        0.89       700     1000     2100   
                                         GEOM     BASIS     RHF  

 PROGRAMS   *        TOTAL   CCSD(T)       RHF       INT
 CPU TIMES  *       190.17    180.96      4.96      4.21
 REAL TIME  *       195.42 SEC
 DISK USED  *         1.02 GB      
 GA USED    *         0.01 MB       (max)       0.00 MB       (current)
 **********************************************************************************************************************************

        CCSD(T)         RHF-SCF 
   -197.18336952   -196.34772225
 **********************************************************************************************************************************
 Variable memory released
