
 Primary working directories    : /tmp/862144.398.gen4.q
 Secondary working directories  : /tmp/862144.398.gen4.q
 Wavefunction directory         : /home/vulcan/lo21740/wfu/
 Main file repository           : /tmp/862144.398.gen4.q/

 ARCHNAME  : Linux/x86_64
 FC        : /opt/intel/compilers_and_libraries_2016.1.150/linux/bin/intel64/ifort
 FCVERSION : 16.0.1
 BLASLIB   : -mkl
 id        : ccgc

 Nodes     nprocs
 n056         1
 ga_uses_ma=false, calling ma_init with nominal heap.
 GA-space will be limited to   8.0 MW (determined by -G option)

 Using customized tuning parameters: mindgm=10; mindgv=16; mindgc=4; mindgr=1; noblas=0; mincuda=1000; minvec=7
 default implementation of scratch files=df  

 ***,Optimization of formic acid
 memory,1000,m
 gthresh,energy=1.0d-12,orbital=1.0d-10,oneint=1.0d-16,twoint=1.0d-16,optgrad=1.0d-6,compress=1.0d-13
 geomtyp=xyz
 
 bohr
 geometry = {
  C   -3.5002455392   -0.8299989501   -0.0000000000
  O   -3.0915047675    1.6228265581    0.0000000000
  O   -1.8889311641   -2.4798132753   -0.0000000000
  H   -5.5195904008   -1.2749431495   -0.0000000000
  H   -1.2421020190    1.9550878839    0.0000000000
  C    3.4991407706    0.8327430092    0.0000000000
  O    3.0966499699   -1.6169732212    0.0000000000
  O    1.8828743998    2.4779425107   -0.0000000000
  H    5.5214331945    1.2713722410    0.0000000000
  H    1.2422755559   -1.9582436068   -0.0000000000
 }
 
 basis=VDZ
 {rhf;maxit,200}
 {ccsd(t);maxit,200}

 Variables initialized (661), CPU time= 0.01 sec
 Commands  initialized (458), CPU time= 0.00 sec, 486 directives.
 Default parameters read. Elapsed time= 0.05 sec

 Checking input...
 Passed
1


                                         ***  PROGRAM SYSTEM MOLPRO  ***
                         Copyright, University College Cardiff Consultants Limited, 2008

                                    Version 2010.1 linked May 16 2016 07:17:05


 **********************************************************************************************************************************
 LABEL *   Optimization of formic acid                                                   
 Linux-4.4.3/n056(x86_64) 64 bit mpp version                                             DATE: 26-Apr-23          TIME: 18:27:06  
 **********************************************************************************************************************************

 SHA1:             9e8077add272b0f3cad6f7df79ec5211205f459d
 **********************************************************************************************************************************

 THRESHOLDS:

 ZERO    =  1.00D-12  ONEINT  =  1.00D-16  TWOINT  =  1.00D-16  PREFAC  =  1.00D-14  LOCALI  =  1.00D-09  EORDER  =  1.00D-04
 ENERGY  =  1.00D-12  ETEST   =  0.00D+00  EDENS   =  0.00D+00  THRDEDEF=  1.00D-06  GRADIENT=  1.00D-02  STEP    =  1.00D-03
 ORBITAL =  1.00D-10  CIVEC   =  1.00D-05  COEFF   =  1.00D-04  PRINTCI =  5.00D-02  PUNCHCI =  9.90D+01  OPTGRAD =  1.00D-06
 OPTENERG=  1.00D-06  OPTSTEP =  3.00D-04  THRGRAD =  1.00D-10  COMPRESS=  1.00D-13  VARMIN  =  1.00D-07  VARMAX  =  1.00D-03
 THRDOUB =  0.00D+00  THRDIV  =  1.00D-05  THRRED  =  1.00D-07  THRPSP  =  1.00D+00  THRDC   =  1.00D-10  THRCS   =  1.00D-10
 THRNRM  =  1.00D-08  THREQ   =  0.00D+00  THRDE   =  1.00D+00  THRREF  =  1.00D-05  SPARFAC =  1.00D+00  THRDLP  =  1.00D-07
 THRDIA  =  1.00D-10  THRDLS  =  1.00D-07  THRGPS  =  0.00D+00  THRKEX  =  0.00D+00  THRDIS  =  2.00D-01  THRVAR  =  1.00D-10
 THRLOC  =  1.00D-06  THRGAP  =  1.00D-06  THRLOCT = -1.00D+00  THRGAPT = -1.00D+00  THRORB  =  1.00D-06  THRMLTP =  0.00D+00
 THRCPQCI=  1.00D-10  KEXTA   =  0.00D+00  THRCOARS=  0.00D+00  SYMTOL  =  1.00D-06  GRADTOL =  1.00D-06  THROVL  =  1.00D-08
 THRORTH =  1.00D-08  GRID    =  1.00D-06  GRIDMAX =  1.00D-03  DTMAX   =  0.00D+00

 SETTING GEOMTYP        =    XYZ
 ZUNIT=BOHR
 

 Variable memory set to 1000000000 words,  buffer space   230000 words

 SETTING BASIS          =    VDZ


 Recomputing integrals since basis changed


 Using spherical harmonics

 Library entry C      S cc-pVDZ              selected for orbital group  1
 Library entry C      P cc-pVDZ              selected for orbital group  1
 Library entry C      D cc-pVDZ              selected for orbital group  1
 Library entry O      S cc-pVDZ              selected for orbital group  2
 Library entry O      P cc-pVDZ              selected for orbital group  2
 Library entry O      D cc-pVDZ              selected for orbital group  2
 Library entry H      S cc-pVDZ              selected for orbital group  3
 Library entry H      P cc-pVDZ              selected for orbital group  3

1PROGRAM * SEWARD (Integral evaluation for generally contracted gaussian basis sets)     Author: Roland Lindh, 1990

 Geometry written to block  1 of record 700


 Point group  Cs  



 ATOMIC COORDINATES

 NR  ATOM    CHARGE       X              Y              Z

   1  C       6.00   -3.500245539   -0.829998950    0.000000000
   2  O       8.00   -3.091504768    1.622826558    0.000000000
   3  O       8.00   -1.888931164   -2.479813275    0.000000000
   4  H       1.00   -5.519590401   -1.274943150    0.000000000
   5  H       1.00   -1.242102019    1.955087884    0.000000000
   6  C       6.00    3.499140771    0.832743009    0.000000000
   7  O       8.00    3.096649970   -1.616973221    0.000000000
   8  O       8.00    1.882874400    2.477942511    0.000000000
   9  H       1.00    5.521433195    1.271372241    0.000000000
  10  H       1.00    1.242275556   -1.958243607    0.000000000

 Bond lengths in Bohr (Angstrom)

 1-2  2.486648747  1-3  2.306126910  1-4  2.067783599  2-5  1.879012537  6-7  2.482560866
     ( 1.315877844)     ( 1.220349802)     ( 1.094223954)     ( 0.994330610)     ( 1.313714630)

  6- 8  2.306295380   6- 9  2.069314440   7-10  1.885515830
       ( 1.220438952)       ( 1.095034040)       ( 0.997772004)

 Bond angles

  1-2-5  109.64591166   2-1-3  126.21550667   2-1-4  111.88692531   3-1-4  121.89756802

  6- 7-10  109.75815768   7- 6- 8  126.17787740   7- 6- 9  111.56812124   8- 6- 9  122.25400136

 NUCLEAR CHARGE:                   48
 NUMBER OF PRIMITIVE AOS:         190
 NUMBER OF SYMMETRY AOS:          184
 NUMBER OF CONTRACTIONS:          104   (  76A'  +  28A"  )
 NUMBER OF CORE ORBITALS:           6   (   6A'  +   0A"  )
 NUMBER OF VALENCE ORBITALS:       28   (  22A'  +   6A"  )


 NUCLEAR REPULSION ENERGY  235.66663721


 Eigenvalues of metric

         1 0.817E-02 0.870E-02 0.138E-01 0.140E-01 0.165E-01 0.167E-01 0.299E-01 0.308E-01
         2 0.115E+00 0.116E+00 0.174E+00 0.175E+00 0.191E+00 0.194E+00 0.419E+00 0.420E+00


 Contracted 2-electron integrals neglected if value below      1.0D-16
 AO integral compression algorithm  1   Integral accuracy      1.0D-16

     61.604 MB (compressed) written to integral file ( 88.7%)

     Node minimum: 61.604 MB, node maximum: 61.604 MB


 NUMBER OF SORTED TWO-ELECTRON INTEGRALS:    7928690.     BUFFER LENGTH:  32768
 NUMBER OF SEGMENTS:   1  SEGMENT LENGTH:    7928690      RECORD LENGTH: 524288

 Memory used in sort:       8.49 MW

 SORT1 READ     8707350. AND WROTE     7786250. INTEGRALS IN     23 RECORDS. CPU TIME:     0.10 SEC, REAL TIME:     0.15 SEC
 SORT2 READ     7786250. AND WROTE     7928690. INTEGRALS IN    235 RECORDS. CPU TIME:     0.10 SEC, REAL TIME:     0.13 SEC

 FILE SIZES:   FILE 1:    59.0 MBYTE,  FILE 4:    96.5 MBYTE,   TOTAL:    155.5 MBYTE

 OPERATOR DM      FOR CENTER  0  COORDINATES:    0.000000    0.000000    0.000000


 **********************************************************************************************************************************
 DATASETS  * FILE   NREC   LENGTH (MB)   RECORD NAMES
              1      19       59.10       500      610      700      900      950      970     1000      129      960     1100   
                                          VAR    BASINP    GEOM    SYMINP    ZMAT    AOBASIS   BASIS     P2S    ABASIS      S 
                                         1400     1410     1200     1210     1080     1600     1650     1300     1700   
                                           T        V       H0       H01     AOSYM     SMH    MOLCAS    ERIS     OPER   

 PROGRAMS   *        TOTAL       INT
 CPU TIMES  *         1.87      1.83
 REAL TIME  *         2.18 SEC
 DISK USED  *       217.92 MB      
 GA USED    *         0.00 MB       (max)       0.00 MB       (current)
 **********************************************************************************************************************************

1PROGRAM * RHF-SCF (CLOSED SHELL)       Authors: W. Meyer, H.-J. Werner


 NUMBER OF ELECTRONS:      24+   24-
 CONVERGENCE THRESHOLDS:    1.00E-10 (Density)    1.00E-13 (Energy)
 MAX. NUMBER OF ITERATIONS:      200
 INTERPOLATION TYPE:            DIIS
 INTERPOLATION STEPS:              2 (START)      1 (STEP)
 LEVEL SHIFTS:                  0.00 (CLOSED)  0.00 (OPEN) 



 Orbital guess generated from atomic densities. Full valence occupancy:   28   6

 Molecular orbital dump at record        2100.2

 Initial alpha occupancy:  20   4
 Initial beta  occupancy:  20   4
 Wave function symmetry:    1

 ITERATION    DDIFF          GRAD             ENERGY        2-EL.EN.            DIPOLE MOMENTS         DIIS
    1      0.000D+00      0.000D+00      -377.45083257    747.333366   -0.00045   -0.00855    0.00000    0
    2      0.000D+00      0.141D-01      -377.53844379    744.476732   -0.00123   -0.00580    0.00000    1
    3      0.278D-01      0.872D-02      -377.58466465    746.721303   -0.00041   -0.00591    0.00000    2
    4      0.101D-01      0.124D-02      -377.58614701    746.443188   -0.00051   -0.00572    0.00000    3
    5      0.198D-02      0.513D-03      -377.58640543    746.468705   -0.00032   -0.00565    0.00000    4
    6      0.812D-03      0.147D-03      -377.58645123    746.512703   -0.00028   -0.00563    0.00000    5
    7      0.281D-03      0.671D-04      -377.58646248    746.497625   -0.00023   -0.00562    0.00000    6
    8      0.168D-03      0.199D-04      -377.58646347    746.502825   -0.00022   -0.00562    0.00000    7
    9      0.524D-04      0.671D-05      -377.58646357    746.501369   -0.00022   -0.00562    0.00000    8
   10      0.181D-04      0.183D-05      -377.58646358    746.501539   -0.00022   -0.00562    0.00000    7
   11      0.509D-05      0.449D-06      -377.58646358    746.501485   -0.00022   -0.00562    0.00000    8
   12      0.119D-05      0.130D-06      -377.58646358    746.501506   -0.00022   -0.00562    0.00000    7
   13      0.326D-06      0.514D-07      -377.58646358    746.501495   -0.00022   -0.00562    0.00000    8
   14      0.943D-07      0.150D-07      -377.58646358    746.501497   -0.00022   -0.00562    0.00000    7
   15      0.374D-07      0.483D-08      -377.58646358    746.501497   -0.00022   -0.00562    0.00000    8
   16      0.104D-07      0.144D-08      -377.58646358    746.501496   -0.00022   -0.00562    0.00000    8
   17      0.265D-08      0.362D-09      -377.58646358    746.501497   -0.00022   -0.00562    0.00000    8
   18      0.672D-09      0.104D-09      -377.58646358    746.501497   -0.00022   -0.00562    0.00000    8
   19      0.211D-09      0.366D-10      -377.58646358    746.501497   -0.00022   -0.00562    0.00000    8
   20      0.680D-10      0.114D-10      -377.58646358    746.501497   -0.00022   -0.00562    0.00000    0

 Final occupancy:  20   4

 !RHF STATE 1.1 Energy               -377.586463582153
 Nuclear energy                       235.66663721
 One-electron energy                 -986.50384906
 Two-electron energy                  373.25074827
 Virial quotient                       -1.00118738
 !RHF STATE 1.1 Dipole moment          -0.00021559    -0.00561774     0.00000000
 Dipole moment /Debye                  -0.00054793    -0.01427795     0.00000000

 Orbital energies:

         1.1          2.1          3.1          4.1          5.1          6.1          7.1          8.1          9.1         10.1
    -20.613690   -20.613407   -20.575543   -20.575069   -11.411796   -11.411583    -1.482719    -1.470005    -1.384129    -1.370145

        11.1         12.1         13.1         14.1         15.1         16.1         17.1         18.1         19.1         20.1
     -0.914349    -0.878382    -0.763445    -0.728367    -0.719599    -0.689043    -0.614748    -0.573408    -0.489483    -0.467671

        21.1         22.1
      0.204251     0.209901

         1.2          2.2          3.2          4.2          5.2          6.2
     -0.638884    -0.629309    -0.498538    -0.487864     0.161664     0.166755


 **********************************************************************************************************************************
 DATASETS  * FILE   NREC   LENGTH (MB)   RECORD NAMES
              1      19       59.10       500      610      700      900      950      970     1000      129      960     1100   
                                          VAR    BASINP    GEOM    SYMINP    ZMAT    AOBASIS   BASIS     P2S    ABASIS      S 
                                         1400     1410     1200     1210     1080     1600     1650     1300     1700   
                                           T        V       H0       H01     AOSYM     SMH    MOLCAS    ERIS     OPER   

              2       3        0.56       700     1000     2100   
                                         GEOM     BASIS     RHF  

 PROGRAMS   *        TOTAL       RHF       INT
 CPU TIMES  *         2.89      1.02      1.83
 REAL TIME  *         3.34 SEC
 DISK USED  *       217.92 MB      
 GA USED    *         0.00 MB       (max)       0.00 MB       (current)
 **********************************************************************************************************************************


1PROGRAM * CCSD (Closed-shell coupled cluster)     Authors: C. Hampel, H.-J. Werner, 1991, M. Deegan, P.J. Knowles, 1992


 Convergence thresholds:  THRVAR = 1.00D-08  THRDEN = 1.00D-12

 CCSD(T)     terms to be evaluated (factor= 1.000)


 Number of core orbitals:           6 (   6   0 )
 Number of closed-shell orbitals:  18 (  14   4 )
 Number of external orbitals:      80 (  56  24 )

 Molecular orbitals read from record     2100.2  Type=RHF/CANONICAL (state 1.1)

 Number of N-1 electron functions:              18
 Number of N-2 electron functions:             171
 Number of singly external CSFs:               880
 Number of doubly external CSFs:            544720
 Total number of CSFs:                      545601

 Length of J-op  integral file:               0.00 MB
 Length of K-op  integral file:               0.49 MB
 Length of 3-ext integral record:             0.00 MB

 Memory could be reduced to 7.20 Mwords without degradation in triples

 Integral transformation finished. Total CPU:   0.32 sec, npass=  1  Memory used:   4.51 MW

 Reference energy:                   -377.58646358

 MP2 singlet pair energy:              -0.59877220
 MP2 triplet pair energy:              -0.40672130
 MP2 correlation energy:               -1.00549351
 MP2 total energy:                   -378.59195709

 SCS-MP2 correlation energy:           -0.97159768   (PS=  1.200000  PT=  0.333333)
 SCS-MP2 total energy:               -378.55806126

 ITER.      SQ.NORM     CORR.ENERGY   TOTAL ENERGY   ENERGY CHANGE        DEN1      VAR(S)    VAR(P)  DIIS     TIME
   1      1.28128507    -1.02579559  -378.61225917    -0.02030208     0.01034545  0.10D-01  0.55D-02  1  1     1.30
   2      1.30488572    -1.02769287  -378.61415645    -0.00189728    -0.02499501  0.24D-03  0.10D-02  2  2     2.31
   3      1.31783159    -1.02863420  -378.61509778    -0.00094132    -0.00593178  0.20D-03  0.42D-04  3  3     3.31
   4      1.32313001    -1.02840253  -378.61486611     0.00023167    -0.00174113  0.17D-04  0.70D-05  4  4     4.31
   5      1.32516911    -1.02831384  -378.61477743     0.00008868    -0.00045363  0.11D-05  0.67D-06  5  5     5.33
   6      1.32550834    -1.02829363  -378.61475721     0.00002021    -0.00001544  0.99D-07  0.59D-07  6  6     6.34
   7      1.32557612    -1.02828611  -378.61474969     0.00000752    -0.00000441  0.79D-08  0.87D-08  6  2     7.36
   8      1.32557937    -1.02828694  -378.61475052    -0.00000083     0.00000203  0.16D-08  0.89D-09  6  1     8.38
   9      1.32558014    -1.02828662  -378.61475020     0.00000032     0.00000091  0.34D-09  0.16D-09  6  4     9.40
  10      1.32558195    -1.02828647  -378.61475005     0.00000015    -0.00000062  0.95D-10  0.26D-10  6  3    10.41
  11      1.32558144    -1.02828659  -378.61475018    -0.00000013     0.00000025  0.21D-10  0.54D-11  6  5    11.42
  12      1.32558109    -1.02828661  -378.61475019    -0.00000002     0.00000005  0.27D-11  0.11D-11  6  6    12.42
  13      1.32558076    -1.02828665  -378.61475023    -0.00000004     0.00000013  0.29D-12  0.21D-12  6  1    13.44
  14      1.32558065    -1.02828666  -378.61475024    -0.00000000     0.00000002  0.28D-13  0.23D-13  6  2    14.45
  15      1.32558062    -1.02828666  -378.61475024    -0.00000000     0.00000001  0.57D-14  0.28D-14  6  4    15.47
  16      1.32558060    -1.02828666  -378.61475024    -0.00000000     0.00000000  0.81D-15  0.59D-15  6  5    16.48
  17      1.32558060    -1.02828666  -378.61475024    -0.00000000    -0.00000000  0.90D-16  0.50D-16  6  3    17.49
  18      1.32558060    -1.02828666  -378.61475024    -0.00000000     0.00000000  0.25D-16  0.13D-16  6  5    18.50
  19      1.32558060    -1.02828666  -378.61475024    -0.00000000     0.00000000  0.36D-17  0.17D-17  6  6    19.50
  20      1.32558060    -1.02828666  -378.61475024     0.00000000     0.00000000  0.62D-18  0.29D-18  6  1    20.50
  21      1.32558060    -1.02828666  -378.61475024    -0.00000000     0.00000000  0.15D-18  0.46D-19  6  2    21.51
  22      1.32558060    -1.02828666  -378.61475024     0.00000000    -0.00000000  0.13D-19  0.62D-20  6  5    22.51
  23      1.32558060    -1.02828666  -378.61475024     0.00000000    -0.00000000  0.15D-20  0.60D-21  6  4    23.52
  24      1.32558060    -1.02828666  -378.61475024    -0.00000000     0.00000000  0.50D-21  0.18D-21  6  5    24.52
  25      1.32558060    -1.02828666  -378.61475024     0.00000000    -0.00000000  0.42D-22  0.20D-22  6  3    25.52

 Norm of t1 vector:      0.15192057      S-energy:     0.00000000      T1 diagnostic:  0.01790401
                                                                       D1 diagnostic:  0.06467094

 Singles amplitudes (print threshold =  0.500E-01):

         I         SYM. A    A   T(IA)

        15         2         1      0.05907173
        16         2         2     -0.06089142


 Total CPU time for triples:     12.21 sec


 RESULTS
 =======

  Reference energy                   -377.586463582153
  CCSD singlet pair energy             -0.670560958077
  CCSD triplet pair energy             -0.357725700430
  CCSD correlation energy              -1.028286658492

  Triples (T) contribution             -0.031832539636
  Total correlation energy             -1.060119198128

  CCSD total energy                  -378.614750240645
  CCSD[T] energy                     -378.649844566025
  CCSD-T energy                      -378.645509295864
 !CCSD(T) total energy               -378.646582780281

 Timing summary (sec):

 STEP                 CPU(USER)    SYS     CPU(TOT)    WALL
 Transformation          0.35      0.05      0.40      0.41
 CCSD iterations        25.19      0.79     25.98     26.02
 Triples                12.21      0.34     12.55     12.57

 Program statistics:

 Available memory in ccsd:               999998604
 Min. memory needed in ccsd:               1529844
 Max. memory used in ccsd:                 2011076
 Max. memory used in cckext:               2263698 (25 integral passes)



 **********************************************************************************************************************************
 DATASETS  * FILE   NREC   LENGTH (MB)   RECORD NAMES
              1      20       91.00       500      610      700      900      950      970     1000      129      960     1100   
                                          VAR    BASINP    GEOM    SYMINP    ZMAT    AOBASIS   BASIS     P2S    ABASIS      S 
                                         1400     1410     1200     1210     1080     1600     1650     1300     1700     1380   
                                           T        V       H0       H01     AOSYM     SMH    MOLCAS    ERIS     OPER     JKOP   

              2       3        0.56       700     1000     2100   
                                         GEOM     BASIS     RHF  

 PROGRAMS   *        TOTAL   CCSD(T)       RHF       INT
 CPU TIMES  *        40.64     37.75      1.02      1.83
 REAL TIME  *        42.37 SEC
 DISK USED  *       250.54 MB      
 GA USED    *         0.00 MB       (max)       0.00 MB       (current)
 **********************************************************************************************************************************

        CCSD(T)         RHF-SCF 
   -378.64658278   -377.58646358
 **********************************************************************************************************************************
 Variable memory released
