
 Primary working directories    : /tmp/880701.686.gen6.q
 Secondary working directories  : /tmp/880701.686.gen6.q
 Wavefunction directory         : /home/vulcan/lo21740/wfu/
 Main file repository           : /tmp/880701.686.gen6.q/

 ARCHNAME  : Linux/x86_64
 FC        : /opt/intel/compilers_and_libraries_2016.1.150/linux/bin/intel64/ifort
 FCVERSION : 16.0.1
 BLASLIB   : -mkl
 id        : ccgc

 Nodes     nprocs
 n082         1
 ga_uses_ma=false, calling ma_init with nominal heap.
 GA-space will be limited to   8.0 MW (determined by -G option)

 Using customized tuning parameters: mindgm=10; mindgv=16; mindgc=4; mindgr=1; noblas=0; mincuda=1000; minvec=7
 default implementation of scratch files=df  

 ***,Optimization of formamide
 memory,1000,m
 gthresh,energy=1.0d-12,orbital=1.0d-10,oneint=1.0d-16,twoint=1.0d-16,optgrad=1.0d-6,compress=1.0d-13
 geomtyp=xyz
 
 bohr
 geometry = {
  C   -3.8330318508    0.0858612284   -0.0000000000
  O   -2.7305345431    2.1373781511    0.0000000000
  N   -2.6876918527   -2.1783994577   -0.0000000000
  H   -3.7402689871   -3.7560926458    0.0000000000
  H   -0.7528031377   -2.3021611765   -0.0000000000
  H   -5.9116357930   -0.0201986856   -0.0000000000
  C    3.8325823978   -0.0852047220   -0.0000000000
  O    2.7365231838   -2.1367457589   -0.0000000000
  N    2.6825910366    2.1785445985    0.0000000000
  H    3.7431763615    3.7567258375    0.0000000000
  H    0.7490665521    2.3013552103    0.0000000000
  H    5.9120266325    0.0189374207   -0.0000000000
 }
 
 basis=AVDZ
 {rhf;maxit,200}
 {ccsd(t);maxit,200}

 Variables initialized (661), CPU time= 0.01 sec
 Commands  initialized (458), CPU time= 0.00 sec, 486 directives.
 Default parameters read. Elapsed time= 0.04 sec

 Checking input...
 Passed
1


                                         ***  PROGRAM SYSTEM MOLPRO  ***
                         Copyright, University College Cardiff Consultants Limited, 2008

                                    Version 2010.1 linked May 16 2016 07:17:05


 **********************************************************************************************************************************
 LABEL *   Optimization of formamide                                                     
 Linux-4.4.3/n082(x86_64) 64 bit mpp version                                             DATE: 25-May-23          TIME: 02:25:52  
 **********************************************************************************************************************************

 SHA1:             9e8077add272b0f3cad6f7df79ec5211205f459d
 **********************************************************************************************************************************

 THRESHOLDS:

 ZERO    =  1.00D-12  ONEINT  =  1.00D-16  TWOINT  =  1.00D-16  PREFAC  =  1.00D-14  LOCALI  =  1.00D-09  EORDER  =  1.00D-04
 ENERGY  =  1.00D-12  ETEST   =  0.00D+00  EDENS   =  0.00D+00  THRDEDEF=  1.00D-06  GRADIENT=  1.00D-02  STEP    =  1.00D-03
 ORBITAL =  1.00D-10  CIVEC   =  1.00D-05  COEFF   =  1.00D-04  PRINTCI =  5.00D-02  PUNCHCI =  9.90D+01  OPTGRAD =  1.00D-06
 OPTENERG=  1.00D-06  OPTSTEP =  3.00D-04  THRGRAD =  1.00D-10  COMPRESS=  1.00D-13  VARMIN  =  1.00D-07  VARMAX  =  1.00D-03
 THRDOUB =  0.00D+00  THRDIV  =  1.00D-05  THRRED  =  1.00D-07  THRPSP  =  1.00D+00  THRDC   =  1.00D-10  THRCS   =  1.00D-10
 THRNRM  =  1.00D-08  THREQ   =  0.00D+00  THRDE   =  1.00D+00  THRREF  =  1.00D-05  SPARFAC =  1.00D+00  THRDLP  =  1.00D-07
 THRDIA  =  1.00D-10  THRDLS  =  1.00D-07  THRGPS  =  0.00D+00  THRKEX  =  0.00D+00  THRDIS  =  2.00D-01  THRVAR  =  1.00D-10
 THRLOC  =  1.00D-06  THRGAP  =  1.00D-06  THRLOCT = -1.00D+00  THRGAPT = -1.00D+00  THRORB  =  1.00D-06  THRMLTP =  0.00D+00
 THRCPQCI=  1.00D-10  KEXTA   =  0.00D+00  THRCOARS=  0.00D+00  SYMTOL  =  1.00D-06  GRADTOL =  1.00D-06  THROVL  =  1.00D-08
 THRORTH =  1.00D-08  GRID    =  1.00D-06  GRIDMAX =  1.00D-03  DTMAX   =  0.00D+00

 SETTING GEOMTYP        =    XYZ
 ZUNIT=BOHR
 

 Variable memory set to 1000000000 words,  buffer space   230000 words

 SETTING BASIS          =    AVDZ


 Recomputing integrals since basis changed


 Using spherical harmonics

 Library entry C      S aug-cc-pVDZ          selected for orbital group  1
 Library entry C      P aug-cc-pVDZ          selected for orbital group  1
 Library entry C      D aug-cc-pVDZ          selected for orbital group  1
 Library entry O      S aug-cc-pVDZ          selected for orbital group  2
 Library entry O      P aug-cc-pVDZ          selected for orbital group  2
 Library entry O      D aug-cc-pVDZ          selected for orbital group  2
 Library entry N      S aug-cc-pVDZ          selected for orbital group  3
 Library entry N      P aug-cc-pVDZ          selected for orbital group  3
 Library entry N      D aug-cc-pVDZ          selected for orbital group  3
 Library entry H      S aug-cc-pVDZ          selected for orbital group  4
 Library entry H      P aug-cc-pVDZ          selected for orbital group  4

1PROGRAM * SEWARD (Integral evaluation for generally contracted gaussian basis sets)     Author: Roland Lindh, 1990

 Geometry written to block  1 of record 700


 Point group  Cs  



 ATOMIC COORDINATES

 NR  ATOM    CHARGE       X              Y              Z

   1  C       6.00   -3.833031851    0.085861228    0.000000000
   2  O       8.00   -2.730534543    2.137378151    0.000000000
   3  N       7.00   -2.687691853   -2.178399458    0.000000000
   4  H       1.00   -3.740268987   -3.756092646    0.000000000
   5  H       1.00   -0.752803138   -2.302161176    0.000000000
   6  H       1.00   -5.911635793   -0.020198686    0.000000000
   7  C       6.00    3.832582398   -0.085204722    0.000000000
   8  O       8.00    2.736523184   -2.136745759    0.000000000
   9  N       7.00    2.682591037    2.178544598    0.000000000
  10  H       1.00    3.743176362    3.756725837    0.000000000
  11  H       1.00    0.749066552    2.301355210    0.000000000
  12  H       1.00    5.912026632    0.018937421    0.000000000

 Bond lengths in Bohr (Angstrom)

 1-2  2.328995920  1-3  2.537455451  1-6  2.081308015  3-4  1.896584936  3-5  1.938842774
     ( 1.232451561)     ( 1.342763594)     ( 1.101380767)     ( 1.003629523)     ( 1.025991408)

  7- 8  2.325976446   7- 9  2.539102423   7-12  2.082050410   9-10  1.901446096   9-11  1.937420806
       ( 1.230853724)       ( 1.343635134)       ( 1.101773625)       ( 1.006201938)       ( 1.025238935)

 Bond angles

  1-3-4  119.45844741   1-3-5  120.49167370   2-1-3  124.91431668   2-1-6  121.17480713

  3- 1- 6  113.91087619   4- 3- 5  120.04987888   7- 9-10  119.16700600   7- 9-11  120.56504684

  8- 7- 9  124.95542529   8- 7-12  120.98094597   9- 7-12  114.06362875  10- 9-11  120.26794716

 NUCLEAR CHARGE:                   48
 NUMBER OF PRIMITIVE AOS:         288
 NUMBER OF SYMMETRY AOS:          276
 NUMBER OF CONTRACTIONS:          192   ( 138A'  +  54A"  )
 NUMBER OF CORE ORBITALS:           6   (   6A'  +   0A"  )
 NUMBER OF VALENCE ORBITALS:       30   (  24A'  +   6A"  )


 NUCLEAR REPULSION ENERGY  230.37991424


 Eigenvalues of metric

         1 0.232E-03 0.271E-03 0.527E-03 0.531E-03 0.568E-03 0.705E-03 0.714E-03 0.717E-03
         2 0.182E-01 0.199E-01 0.284E-01 0.284E-01 0.336E-01 0.338E-01 0.417E-01 0.454E-01


 Contracted 2-electron integrals neglected if value below      1.0D-16
 AO integral compression algorithm  1   Integral accuracy      1.0D-16

     746.062 MB (compressed) written to integral file ( 93.7%)

     Node minimum: 746.062 MB, node maximum: 746.062 MB


 NUMBER OF SORTED TWO-ELECTRON INTEGRALS:   89829696.     BUFFER LENGTH:  32768
 NUMBER OF SEGMENTS:   6  SEGMENT LENGTH:   15998004      RECORD LENGTH: 524288

 Memory used in sort:      16.56 MW

 SORT1 READ    99568560. AND WROTE    89002241. INTEGRALS IN    258 RECORDS. CPU TIME:     1.02 SEC, REAL TIME:     1.51 SEC
 SORT2 READ    89002241. AND WROTE    89829696. INTEGRALS IN   2846 RECORDS. CPU TIME:     0.66 SEC, REAL TIME:     1.00 SEC

 FILE SIZES:   FILE 1:   691.7 MBYTE,  FILE 4:  1082.2 MBYTE,   TOTAL:   1773.9 MBYTE

 OPERATOR DM      FOR CENTER  0  COORDINATES:    0.000000    0.000000    0.000000


 **********************************************************************************************************************************
 DATASETS  * FILE   NREC   LENGTH (MB)   RECORD NAMES
              1      19      691.95       500      610      700      900      950      970     1000      129      960     1100   
                                          VAR    BASINP    GEOM    SYMINP    ZMAT    AOBASIS   BASIS     P2S    ABASIS      S 
                                         1400     1410     1200     1210     1080     1600     1650     1300     1700   
                                           T        V       H0       H01     AOSYM     SMH    MOLCAS    ERIS     OPER   

 PROGRAMS   *        TOTAL       INT
 CPU TIMES  *         7.12      7.08
 REAL TIME  *         8.82 SEC
 DISK USED  *         2.52 GB      
 GA USED    *         0.00 MB       (max)       0.00 MB       (current)
 **********************************************************************************************************************************

1PROGRAM * RHF-SCF (CLOSED SHELL)       Authors: W. Meyer, H.-J. Werner


 NUMBER OF ELECTRONS:      24+   24-
 CONVERGENCE THRESHOLDS:    1.00E-10 (Density)    1.00E-13 (Energy)
 MAX. NUMBER OF ITERATIONS:      200
 INTERPOLATION TYPE:            DIIS
 INTERPOLATION STEPS:              2 (START)      1 (STEP)
 LEVEL SHIFTS:                  0.00 (CLOSED)  0.00 (OPEN) 



 Orbital guess generated from atomic densities. Full valence occupancy:   30   6

 Molecular orbital dump at record        2100.2

 Initial alpha occupancy:  20   4
 Initial beta  occupancy:  20   4
 Wave function symmetry:    1

 ITERATION    DDIFF          GRAD             ENERGY        2-EL.EN.            DIPOLE MOMENTS         DIIS
    1      0.000D+00      0.000D+00      -337.80567589    704.465519   -0.00694   -0.00579    0.00000    0
    2      0.000D+00      0.729D-02      -337.88309084    698.837789   -0.00530   -0.00439    0.00000    1
    3      0.138D-01      0.532D-02      -337.94109077    701.585102   -0.00650   -0.00558    0.00000    2
    4      0.562D-02      0.700D-03      -337.94330291    701.489892   -0.00611   -0.00514    0.00000    3
    5      0.134D-02      0.241D-03      -337.94357157    701.422980   -0.00627   -0.00552    0.00000    4
    6      0.456D-03      0.794D-04      -337.94363306    701.448635   -0.00619   -0.00537    0.00000    5
    7      0.202D-03      0.352D-04      -337.94364411    701.439709   -0.00622   -0.00551    0.00000    6
    8      0.960D-04      0.105D-04      -337.94364506    701.445254   -0.00618   -0.00539    0.00000    7
    9      0.302D-04      0.322D-05      -337.94364513    701.442852   -0.00622   -0.00552    0.00000    8
   10      0.792D-05      0.118D-05      -337.94364514    701.443250   -0.00619   -0.00542    0.00000    7
   11      0.337D-05      0.445D-06      -337.94364514    701.443317   -0.00621   -0.00548    0.00000    8
   12      0.749D-06      0.166D-06      -337.94364514    701.443266   -0.00621   -0.00546    0.00000    9
   13      0.364D-06      0.233D-07      -337.94364514    701.443268   -0.00621   -0.00546    0.00000    8
   14      0.627D-07      0.778D-08      -337.94364514    701.443271   -0.00621   -0.00546    0.00000    7
   15      0.234D-07      0.324D-08      -337.94364514    701.443270   -0.00621   -0.00546    0.00000    8
   16      0.719D-08      0.514D-09      -337.94364514    701.443270   -0.00621   -0.00546    0.00000    8
   17      0.112D-08      0.126D-09      -337.94364514    701.443270   -0.00621   -0.00546    0.00000    7
   18      0.275D-09      0.526D-10      -337.94364514    701.443270   -0.00621   -0.00546    0.00000    7
   19      0.105D-09      0.131D-10      -337.94364514    701.443270   -0.00621   -0.00546    0.00000    7
   20      0.258D-10      0.567D-11      -337.94364514    701.443270   -0.00621   -0.00546    0.00000    7
   21      0.141D-10      0.226D-11      -337.94364514    701.443270   -0.00621   -0.00546    0.00000    8
   22      0.701D-11      0.780D-12      -337.94364514    701.443270   -0.00621   -0.00546    0.00000    7
   23      0.387D-11      0.323D-12      -337.94364514    701.443270   -0.00621   -0.00546    0.00000    8
   24      0.330D-11      0.207D-12      -337.94364514    701.443270   -0.00621   -0.00546    0.00000    0

 Final occupancy:  20   4

 !RHF STATE 1.1 Energy               -337.943645144296
 Nuclear energy                       230.37991424
 One-electron energy                 -919.04519432
 Two-electron energy                  350.72163494
 Virial quotient                       -1.00177313
 !RHF STATE 1.1 Dipole moment          -0.00620741    -0.00546156     0.00000000
 Dipole moment /Debye                  -0.01577662    -0.01388099     0.00000000

 Orbital energies:

         1.1          2.1          3.1          4.1          5.1          6.1          7.1          8.1          9.1         10.1
    -20.541136   -20.541007   -15.589324   -15.588912   -11.368127   -11.367668    -1.389083    -1.384337    -1.218197    -1.211972

        11.1         12.1         13.1         14.1         15.1         16.1         17.1         18.1         19.1         20.1
     -0.860440    -0.835353    -0.749709    -0.740675    -0.705438    -0.644841    -0.619047    -0.593362    -0.454318    -0.429094

        21.1         22.1
      0.033381     0.036343

         1.2          2.2          3.2          4.2          5.2          6.2
     -0.573574    -0.565576    -0.420146    -0.409629     0.092340     0.103319


 **********************************************************************************************************************************
 DATASETS  * FILE   NREC   LENGTH (MB)   RECORD NAMES
              1      19      691.95       500      610      700      900      950      970     1000      129      960     1100   
                                          VAR    BASINP    GEOM    SYMINP    ZMAT    AOBASIS   BASIS     P2S    ABASIS      S 
                                         1400     1410     1200     1210     1080     1600     1650     1300     1700   
                                           T        V       H0       H01     AOSYM     SMH    MOLCAS    ERIS     OPER   

              2       3        0.91       700     1000     2100   
                                         GEOM     BASIS     RHF  

 PROGRAMS   *        TOTAL       RHF       INT
 CPU TIMES  *        17.35     10.23      7.08
 REAL TIME  *        20.69 SEC
 DISK USED  *         2.52 GB      
 GA USED    *         0.00 MB       (max)       0.00 MB       (current)
 **********************************************************************************************************************************


1PROGRAM * CCSD (Closed-shell coupled cluster)     Authors: C. Hampel, H.-J. Werner, 1991, M. Deegan, P.J. Knowles, 1992


 Convergence thresholds:  THRVAR = 1.00D-08  THRDEN = 1.00D-12

 CCSD(T)     terms to be evaluated (factor= 1.000)


 Number of core orbitals:           6 (   6   0 )
 Number of closed-shell orbitals:  18 (  14   4 )
 Number of external orbitals:     168 ( 118  50 )

 Molecular orbitals read from record     2100.2  Type=RHF/CANONICAL (state 1.1)

 Number of N-1 electron functions:              18
 Number of N-2 electron functions:             171
 Number of singly external CSFs:              1852
 Number of doubly external CSFs:           2403256
 Total number of CSFs:                     2405109

 Length of J-op  integral file:               0.00 MB
 Length of K-op  integral file:               1.55 MB
 Length of 3-ext integral record:             0.00 MB

 Memory could be reduced to 56.93 Mwords without degradation in triples

 Integral transformation finished. Total CPU:   2.83 sec, npass=  1  Memory used:  23.60 MW

 Reference energy:                   -337.94364514

 MP2 singlet pair energy:              -0.62290580
 MP2 triplet pair energy:              -0.40624496
 MP2 correlation energy:               -1.02915076
 MP2 total energy:                   -338.97279591

 SCS-MP2 correlation energy:           -1.00026160   (PS=  1.200000  PT=  0.333333)
 SCS-MP2 total energy:               -338.94390675

 ITER.      SQ.NORM     CORR.ENERGY   TOTAL ENERGY   ENERGY CHANGE        DEN1      VAR(S)    VAR(P)  DIIS     TIME
   1      1.31957374    -1.05765187  -339.00129701    -0.02850111     0.00285083  0.10D-01  0.60D-02  1  1     9.20
   2      1.34512548    -1.05953524  -339.00318039    -0.00188338    -0.02598282  0.22D-03  0.11D-02  2  2    15.67
   3      1.35780159    -1.06043167  -339.00407682    -0.00089643    -0.00557761  0.22D-03  0.52D-04  3  3    22.18
   4      1.36302827    -1.06016662  -339.00381177     0.00026505    -0.00169852  0.22D-04  0.96D-05  4  4    28.69
   5      1.36518513    -1.06010910  -339.00375424     0.00005753    -0.00045100  0.27D-05  0.12D-05  5  5    35.19
   6      1.36570905    -1.06008034  -339.00372548     0.00002876    -0.00005000  0.28D-06  0.19D-06  6  6    41.71
   7      1.36583698    -1.06006795  -339.00371309     0.00001239    -0.00000196  0.35D-07  0.23D-07  6  1    48.22
   8      1.36587441    -1.06006674  -339.00371189     0.00000120    -0.00000703  0.75D-08  0.33D-08  6  2    54.75
   9      1.36587591    -1.06006691  -339.00371206    -0.00000017     0.00000267  0.13D-08  0.49D-09  6  3    61.27
  10      1.36588068    -1.06006636  -339.00371151     0.00000055    -0.00000110  0.32D-09  0.69D-10  6  4    67.78
  11      1.36588043    -1.06006662  -339.00371176    -0.00000025     0.00000046  0.59D-10  0.13D-10  6  5    74.30
  12      1.36588043    -1.06006659  -339.00371173     0.00000003     0.00000002  0.44D-11  0.35D-11  6  6    80.81
  13      1.36588015    -1.06006663  -339.00371178    -0.00000004     0.00000012  0.11D-11  0.38D-12  6  1    87.31
  14      1.36588005    -1.06006664  -339.00371179    -0.00000001     0.00000004  0.86D-13  0.72D-13  6  2    93.84
  15      1.36588003    -1.06006664  -339.00371178     0.00000000     0.00000001  0.20D-13  0.12D-13  6  3   100.33
  16      1.36588003    -1.06006664  -339.00371179    -0.00000000     0.00000000  0.44D-14  0.19D-14  6  4   106.84
  17      1.36588003    -1.06006664  -339.00371179     0.00000000    -0.00000000  0.65D-15  0.38D-15  6  5   113.37
  18      1.36588004    -1.06006664  -339.00371178     0.00000000    -0.00000000  0.19D-15  0.65D-16  6  6   119.88
  19      1.36588004    -1.06006664  -339.00371178    -0.00000000    -0.00000000  0.33D-16  0.14D-16  6  1   126.39
  20      1.36588004    -1.06006664  -339.00371178     0.00000000    -0.00000000  0.82D-17  0.35D-17  6  2   132.90
  21      1.36588004    -1.06006664  -339.00371178    -0.00000000     0.00000000  0.20D-17  0.70D-18  6  3   139.41
  22      1.36588004    -1.06006664  -339.00371178    -0.00000000     0.00000000  0.28D-18  0.17D-18  6  4   145.92
  23      1.36588004    -1.06006664  -339.00371178    -0.00000000     0.00000000  0.91D-19  0.35D-19  6  5   152.42
  24      1.36588004    -1.06006664  -339.00371178    -0.00000000     0.00000000  0.17D-19  0.84D-20  6  6   158.93
  25      1.36588004    -1.06006664  -339.00371178    -0.00000000    -0.00000000  0.46D-20  0.15D-20  6  3   165.46
  26      1.36588004    -1.06006664  -339.00371178    -0.00000000    -0.00000000  0.82D-21  0.23D-21  6  1   171.97

 Norm of t1 vector:      0.14847388      S-energy:     0.00000000      T1 diagnostic:  0.01749781
                                                                       D1 diagnostic:  0.05914928


 Total CPU time for triples:    158.73 sec


 RESULTS
 =======

  Reference energy                   -337.943645144297
  CCSD singlet pair energy             -0.699872731235
  CCSD triplet pair energy             -0.360193909378
  CCSD correlation energy              -1.060066640613

  Triples (T) contribution             -0.039979445780
  Total correlation energy             -1.100046086393

  CCSD total energy                  -339.003711784910
  CCSD[T] energy                     -339.046921934609
  CCSD-T energy                      -339.042565938325
 !CCSD(T) total energy               -339.043691230690

 Timing summary (sec):

 STEP                 CPU(USER)    SYS     CPU(TOT)    WALL
 Transformation          2.92      0.31      3.23      3.24
 CCSD iterations       169.06      4.82    173.88    174.06
 Triples               158.73      3.50    162.23    162.26

 Program statistics:

 Available memory in ccsd:               999998604
 Min. memory needed in ccsd:               6087664
 Max. memory used in ccsd:                 8297292
 Max. memory used in cckext:               8019339 (26 integral passes)



 **********************************************************************************************************************************
 DATASETS  * FILE   NREC   LENGTH (MB)   RECORD NAMES
              1      20      912.44       500      610      700      900      950      970     1000      129      960     1100   
                                          VAR    BASINP    GEOM    SYMINP    ZMAT    AOBASIS   BASIS     P2S    ABASIS      S 
                                         1400     1410     1200     1210     1080     1600     1650     1300     1700     1380   
                                           T        V       H0       H01     AOSYM     SMH    MOLCAS    ERIS     OPER     JKOP   

              2       3        0.91       700     1000     2100   
                                         GEOM     BASIS     RHF  

 PROGRAMS   *        TOTAL   CCSD(T)       RHF       INT
 CPU TIMES  *       348.07    330.71     10.23      7.08
 REAL TIME  *       360.31 SEC
 DISK USED  *         2.52 GB      
 GA USED    *         0.00 MB       (max)       0.00 MB       (current)
 **********************************************************************************************************************************

        CCSD(T)         RHF-SCF 
   -339.04369123   -337.94364514
 **********************************************************************************************************************************
 Variable memory released
