
 Primary working directories    : /tmp/879303.777.gen6.q
 Secondary working directories  : /tmp/879303.777.gen6.q
 Wavefunction directory         : /home/vulcan/lo21740/wfu/
 Main file repository           : /tmp/879303.777.gen6.q/

 ARCHNAME  : Linux/x86_64
 FC        : /opt/intel/compilers_and_libraries_2016.1.150/linux/bin/intel64/ifort
 FCVERSION : 16.0.1
 BLASLIB   : -mkl
 id        : ccgc

 Nodes     nprocs
 n083         1
 ga_uses_ma=false, calling ma_init with nominal heap.
 GA-space will be limited to   8.0 MW (determined by -G option)

 Using customized tuning parameters: mindgm=10; mindgv=16; mindgc=4; mindgr=1; noblas=0; mincuda=1000; minvec=7
 default implementation of scratch files=df  

 ***,Optimization of formamide
 memory,1000,m
 gthresh,energy=1.0d-12,orbital=1.0d-10,oneint=1.0d-16,twoint=1.0d-16,optgrad=1.0d-6,compress=1.0d-13
 geomtyp=xyz
 
 bohr
 geometry = {
  C   -3.8255344509    0.0853271511    0.0000000000
  O   -2.7283136848    2.1379464322   -0.0000000000
  N   -2.6805869470   -2.1803425450    0.0000000000
  H   -3.7367603251   -3.7524110941    0.0000000000
  H   -0.7517449544   -2.3083940641    0.0000000000
  H   -5.9052288211   -0.0181352834   -0.0000000000
  C    3.8255344509   -0.0853271511    0.0000000000
  O    2.7283136848   -2.1379464322    0.0000000000
  N    2.6805869470    2.1803425450   -0.0000000000
  H    3.7367603251    3.7524110941   -0.0000000000
  H    0.7517449544    2.3083940641   -0.0000000000
  H    5.9052288211    0.0181352834   -0.0000000000
 }
 
 basis=AVDZ, H=VDZ
 {rhf;maxit,200}
 {ccsd(t);maxit,200}

 Variables initialized (661), CPU time= 0.01 sec
 Commands  initialized (458), CPU time= 0.00 sec, 486 directives.
 Default parameters read. Elapsed time= 0.04 sec

 Checking input...
 Passed
1


                                         ***  PROGRAM SYSTEM MOLPRO  ***
                         Copyright, University College Cardiff Consultants Limited, 2008

                                    Version 2010.1 linked May 16 2016 07:17:05


 **********************************************************************************************************************************
 LABEL *   Optimization of formamide                                                     
 Linux-4.4.3/n083(x86_64) 64 bit mpp version                                             DATE: 23-May-23          TIME: 19:32:53  
 **********************************************************************************************************************************

 SHA1:             9e8077add272b0f3cad6f7df79ec5211205f459d
 **********************************************************************************************************************************

 THRESHOLDS:

 ZERO    =  1.00D-12  ONEINT  =  1.00D-16  TWOINT  =  1.00D-16  PREFAC  =  1.00D-14  LOCALI  =  1.00D-09  EORDER  =  1.00D-04
 ENERGY  =  1.00D-12  ETEST   =  0.00D+00  EDENS   =  0.00D+00  THRDEDEF=  1.00D-06  GRADIENT=  1.00D-02  STEP    =  1.00D-03
 ORBITAL =  1.00D-10  CIVEC   =  1.00D-05  COEFF   =  1.00D-04  PRINTCI =  5.00D-02  PUNCHCI =  9.90D+01  OPTGRAD =  1.00D-06
 OPTENERG=  1.00D-06  OPTSTEP =  3.00D-04  THRGRAD =  1.00D-10  COMPRESS=  1.00D-13  VARMIN  =  1.00D-07  VARMAX  =  1.00D-03
 THRDOUB =  0.00D+00  THRDIV  =  1.00D-05  THRRED  =  1.00D-07  THRPSP  =  1.00D+00  THRDC   =  1.00D-10  THRCS   =  1.00D-10
 THRNRM  =  1.00D-08  THREQ   =  0.00D+00  THRDE   =  1.00D+00  THRREF  =  1.00D-05  SPARFAC =  1.00D+00  THRDLP  =  1.00D-07
 THRDIA  =  1.00D-10  THRDLS  =  1.00D-07  THRGPS  =  0.00D+00  THRKEX  =  0.00D+00  THRDIS  =  2.00D-01  THRVAR  =  1.00D-10
 THRLOC  =  1.00D-06  THRGAP  =  1.00D-06  THRLOCT = -1.00D+00  THRGAPT = -1.00D+00  THRORB  =  1.00D-06  THRMLTP =  0.00D+00
 THRCPQCI=  1.00D-10  KEXTA   =  0.00D+00  THRCOARS=  0.00D+00  SYMTOL  =  1.00D-06  GRADTOL =  1.00D-06  THROVL  =  1.00D-08
 THRORTH =  1.00D-08  GRID    =  1.00D-06  GRIDMAX =  1.00D-03  DTMAX   =  0.00D+00

 SETTING GEOMTYP        =    XYZ
 ZUNIT=BOHR
 

 Variable memory set to 1000000000 words,  buffer space   230000 words

 SETTING BASIS          =    AVDZ,H=VDZ


 Recomputing integrals since basis changed


 Using spherical harmonics

 Library entry C      S aug-cc-pVDZ          selected for orbital group  1
 Library entry C      P aug-cc-pVDZ          selected for orbital group  1
 Library entry C      D aug-cc-pVDZ          selected for orbital group  1
 Library entry O      S aug-cc-pVDZ          selected for orbital group  2
 Library entry O      P aug-cc-pVDZ          selected for orbital group  2
 Library entry O      D aug-cc-pVDZ          selected for orbital group  2
 Library entry N      S aug-cc-pVDZ          selected for orbital group  3
 Library entry N      P aug-cc-pVDZ          selected for orbital group  3
 Library entry N      D aug-cc-pVDZ          selected for orbital group  3
 Library entry H      S cc-pVDZ              selected for orbital group  4
 Library entry H      P cc-pVDZ              selected for orbital group  4

1PROGRAM * SEWARD (Integral evaluation for generally contracted gaussian basis sets)     Author: Roland Lindh, 1990

 Geometry written to block  1 of record 700


 Point group  C2h 



 ATOMIC COORDINATES

 NR  ATOM    CHARGE       X              Y              Z

   1  C       6.00   -3.825534451    0.085327151    0.000000000
   2  C       6.00    3.825534451   -0.085327151    0.000000000
   3  O       8.00   -2.728313685    2.137946432    0.000000000
   4  O       8.00    2.728313685   -2.137946432    0.000000000
   5  N       7.00   -2.680586947   -2.180342545    0.000000000
   6  N       7.00    2.680586947    2.180342545    0.000000000
   7  H       1.00   -3.736760325   -3.752411094    0.000000000
   8  H       1.00    3.736760325    3.752411094    0.000000000
   9  H       1.00   -0.751744954   -2.308394064    0.000000000
  10  H       1.00    0.751744954    2.308394064    0.000000000
  11  H       1.00   -5.905228821   -0.018135283    0.000000000
  12  H       1.00    5.905228821    0.018135283    0.000000000

 Bond lengths in Bohr (Angstrom)

  1- 3  2.327474881   1- 5  2.538535790   1-11  2.082266349   2- 4  2.327474881   2- 6  2.538535790
       ( 1.231646662)       ( 1.343335284)       ( 1.101887895)       ( 1.231646662)       ( 1.343335284)

  2-12  2.082266349   5- 7  1.893911753   5- 9  1.933087847   6- 8  1.893911753   6-10  1.933087847
       ( 1.101887895)       ( 1.002214935)       ( 1.022946032)       ( 1.002214935)       ( 1.022946032)

 Bond angles

  1- 5- 7  119.29576741   1- 5- 9  120.60774283   2- 6- 8  119.29576741   2- 6-10  120.60774283

  3- 1- 5  125.06384009   3- 1-11  120.97463470   4- 2- 6  125.06384009   4- 2-12  120.97463470

  5- 1-11  113.96152522   6- 2-12  113.96152522   7- 5- 9  120.09648976   8- 6-10  120.09648976

 NUCLEAR CHARGE:                   48
 NUMBER OF PRIMITIVE AOS:         264
 NUMBER OF SYMMETRY AOS:          252
 NUMBER OF CONTRACTIONS:          168   (  60Ag  +  24Au  +  60Bu  +  24Bg  )
 NUMBER OF CORE ORBITALS:           6   (   3Ag  +   0Au  +   3Bu  +   0Bg  )
 NUMBER OF VALENCE ORBITALS:       30   (  12Ag  +   3Au  +  12Bu  +   3Bg  )


 NUCLEAR REPULSION ENERGY  230.52603699


 Eigenvalues of metric

         1 0.626E-03 0.114E-02 0.161E-02 0.366E-02 0.514E-02 0.794E-02 0.801E-02 0.900E-02
         2 0.257E-01 0.382E-01 0.592E-01 0.104E+00 0.151E+00 0.200E+00 0.249E+00 0.284E+00
         3 0.417E-03 0.134E-02 0.168E-02 0.437E-02 0.525E-02 0.720E-02 0.813E-02 0.107E-01
         4 0.210E-01 0.334E-01 0.523E-01 0.140E+00 0.162E+00 0.210E+00 0.241E+00 0.297E+00


 Contracted 2-electron integrals neglected if value below      1.0D-16
 AO integral compression algorithm  1   Integral accuracy      1.0D-16

     272.892 MB (compressed) written to integral file (100.0%)

     Node minimum: 272.892 MB, node maximum: 272.892 MB


 NUMBER OF SORTED TWO-ELECTRON INTEGRALS:   26566530.     BUFFER LENGTH:  32768
 NUMBER OF SEGMENTS:   2  SEGMENT LENGTH:   15996660      RECORD LENGTH: 524288

 Memory used in sort:      16.55 MW

 SORT1 READ    33456240. AND WROTE    26566528. INTEGRALS IN     77 RECORDS. CPU TIME:     0.47 SEC, REAL TIME:     0.65 SEC
 SORT2 READ    26566528. AND WROTE    26566530. INTEGRALS IN   1041 RECORDS. CPU TIME:     0.29 SEC, REAL TIME:     0.41 SEC

 FILE SIZES:   FILE 1:   220.9 MBYTE,  FILE 4:   323.0 MBYTE,   TOTAL:    543.9 MBYTE

 OPERATOR DM      FOR CENTER  0  COORDINATES:    0.000000    0.000000    0.000000


 **********************************************************************************************************************************
 DATASETS  * FILE   NREC   LENGTH (MB)   RECORD NAMES
              1      19      221.01       500      610      700      900      950      970     1000      129      960     1100   
                                          VAR    BASINP    GEOM    SYMINP    ZMAT    AOBASIS   BASIS     P2S    ABASIS      S 
                                         1400     1410     1200     1210     1080     1600     1650     1300     1700   
                                           T        V       H0       H01     AOSYM     SMH    MOLCAS    ERIS     OPER   

 PROGRAMS   *        TOTAL       INT
 CPU TIMES  *         3.01      2.97
 REAL TIME  *         3.64 SEC
 DISK USED  *       817.69 MB      
 GA USED    *         0.00 MB       (max)       0.00 MB       (current)
 **********************************************************************************************************************************

1PROGRAM * RHF-SCF (CLOSED SHELL)       Authors: W. Meyer, H.-J. Werner


 NUMBER OF ELECTRONS:      24+   24-
 CONVERGENCE THRESHOLDS:    1.00E-10 (Density)    1.00E-13 (Energy)
 MAX. NUMBER OF ITERATIONS:      200
 INTERPOLATION TYPE:            DIIS
 INTERPOLATION STEPS:              2 (START)      1 (STEP)
 LEVEL SHIFTS:                  0.00 (CLOSED)  0.00 (OPEN) 



 Orbital guess generated from atomic densities. Full valence occupancy:   15   3  15   3

 Molecular orbital dump at record        2100.2

 Initial alpha occupancy:  10   2  10   2
 Initial beta  occupancy:  10   2  10   2
 Wave function symmetry:    1

 ITERATION    DDIFF          GRAD             ENERGY        2-EL.EN.            DIPOLE MOMENTS         DIIS
    1      0.000D+00      0.000D+00      -337.80386575    704.707551    0.00000    0.00000    0.00000    0
    2      0.000D+00      0.118D-01      -337.88134358    699.105992    0.00000    0.00000    0.00000    1
    3      0.225D-01      0.856D-02      -337.93919973    701.849344    0.00000    0.00000    0.00000    2
    4      0.888D-02      0.113D-02      -337.94140455    701.750657    0.00000    0.00000    0.00000    3
    5      0.195D-02      0.389D-03      -337.94167075    701.685976    0.00000    0.00000    0.00000    4
    6      0.700D-03      0.127D-03      -337.94173136    701.711338    0.00000    0.00000    0.00000    5
    7      0.302D-03      0.563D-04      -337.94174219    701.702464    0.00000    0.00000    0.00000    6
    8      0.149D-03      0.167D-04      -337.94174312    701.708056    0.00000    0.00000    0.00000    7
    9      0.462D-04      0.508D-05      -337.94174319    701.705582    0.00000    0.00000    0.00000    8
   10      0.125D-04      0.176D-05      -337.94174320    701.706116    0.00000    0.00000    0.00000    7
   11      0.517D-05      0.420D-06      -337.94174320    701.706044    0.00000    0.00000    0.00000    8
   12      0.119D-05      0.629D-07      -337.94174320    701.706051    0.00000    0.00000    0.00000    7
   13      0.184D-06      0.147D-07      -337.94174320    701.706052    0.00000    0.00000    0.00000    7
   14      0.455D-07      0.265D-08      -337.94174320    701.706052    0.00000    0.00000    0.00000    6
   15      0.650D-08      0.923D-09      -337.94174320    701.706052    0.00000    0.00000    0.00000    6
   16      0.200D-08      0.394D-09      -337.94174320    701.706052    0.00000    0.00000    0.00000    6
   17      0.694D-09      0.105D-09      -337.94174320    701.706052    0.00000    0.00000    0.00000    7
   18      0.236D-09      0.295D-10      -337.94174320    701.706052    0.00000    0.00000    0.00000    7
   19      0.775D-10      0.939D-11      -337.94174320    701.706052    0.00000    0.00000    0.00000    7
   20      0.236D-10      0.368D-11      -337.94174320    701.706052    0.00000    0.00000    0.00000    7
   21      0.936D-11      0.836D-12      -337.94174320    701.706052    0.00000    0.00000    0.00000    0

 Final occupancy:  10   2  10   2

 !RHF STATE 1.1 Energy               -337.941743204178
 Nuclear energy                       230.52603699
 One-electron energy                 -919.32080612
 Two-electron energy                  350.85302592
 Virial quotient                       -1.00175630
 !RHF STATE 1.1 Dipole moment           0.00000000     0.00000000     0.00000000
 Dipole moment /Debye                   0.00000000     0.00000000     0.00000000

 Orbital energies:

         1.1          2.1          3.1          4.1          5.1          6.1          7.1          8.1          9.1         10.1
    -20.540800   -15.589179   -11.368638    -1.389160    -1.212701    -0.860900    -0.750252    -0.645134    -0.619248    -0.454259

        11.1         12.1
      0.068845     0.093358

         1.2          2.2          3.2          4.2
     -0.573682    -0.409812     0.093989     0.154510

         1.3          2.3          3.3          4.3          5.3          6.3          7.3          8.3          9.3         10.3
    -20.540800   -15.589179   -11.368639    -1.384405    -1.218926    -0.835748    -0.741257    -0.705900    -0.593681    -0.429056

        11.3         12.3
      0.068028     0.083166

         1.4          2.4          3.4          4.4
     -0.565604    -0.420418     0.104120     0.190165


 **********************************************************************************************************************************
 DATASETS  * FILE   NREC   LENGTH (MB)   RECORD NAMES
              1      19      221.01       500      610      700      900      950      970     1000      129      960     1100   
                                          VAR    BASINP    GEOM    SYMINP    ZMAT    AOBASIS   BASIS     P2S    ABASIS      S 
                                         1400     1410     1200     1210     1080     1600     1650     1300     1700   
                                           T        V       H0       H01     AOSYM     SMH    MOLCAS    ERIS     OPER   

              2       3        0.64       700     1000     2100   
                                         GEOM     BASIS     RHF  

 PROGRAMS   *        TOTAL       RHF       INT
 CPU TIMES  *         4.46      1.45      2.97
 REAL TIME  *         5.44 SEC
 DISK USED  *       817.69 MB      
 GA USED    *         0.00 MB       (max)       0.00 MB       (current)
 **********************************************************************************************************************************


1PROGRAM * CCSD (Closed-shell coupled cluster)     Authors: C. Hampel, H.-J. Werner, 1991, M. Deegan, P.J. Knowles, 1992


 Convergence thresholds:  THRVAR = 1.00D-08  THRDEN = 1.00D-12

 CCSD(T)     terms to be evaluated (factor= 1.000)


 Number of core orbitals:           6 (   3   0   3   0 )
 Number of closed-shell orbitals:  18 (   7   2   7   2 )
 Number of external orbitals:     144 (  50  22  50  22 )

 Molecular orbitals read from record     2100.2  Type=RHF/CANONICAL (state 1.1)

 Number of N-1 electron functions:              18
 Number of N-2 electron functions:             171
 Number of singly external CSFs:               788
 Number of doubly external CSFs:            880304
 Total number of CSFs:                      881093

 Length of J-op  integral file:               0.00 MB
 Length of K-op  integral file:               0.62 MB
 Length of 3-ext integral record:             0.00 MB

 Memory could be reduced to 18.60 Mwords without degradation in triples

 Integral transformation finished. Total CPU:   0.61 sec, npass=  1  Memory used:   5.80 MW

 Reference energy:                   -337.94174320

 MP2 singlet pair energy:              -0.61953919
 MP2 triplet pair energy:              -0.40479633
 MP2 correlation energy:               -1.02433552
 MP2 total energy:                   -338.96607873

 SCS-MP2 correlation energy:           -0.99532030   (PS=  1.200000  PT=  0.333333)
 SCS-MP2 total energy:               -338.93706351

 ITER.      SQ.NORM     CORR.ENERGY   TOTAL ENERGY   ENERGY CHANGE        DEN1      VAR(S)    VAR(P)  DIIS     TIME
   1      1.31864945    -1.05305582  -338.99479903    -0.02872030     0.00238754  0.10D-01  0.60D-02  1  1     1.71
   2      1.34408529    -1.05499723  -338.99674043    -0.00194140    -0.02585800  0.22D-03  0.11D-02  2  2     2.88
   3      1.35666058    -1.05589194  -338.99763515    -0.00089472    -0.00554440  0.22D-03  0.51D-04  3  3     4.05
   4      1.36185572    -1.05562792  -338.99737113     0.00026402    -0.00168472  0.21D-04  0.92D-05  4  4     5.23
   5      1.36397746    -1.05557159  -338.99731479     0.00005633    -0.00044175  0.26D-05  0.11D-05  5  5     6.41
   6      1.36448499    -1.05554215  -338.99728535     0.00002944    -0.00004728  0.24D-06  0.17D-06  6  6     7.59
   7      1.36461208    -1.05553026  -338.99727346     0.00001189    -0.00000764  0.31D-07  0.22D-07  6  2     8.77
   8      1.36463595    -1.05553013  -338.99727333     0.00000013     0.00000002  0.56D-08  0.26D-08  6  1     9.95
   9      1.36463825    -1.05552983  -338.99727303     0.00000030     0.00000184  0.91D-09  0.45D-09  6  4    11.13
  10      1.36464230    -1.05552977  -338.99727298     0.00000006    -0.00000043  0.25D-09  0.46D-10  6  3    12.32
  11      1.36464251    -1.05552985  -338.99727305    -0.00000008     0.00000016  0.38D-10  0.11D-10  6  5    13.49
  12      1.36464232    -1.05552986  -338.99727307    -0.00000002     0.00000008  0.52D-11  0.26D-11  6  6    14.66
  13      1.36464202    -1.05552990  -338.99727311    -0.00000004     0.00000013  0.79D-12  0.33D-12  6  2    15.83
  14      1.36464187    -1.05552991  -338.99727312    -0.00000001     0.00000004  0.10D-12  0.67D-13  6  1    17.01
  15      1.36464180    -1.05552992  -338.99727312    -0.00000000     0.00000001  0.20D-13  0.13D-13  6  4    18.19
  16      1.36464177    -1.05552992  -338.99727312    -0.00000000     0.00000000  0.35D-14  0.20D-14  6  3    19.37
  17      1.36464176    -1.05552992  -338.99727312    -0.00000000    -0.00000000  0.87D-15  0.33D-15  6  5    20.55
  18      1.36464176    -1.05552992  -338.99727312    -0.00000000     0.00000000  0.12D-15  0.79D-16  6  6    21.73
  19      1.36464176    -1.05552992  -338.99727312    -0.00000000     0.00000000  0.32D-16  0.13D-16  6  2    22.91
  20      1.36464176    -1.05552992  -338.99727312    -0.00000000     0.00000000  0.59D-17  0.21D-17  6  1    24.09
  21      1.36464176    -1.05552992  -338.99727312    -0.00000000     0.00000000  0.11D-17  0.59D-18  6  4    25.26
  22      1.36464176    -1.05552992  -338.99727312    -0.00000000     0.00000000  0.34D-18  0.15D-18  6  3    26.45
  23      1.36464176    -1.05552992  -338.99727312    -0.00000000     0.00000000  0.89D-19  0.26D-19  6  5    27.63
  24      1.36464176    -1.05552992  -338.99727312    -0.00000000    -0.00000000  0.17D-19  0.68D-20  6  6    28.81
  25      1.36464176    -1.05552992  -338.99727312     0.00000000    -0.00000000  0.39D-20  0.14D-20  6  4    29.99

 Norm of t1 vector:      0.14799374      S-energy:    -0.00000000      T1 diagnostic:  0.01744123
                                                                       D1 diagnostic:  0.05907859


 Total CPU time for triples:     29.57 sec


 RESULTS
 =======

  Reference energy                   -337.941743204177
  CCSD singlet pair energy             -0.696656124081
  CCSD triplet pair energy             -0.358873793931
  CCSD correlation energy              -1.055529918014

  Triples (T) contribution             -0.039270601562
  Total correlation energy             -1.094800519576

  CCSD total energy                  -338.997273122191
  CCSD[T] energy                     -339.039740930145
  CCSD-T energy                      -339.035446468761
 !CCSD(T) total energy               -339.036543723753

 Timing summary (sec):

 STEP                 CPU(USER)    SYS     CPU(TOT)    WALL
 Transformation          0.63      0.11      0.74      0.74
 CCSD iterations        29.36      1.51     30.87     30.94
 Triples                29.57      1.18     30.75     30.76

 Program statistics:

 Available memory in ccsd:               999998604
 Min. memory needed in ccsd:               2290072
 Max. memory used in ccsd:                 3105212
 Max. memory used in cckext:               2925398 (25 integral passes)



 **********************************************************************************************************************************
 DATASETS  * FILE   NREC   LENGTH (MB)   RECORD NAMES
              1      20      294.07       500      610      700      900      950      970     1000      129      960     1100   
                                          VAR    BASINP    GEOM    SYMINP    ZMAT    AOBASIS   BASIS     P2S    ABASIS      S 
                                         1400     1410     1200     1210     1080     1600     1650     1300     1700     1380   
                                           T        V       H0       H01     AOSYM     SMH    MOLCAS    ERIS     OPER     JKOP   

              2       3        0.64       700     1000     2100   
                                         GEOM     BASIS     RHF  

 PROGRAMS   *        TOTAL   CCSD(T)       RHF       INT
 CPU TIMES  *        64.02     59.56      1.45      2.97
 REAL TIME  *        67.91 SEC
 DISK USED  *       817.69 MB      
 GA USED    *         0.00 MB       (max)       0.00 MB       (current)
 **********************************************************************************************************************************

        CCSD(T)         RHF-SCF 
   -339.03654372   -337.94174320
 **********************************************************************************************************************************
 Variable memory released
