
    -----------------------------------------------------------------------
          Psi4: An Open-Source Ab Initio Electronic Structure Package
                               Psi4 1.4a2.dev629 

                         Git: Rev {master} 2938fc2 dirty


    D. G. A. Smith, L. A. Burns, A. C. Simmonett, R. M. Parrish,
    M. C. Schieber, R. Galvelis, P. Kraus, H. Kruse, R. Di Remigio,
    A. Alenaizan, A. M. James, S. Lehtola, J. P. Misiewicz, M. Scheurer,
    R. A. Shaw, J. B. Schriber, Y. Xie, Z. L. Glick, D. A. Sirianni,
    J. S. O'Brien, J. M. Waldrop, A. Kumar, E. G. Hohenstein,
    B. P. Pritchard, B. R. Brooks, H. F. Schaefer III, A. Yu. Sokolov,
    K. Patkowski, A. E. DePrince III, U. Bozkaya, R. A. King,
    F. A. Evangelista, J. M. Turney, T. D. Crawford, C. D. Sherrill,
    J. Chem. Phys. 152(18) 184108 (2020). https://doi.org/10.1063/5.0006002

                            Additional Code Authors
    E. T. Seidl, C. L. Janssen, E. F. Valeev, M. L. Leininger,
    J. F. Gonthier, R. M. Richard, H. R. McAlexander, M. Saitow, X. Wang,
    P. Verma, and M. H. Lechner

             Previous Authors, Complete List of Code Contributors,
                       and Citations for Specific Modules
    https://github.com/psi4/psi4/blob/master/codemeta.json
    https://github.com/psi4/psi4/graphs/contributors
    http://psicode.org/psi4manual/master/introduction.html#citing-psifour

    -----------------------------------------------------------------------


    Psi4 started on: Monday, 08 November 2021 04:39PM

    Process ID: 31694
    Host:       n054
    PSIDATADIR: /opt/psi/4/master/share/psi4
    Memory:     500.0 MiB
    Threads:    1
    
  ==> Input File <==

--------------------------------------------------------------------------
import os
memory 14 GB 
 
molecule {
 C   -3.5180206914    0.2928056328   -0.0000000000
 C   -0.9613347612   -1.0025301716    0.0000000000
 O    0.9343907823    0.8869943251   -0.0000000000
 C    3.3840892359   -0.1705414495   -0.0000000000
 H   -5.0327329826   -1.1056927426    0.0000000000
 H   -3.7165036551    1.4821161041   -1.6722488478
 H   -3.7165036551    1.4821161041    1.6722488478
 H   -0.7525250142   -2.2141339582    1.6680562682
 H   -0.7525250142   -2.2141339582   -1.6680562682
 H    4.7342029459    1.3837646828   -0.0000000000
 H    3.7022044148   -1.3412988545   -1.6821058505
 H    3.7022044148   -1.3412988545    1.6821058505
units bohr
}

basis {

assign 6-31g_2dfp_

[ 6-31g_2dfp_ ]

spherical

!----------------------------------------------------------------------
! Basis Set Exchange
! Version v0.8.13
! https://www.basissetexchange.org
!----------------------------------------------------------------------
!   Basis set: 6-31G(2df,p)
! Description: 6-31G(2df,p)
!        Role: orbital
!     Version: 0  (Data from the original Basis Set Exchange)
!----------------------------------------------------------------------


****
H     0
S    3   1.00
     18.7311370              0.03349460
      2.8253937              0.23472695
      0.6401217              0.81375733
S    1   1.00
      0.1612778              1.00000000
P    1   1.00
      1.5000000              1.0000000
P    1   1.00
      0.3750000              1.0000000
****
B     0
S    6   1.00
   2068.8823000              0.0018663
    310.6495700              0.0142515
     70.6830330              0.0695516
     19.8610800              0.2325729
      6.2993048              0.4670787
      2.1270270              0.3634314
SP   3   1.00
      4.7279710             -0.1303938              0.0745976
      1.1903377             -0.1307889              0.3078467
      0.3594117              1.1309444              0.7434568
SP   1   1.00
      0.1267512              1.0000000              1.0000000
D    1   1.00
      0.8020000              1.0000000
D    1   1.00
      0.2005000              1.0000000
F    1   1.00
      0.5000000              1.0000000
****
C     0
S    6   1.00
   3047.5249000              0.0018347
    457.3695100              0.0140373
    103.9486900              0.0688426
     29.2101550              0.2321844
      9.2866630              0.4679413
      3.1639270              0.3623120
SP   3   1.00
      7.8682724             -0.1193324              0.0689991
      1.8812885             -0.1608542              0.3164240
      0.5442493              1.1434564              0.7443083
SP   1   1.00
      0.1687144              1.0000000              1.0000000
D    1   1.00
      1.2520000              1.0000000
D    1   1.00
      0.3130000              1.0000000
F    1   1.00
      0.8000000              1.0000000
****
N     0
S    6   1.00
   4173.5110000              0.0018348
    627.4579000              0.0139950
    142.9021000              0.0685870
     40.2343300              0.2322410
     12.8202100              0.4690700
      4.3904370              0.3604550
SP   3   1.00
     11.6263580             -0.1149610              0.0675800
      2.7162800             -0.1691180              0.3239070
      0.7722180              1.1458520              0.7408950
SP   1   1.00
      0.2120313              1.0000000              1.0000000
D    1   1.00
      1.8260000              1.0000000
D    1   1.00
      0.4565000              1.0000000
F    1   1.00
      1.0000000              1.0000000
****
O     0
S    6   1.00
   5484.6717000              0.0018311
    825.2349500              0.0139501
    188.0469600              0.0684451
     52.9645000              0.2327143
     16.8975700              0.4701930
      5.7996353              0.3585209
SP   3   1.00
     15.5396160             -0.1107775              0.0708743
      3.5999336             -0.1480263              0.3397528
      1.0137618              1.1307670              0.7271586
SP   1   1.00
      0.2700058              1.0000000              1.0000000
D    1   1.00
      2.5840000              1.0000000
D    1   1.00
      0.6460000              1.0000000
F    1   1.00
      1.4000000              1.0000000
****
F     0
S    6   1.00
   7001.7130900              0.0018196169
   1051.3660900              0.0139160796
    239.2856900              0.0684053245
     67.3974453              0.233185760
     21.5199573              0.471267439
      7.40310130             0.356618546
SP   3   1.00
     20.8479528             -0.108506975            0.0716287243
      4.80830834            -0.146451658            0.3459121030
      1.34406986             1.128688580            0.7224699570
SP   1   1.00
      0.358151393            1.0000000              1.0000000
D    1   1.00
      3.5000000              1.0000000
D    1   1.00
      0.8750000              1.0000000
F    1   1.00
      1.8500000              1.0000000
****
Al     0
S    6   1.00
  13983.1000000              0.00194267
   2098.7500000              0.0148599
    477.7050000              0.0728494
    134.3600000              0.2468300
     42.8709000              0.4872580
     14.5189000              0.3234960
SP   6   1.00
    239.6680000             -0.00292619             0.00460285
     57.4419000             -0.0374080              0.0331990
     18.2859000             -0.1144870              0.1362820
      6.5991400              0.1156350              0.3304760
      2.4904900              0.6125950              0.4491460
      0.9445400              0.3937990              0.2657040
SP   3   1.00
      1.2779000             -0.2276060             -0.0175130
      0.3975900              0.00144583             0.2445330
      0.1600950              1.0927900              0.8049340
SP   1   1.00
      0.0556577              1.0000000              1.0000000
D    1   1.00
      0.6500000              1.0000000
D    1   1.00
      0.1625000              1.0000000
F    1   1.00
      0.2500000              1.0000000
****
Si     0
S    6   1.00
  16115.9000000              0.00195948
   2425.5800000              0.01492880
    553.8670000              0.07284780
    156.3400000              0.24613000
     50.0683000              0.48591400
     17.0178000              0.32500200
SP   6   1.00
    292.7180000             -0.00278094             0.00443826
     69.8731000             -0.03571460             0.03266790
     22.3363000             -0.11498500             0.13472100
      8.1503900              0.09356340             0.32867800
      3.1345800              0.60301700             0.44964000
      1.2254300              0.41895900             0.26137200
SP   3   1.00
      1.7273800             -0.24463000            -0.01779510
      0.5729220              0.00431572             0.25353900
      0.2221920              1.09818000             0.80066900
SP   1   1.00
      0.0778369              1.00000000             1.00000000
D    1   1.00
      0.9000000              1.0000000
D    1   1.00
      0.2250000              1.0000000
F    1   1.00
      0.3200000              1.0000000
****
P     0
S    6   1.00
  19413.3000000              0.0018516
   2909.4200000              0.0142062
    661.3640000              0.0699995
    185.7590000              0.2400790
     59.1943000              0.4847620
     20.0310000              0.3352000
SP   6   1.00
    339.4780000             -0.00278217             0.00456462
     81.0101000             -0.0360499              0.03369360
     25.8780000             -0.1166310              0.13975500
      9.4522100              0.0968328              0.33936200
      3.6656600              0.6144180              0.45092100
      1.4674600              0.4037980              0.23858600
SP   3   1.00
      2.1562300             -0.2529230             -0.01776530
      0.7489970              0.0328517              0.27405800
      0.2831450              1.0812500              0.78542100
SP   1   1.00
      0.0998317              1.0000000              1.00000000
D    1   1.00
      1.1000000              1.0000000
D    1   1.00
      0.2750000              1.0000000
F    1   1.00
      0.4500000              1.0000000
****
S     0
S    6   1.00
  21917.1000000              0.0018690
   3301.4900000              0.0142300
    754.1460000              0.0696960
    212.7110000              0.2384870
     67.9896000              0.4833070
     23.0515000              0.3380740
SP   6   1.00
    423.7350000             -0.0023767              0.0040610
    100.7100000             -0.0316930              0.0306810
     32.1599000             -0.1133170              0.1304520
     11.8079000              0.0560900              0.3272050
      4.6311000              0.5922550              0.4528510
      1.8702500              0.4550060              0.2560420
SP   3   1.00
      2.6158400             -0.2503740             -0.0145110
      0.9221670              0.0669570              0.3102630
      0.3412870              1.0545100              0.7544830
SP   1   1.00
      0.1171670              1.0000000              1.0000000
D    1   1.00
      1.3000000              1.0000000
D    1   1.00
      0.3250000              1.0000000
F    1   1.00
      0.5500000              1.0000000
****
Cl     0
S    6   1.00
  25180.1000000              0.0018330
   3780.3500000              0.0140340
    860.4740000              0.0690970
    242.1450000              0.2374520
     77.3349000              0.4830340
     26.2470000              0.3398560
SP   6   1.00
    491.7650000             -0.0022974              0.0039894
    116.9840000             -0.0307140              0.0303180
     37.4153000             -0.1125280              0.1298800
     13.7834000              0.0450160              0.3279510
      5.4521500              0.5893530              0.4535270
      2.2258800              0.4652060              0.2521540
SP   3   1.00
      3.1864900             -0.2518300             -0.0142990
      1.1442700              0.0615890              0.3235720
      0.4203770              1.0601800              0.7435070
SP   1   1.00
      0.1426570              1.0000000              1.0000000
D    1   1.00
      1.5000000              1.0000000
D    1   1.00
      0.3750000              1.0000000
F    1   1.00
      0.7000000              1.0000000
****
}


set {
reference rhf                          
freeze_core true
e_convergence 10                       
d_convergence 10                      
dft_spherical_points 1202
dft_radial_points 99
}

e = energy('b3lyp')

print_out('Grab this energy {0}'.format(e))
--------------------------------------------------------------------------

  Memory set to  13.039 GiB by Python driver.

Scratch directory: /tmp/

*** tstart() called on n054
*** at Mon Nov  8 16:39:02 2021

   => Loading Basis Set <=

    Name: ANONYMOUSFBA763FE
    Role: ORBITAL
    Keyword: BASIS
    atoms 1-2, 4 entry C          line    48 inputblock 6-31g_2dfp_ 
    atoms 3      entry O          line    90 inputblock 6-31g_2dfp_ 
    atoms 5-12   entry H          line    15 inputblock 6-31g_2dfp_ 


         ---------------------------------------------------------
                                   SCF
               by Justin Turney, Rob Parrish, Andy Simmonett
                          and Daniel G. A. Smith
                              RKS Reference
                        1 Threads,  13351 MiB Core
         ---------------------------------------------------------

  ==> Geometry <==

    Molecular point group: cs
    Full point group: Cs

    Geometry (in Bohr), charge = 0, multiplicity = 1:

       Center              X                  Y                   Z               Mass       
    ------------   -----------------  -----------------  -----------------  -----------------
         C           -3.517284576725     0.297378357086     0.000000000000    12.000000000000
         C           -0.960598646525    -0.997957447314     0.000000000000    12.000000000000
         O            0.935126896975     0.891567049386     0.000000000000    15.994914619570
         C            3.384825350575    -0.165968725214     0.000000000000    12.000000000000
         H           -5.031996867925    -1.101120018314     0.000000000000     1.007825032230
         H           -3.715767540425     1.486688828386    -1.672248847800     1.007825032230
         H           -3.715767540425     1.486688828386     1.672248847800     1.007825032230
         H           -0.751788899525    -2.209561233914     1.668056268200     1.007825032230
         H           -0.751788899525    -2.209561233914    -1.668056268200     1.007825032230
         H            4.734939060575     1.388337407086     0.000000000000     1.007825032230
         H            3.702940529475    -1.336726130214    -1.682105850500     1.007825032230
         H            3.702940529475    -1.336726130214     1.682105850500     1.007825032230

  Running in cs symmetry.

  Rotational constants: A =      0.93963  B =      0.13914  C =      0.13007 [cm^-1]
  Rotational constants: A =  28169.51421  B =   4171.17588  C =   3899.27318 [MHz]
  Nuclear repulsion =  133.685862132481702

  Charge       = 0
  Multiplicity = 1
  Electrons    = 34
  Nalpha       = 17
  Nbeta        = 17

  ==> Algorithm <==

  SCF Algorithm Type is DF.
  DIIS enabled.
  MOM disabled.
  Fractional occupation disabled.
  Guess Type is SAD.
  Energy threshold   = 1.00e-10
  Density threshold  = 1.00e-10
  Integral threshold = 0.00e+00

  ==> Primary Basis <==

  Basis Set: ANONYMOUSFBA763FE
    Blend: 6-31G_2DFP_
    Number of shells: 64
    Number of basis function: 168
    Number of Cartesian functions: 188
    Spherical Harmonics?: true
    Max angular momentum: 3

  ==> DFT Potential <==

   => Composite Functional: B3LYP <= 

    B3LYP Hyb-GGA Exchange-Correlation Functional

    P. J. Stephens, F. J. Devlin, C. F. Chabalowski, and M. J. Frisch, J. Phys. Chem. 98, 11623 (1994)

    Deriv               =              1
    GGA                 =           TRUE
    Meta                =          FALSE

    Exchange Hybrid     =           TRUE
    MP2 Hybrid          =          FALSE

   => Exchange Functionals <=

    0.0800   Slater exchange
    0.7200         Becke 88

   => Exact (HF) Exchange <=

    0.2000               HF 

   => Correlation Functionals <=

    0.1900   Vosko, Wilk & Nusair (VWN5_RPA)
    0.8100   Lee, Yang & Parr

   => Molecular Quadrature <=

    Radial Scheme          =       TREUTLER
    Pruning Scheme         =           NONE
    Nuclear Scheme         =       TREUTLER

    BS radius alpha        =              1
    Pruning alpha          =              1
    Radial Points          =             99
    Spherical Points       =           1202
    Total Points           =        1335222
    Total Blocks           =           8885
    Max Points             =            256
    Max Functions          =            164
    Weights Tolerance      =       1.00E-15

   => Loading Basis Set <=

    Name: (ANONYMOUSFBA763FE AUX)
    Role: JKFIT
    Keyword: DF_BASIS_SCF
    atoms 1-2, 4 entry C          line   198 file /opt/psi/4/master/share/psi4/basis/def2-universal-jkfit.gbs 
    atoms 3      entry O          line   318 file /opt/psi/4/master/share/psi4/basis/def2-universal-jkfit.gbs 
    atoms 5-12   entry H          line    18 file /opt/psi/4/master/share/psi4/basis/def2-universal-jkfit.gbs 

  ==> Integral Setup <==

  DFHelper Memory: AOs need 0.099 GiB; user supplied 4.857 GiB. Using in-core AOs.

  ==> MemDFJK: Density-Fitted J/K Matrices <==

    J tasked:                   Yes
    K tasked:                   Yes
    wK tasked:                   No
    OpenMP threads:               1
    Memory [MiB]:              4973
    Algorithm:                 Core
    Schwarz Cutoff:           1E-12
    Mask sparsity (%):       2.6857
    Fitting Condition:        1E-10

   => Auxiliary Basis Set <=

  Basis Set: (ANONYMOUSFBA763FE AUX)
    Blend: DEF2-UNIVERSAL-JKFIT
    Number of shells: 148
    Number of basis function: 446
    Number of Cartesian functions: 520
    Spherical Harmonics?: true
    Max angular momentum: 4

  Cached 100.0% of DFT collocation blocks in 4.922 [GiB].

  Minimum eigenvalue in the overlap matrix is 1.6567790170E-03.
  Reciprocal condition number of the overlap matrix is 3.1160616854E-04.
    Using symmetric orthogonalization.

  ==> Pre-Iterations <==

  SCF Guess: Superposition of Atomic Densities via on-the-fly atomic UHF (no occupation information).

   -------------------------
    Irrep   Nso     Nmo    
   -------------------------
     A'       104     104 
     A"        64      64 
   -------------------------
    Total     168     168
   -------------------------

  ==> Iterations <==

                           Total Energy        Delta E     RMS |[F,P]|

   @DF-RKS iter SAD:  -193.68834037131217   -1.93688e+02   0.00000e+00 
   @DF-RKS iter   1:  -194.07168214240690   -3.83342e-01   6.07805e-03 DIIS
   @DF-RKS iter   2:  -193.95143510415832    1.20247e-01   7.29598e-03 DIIS
   @DF-RKS iter   3:  -194.35378347134832   -4.02348e-01   1.07681e-03 DIIS
   @DF-RKS iter   4:  -194.35980829716900   -6.02483e-03   3.48130e-04 DIIS
   @DF-RKS iter   5:  -194.36048685976095   -6.78563e-04   5.45885e-05 DIIS
   @DF-RKS iter   6:  -194.36050338710089   -1.65273e-05   2.29915e-05 DIIS
   @DF-RKS iter   7:  -194.36050695558160   -3.56848e-06   3.27048e-06 DIIS
   @DF-RKS iter   8:  -194.36050703512853   -7.95469e-08   5.07988e-07 DIIS
   @DF-RKS iter   9:  -194.36050703720053   -2.07200e-09   1.19024e-07 DIIS
   @DF-RKS iter  10:  -194.36050703728813   -8.75957e-11   4.80200e-08 DIIS
   @DF-RKS iter  11:  -194.36050703730467   -1.65414e-11   5.04472e-09 DIIS
   @DF-RKS iter  12:  -194.36050703730544   -7.67386e-13   7.12900e-10 DIIS
   @DF-RKS iter  13:  -194.36050703730550   -5.68434e-14   1.62952e-10 DIIS
   @DF-RKS iter  14:  -194.36050703730527    2.27374e-13   3.26685e-11 DIIS
  Energy and wave function converged.


  ==> Post-Iterations <==

    Orbital Energies [Eh]
    ---------------------

    Doubly Occupied:                                                      

       1Ap   -19.139148     2Ap   -10.221173     3Ap   -10.217301  
       4Ap   -10.167429     5Ap    -1.026388     6Ap    -0.757747  
       7Ap    -0.670067     8Ap    -0.603334     9Ap    -0.482231  
       1App   -0.477972    10Ap    -0.448161     2App   -0.417012  
      11Ap    -0.381453    12Ap    -0.358461     3App   -0.351394  
      13Ap    -0.315414     4App   -0.252460  

    Virtual:                                                              

      14Ap     0.081590    15Ap     0.106654    16Ap     0.137779  
       5App    0.139905    17Ap     0.152714    18Ap     0.167138  
      19Ap     0.171423     6App    0.176989     7App    0.188646  
      20Ap     0.228870    21Ap     0.246442    22Ap     0.405437  
       8App    0.421968    23Ap     0.453595     9App    0.460507  
      24Ap     0.461859    10App    0.471562    25Ap     0.471966  
      26Ap     0.510165    11App    0.527282    27Ap     0.564934  
      28Ap     0.581842    12App    0.585038    29Ap     0.586712  
      30Ap     0.598970    31Ap     0.612340    13App    0.616544  
      14App    0.635326    32Ap     0.643634    33Ap     0.662479  
      15App    0.712283    34Ap     0.770238    16App    0.814078  
      35Ap     0.835543    17App    0.857103    18App    0.885416  
      36Ap     0.930385    19App    0.971885    37Ap     0.979845  
      38Ap     1.016752    20App    1.026708    39Ap     1.072789  
      21App    1.097982    40Ap     1.122374    41Ap     1.154414  
      22App    1.155388    42Ap     1.177278    43Ap     1.230204  
      44Ap     1.234129    23App    1.241062    45Ap     1.281200  
      46Ap     1.312756    47Ap     1.338051    24App    1.358063  
      25App    1.382335    48Ap     1.386381    49Ap     1.394859  
      26App    1.420533    27App    1.445771    50Ap     1.458895  
      51Ap     1.486971    28App    1.523153    52Ap     1.565603  
      53Ap     1.621857    54Ap     1.716933    55Ap     1.743546  
      29App    1.763879    56Ap     1.783958    57Ap     1.828681  
      58Ap     1.876682    30App    1.910502    31App    1.965376  
      59Ap     1.984958    60Ap     2.069537    32App    2.083497  
      61Ap     2.107300    33App    2.269661    62Ap     2.290996  
      63Ap     2.395241    64Ap     2.771359    34App    2.832613  
      65Ap     2.882141    35App    2.901332    36App    2.929473  
      37App    2.937466    66Ap     2.961267    38App    2.961697  
      39App    3.015583    67Ap     3.039666    68Ap     3.112793  
      40App    3.130427    69Ap     3.143509    41App    3.167988  
      70Ap     3.191331    71Ap     3.260161    42App    3.288354  
      43App    3.329264    72Ap     3.361772    73Ap     3.379618  
      44App    3.453959    74Ap     3.461519    45App    3.546841  
      75Ap     3.558808    76Ap     3.574461    77Ap     3.608076  
      46App    3.670772    78Ap     3.686035    79Ap     3.754860  
      47App    3.755165    80Ap     3.796689    81Ap     3.821552  
      48App    3.974715    82Ap     3.982286    83Ap     4.059077  
      84Ap     4.124045    49App    4.154354    85Ap     4.167576  
      50App    4.188719    51App    4.214688    86Ap     4.224305  
      87Ap     4.261122    88Ap     4.270844    89Ap     4.317193  
      52App    4.364658    53App    4.403622    90Ap     4.447063  
      54App    4.480839    55App    4.519741    56App    4.555992  
      91Ap     4.556563    92Ap     4.597685    93Ap     4.846885  
      94Ap     4.946384    57App    5.071346    95Ap     5.084674  
      58App    5.154116    96Ap     5.202311    97Ap     5.255464  
      59App    5.296255    98Ap     5.401023    60App    5.431684  
      99Ap     5.580096    61App    5.760894    62App    5.828469  
     100Ap     5.923462   101Ap     6.199427   102Ap     7.071787  
      63App    7.183875    64App    7.311166   103Ap     7.508042  
     104Ap     7.538731  

    Final Occupation by Irrep:
             Ap   App 
    DOCC [    13,    4 ]

  @DF-RKS Final Energy:  -194.36050703730527

   => Energetics <=

    Nuclear Repulsion Energy =            133.6858621324817022
    One-Electron Energy =                -527.2941892017024657
    Two-Electron Energy =                 221.8232914761984489
    DFT Exchange-Correlation Energy =     -22.5754714442829574
    Empirical Dispersion Energy =           0.0000000000000000
    VV10 Nonlocal Energy =                  0.0000000000000000
    Total Energy =                       -194.3605070373052683

Computation Completed


Properties will be evaluated at   0.000000,   0.000000,   0.000000 [a0]

Properties computed using the SCF density matrix

  Nuclear Dipole Moment: [e a0]
     X:    -0.9036      Y:    -1.8987      Z:     0.0000

  Electronic Dipole Moment: [e a0]
     X:     0.9614      Y:     1.4790      Z:     0.0000

  Dipole Moment: [e a0]
     X:     0.0578      Y:    -0.4198      Z:     0.0000     Total:     0.4237

  Dipole Moment: [D]
     X:     0.1470      Y:    -1.0670      Z:     0.0000     Total:     1.0770


*** tstop() called on n054 at Mon Nov  8 16:40:35 2021
Module time:
	user time   =      91.00 seconds =       1.52 minutes
	system time =       1.27 seconds =       0.02 minutes
	total time  =         93 seconds =       1.55 minutes
Total time:
	user time   =      91.00 seconds =       1.52 minutes
	system time =       1.27 seconds =       0.02 minutes
	total time  =         93 seconds =       1.55 minutes
Grab this energy -194.36050703730527
    Psi4 stopped on: Monday, 08 November 2021 04:40PM
    Psi4 wall time for execution: 0:01:32.30

*** Psi4 exiting successfully. Buy a developer a beer!
