
    -----------------------------------------------------------------------
          Psi4: An Open-Source Ab Initio Electronic Structure Package
                               Psi4 1.4a2.dev629 

                         Git: Rev {master} 2938fc2 dirty


    D. G. A. Smith, L. A. Burns, A. C. Simmonett, R. M. Parrish,
    M. C. Schieber, R. Galvelis, P. Kraus, H. Kruse, R. Di Remigio,
    A. Alenaizan, A. M. James, S. Lehtola, J. P. Misiewicz, M. Scheurer,
    R. A. Shaw, J. B. Schriber, Y. Xie, Z. L. Glick, D. A. Sirianni,
    J. S. O'Brien, J. M. Waldrop, A. Kumar, E. G. Hohenstein,
    B. P. Pritchard, B. R. Brooks, H. F. Schaefer III, A. Yu. Sokolov,
    K. Patkowski, A. E. DePrince III, U. Bozkaya, R. A. King,
    F. A. Evangelista, J. M. Turney, T. D. Crawford, C. D. Sherrill,
    J. Chem. Phys. 152(18) 184108 (2020). https://doi.org/10.1063/5.0006002

                            Additional Code Authors
    E. T. Seidl, C. L. Janssen, E. F. Valeev, M. L. Leininger,
    J. F. Gonthier, R. M. Richard, H. R. McAlexander, M. Saitow, X. Wang,
    P. Verma, and M. H. Lechner

             Previous Authors, Complete List of Code Contributors,
                       and Citations for Specific Modules
    https://github.com/psi4/psi4/blob/master/codemeta.json
    https://github.com/psi4/psi4/graphs/contributors
    http://psicode.org/psi4manual/master/introduction.html#citing-psifour

    -----------------------------------------------------------------------


    Psi4 started on: Monday, 08 November 2021 02:50PM

    Process ID: 28208
    Host:       n084
    PSIDATADIR: /opt/psi/4/master/share/psi4
    Memory:     500.0 MiB
    Threads:    1
    
  ==> Input File <==

--------------------------------------------------------------------------
import os
memory 14 GB 
 
molecule {
 C   -3.5140514633    0.2896098390    0.0016161639
 C   -0.9527269481   -0.9929968040   -0.0015946585
 O    0.9353785606    0.9012065402    0.0006274425
 C    3.3765623248   -0.1721056808   -0.0003696627
 H   -5.0256169725   -1.1155950910   -0.0005226189
 H   -3.7196539290    1.4784652792   -1.6724389437
 H   -3.7196301370    1.4787971264    1.6719845739
 H   -0.7419618753   -2.2036750097    1.6746153958
 H   -0.7419055563   -2.2040565482   -1.6741222657
 H    4.7364067900    1.3719115366    0.0000653988
 H    3.6870704197   -1.3467606417   -1.6819690354
 H    3.6870748063   -1.3466336860    1.6821082098
units bohr
}

basis {

assign 6-31g_2dfp_

[ 6-31g_2dfp_ ]

spherical

!----------------------------------------------------------------------
! Basis Set Exchange
! Version v0.8.13
! https://www.basissetexchange.org
!----------------------------------------------------------------------
!   Basis set: 6-31G(2df,p)
! Description: 6-31G(2df,p)
!        Role: orbital
!     Version: 0  (Data from the original Basis Set Exchange)
!----------------------------------------------------------------------


****
H     0
S    3   1.00
     18.7311370              0.03349460
      2.8253937              0.23472695
      0.6401217              0.81375733
S    1   1.00
      0.1612778              1.00000000
P    1   1.00
      1.5000000              1.0000000
P    1   1.00
      0.3750000              1.0000000
****
B     0
S    6   1.00
   2068.8823000              0.0018663
    310.6495700              0.0142515
     70.6830330              0.0695516
     19.8610800              0.2325729
      6.2993048              0.4670787
      2.1270270              0.3634314
SP   3   1.00
      4.7279710             -0.1303938              0.0745976
      1.1903377             -0.1307889              0.3078467
      0.3594117              1.1309444              0.7434568
SP   1   1.00
      0.1267512              1.0000000              1.0000000
D    1   1.00
      0.8020000              1.0000000
D    1   1.00
      0.2005000              1.0000000
F    1   1.00
      0.5000000              1.0000000
****
C     0
S    6   1.00
   3047.5249000              0.0018347
    457.3695100              0.0140373
    103.9486900              0.0688426
     29.2101550              0.2321844
      9.2866630              0.4679413
      3.1639270              0.3623120
SP   3   1.00
      7.8682724             -0.1193324              0.0689991
      1.8812885             -0.1608542              0.3164240
      0.5442493              1.1434564              0.7443083
SP   1   1.00
      0.1687144              1.0000000              1.0000000
D    1   1.00
      1.2520000              1.0000000
D    1   1.00
      0.3130000              1.0000000
F    1   1.00
      0.8000000              1.0000000
****
N     0
S    6   1.00
   4173.5110000              0.0018348
    627.4579000              0.0139950
    142.9021000              0.0685870
     40.2343300              0.2322410
     12.8202100              0.4690700
      4.3904370              0.3604550
SP   3   1.00
     11.6263580             -0.1149610              0.0675800
      2.7162800             -0.1691180              0.3239070
      0.7722180              1.1458520              0.7408950
SP   1   1.00
      0.2120313              1.0000000              1.0000000
D    1   1.00
      1.8260000              1.0000000
D    1   1.00
      0.4565000              1.0000000
F    1   1.00
      1.0000000              1.0000000
****
O     0
S    6   1.00
   5484.6717000              0.0018311
    825.2349500              0.0139501
    188.0469600              0.0684451
     52.9645000              0.2327143
     16.8975700              0.4701930
      5.7996353              0.3585209
SP   3   1.00
     15.5396160             -0.1107775              0.0708743
      3.5999336             -0.1480263              0.3397528
      1.0137618              1.1307670              0.7271586
SP   1   1.00
      0.2700058              1.0000000              1.0000000
D    1   1.00
      2.5840000              1.0000000
D    1   1.00
      0.6460000              1.0000000
F    1   1.00
      1.4000000              1.0000000
****
F     0
S    6   1.00
   7001.7130900              0.0018196169
   1051.3660900              0.0139160796
    239.2856900              0.0684053245
     67.3974453              0.233185760
     21.5199573              0.471267439
      7.40310130             0.356618546
SP   3   1.00
     20.8479528             -0.108506975            0.0716287243
      4.80830834            -0.146451658            0.3459121030
      1.34406986             1.128688580            0.7224699570
SP   1   1.00
      0.358151393            1.0000000              1.0000000
D    1   1.00
      3.5000000              1.0000000
D    1   1.00
      0.8750000              1.0000000
F    1   1.00
      1.8500000              1.0000000
****
Al     0
S    6   1.00
  13983.1000000              0.00194267
   2098.7500000              0.0148599
    477.7050000              0.0728494
    134.3600000              0.2468300
     42.8709000              0.4872580
     14.5189000              0.3234960
SP   6   1.00
    239.6680000             -0.00292619             0.00460285
     57.4419000             -0.0374080              0.0331990
     18.2859000             -0.1144870              0.1362820
      6.5991400              0.1156350              0.3304760
      2.4904900              0.6125950              0.4491460
      0.9445400              0.3937990              0.2657040
SP   3   1.00
      1.2779000             -0.2276060             -0.0175130
      0.3975900              0.00144583             0.2445330
      0.1600950              1.0927900              0.8049340
SP   1   1.00
      0.0556577              1.0000000              1.0000000
D    1   1.00
      0.6500000              1.0000000
D    1   1.00
      0.1625000              1.0000000
F    1   1.00
      0.2500000              1.0000000
****
Si     0
S    6   1.00
  16115.9000000              0.00195948
   2425.5800000              0.01492880
    553.8670000              0.07284780
    156.3400000              0.24613000
     50.0683000              0.48591400
     17.0178000              0.32500200
SP   6   1.00
    292.7180000             -0.00278094             0.00443826
     69.8731000             -0.03571460             0.03266790
     22.3363000             -0.11498500             0.13472100
      8.1503900              0.09356340             0.32867800
      3.1345800              0.60301700             0.44964000
      1.2254300              0.41895900             0.26137200
SP   3   1.00
      1.7273800             -0.24463000            -0.01779510
      0.5729220              0.00431572             0.25353900
      0.2221920              1.09818000             0.80066900
SP   1   1.00
      0.0778369              1.00000000             1.00000000
D    1   1.00
      0.9000000              1.0000000
D    1   1.00
      0.2250000              1.0000000
F    1   1.00
      0.3200000              1.0000000
****
P     0
S    6   1.00
  19413.3000000              0.0018516
   2909.4200000              0.0142062
    661.3640000              0.0699995
    185.7590000              0.2400790
     59.1943000              0.4847620
     20.0310000              0.3352000
SP   6   1.00
    339.4780000             -0.00278217             0.00456462
     81.0101000             -0.0360499              0.03369360
     25.8780000             -0.1166310              0.13975500
      9.4522100              0.0968328              0.33936200
      3.6656600              0.6144180              0.45092100
      1.4674600              0.4037980              0.23858600
SP   3   1.00
      2.1562300             -0.2529230             -0.01776530
      0.7489970              0.0328517              0.27405800
      0.2831450              1.0812500              0.78542100
SP   1   1.00
      0.0998317              1.0000000              1.00000000
D    1   1.00
      1.1000000              1.0000000
D    1   1.00
      0.2750000              1.0000000
F    1   1.00
      0.4500000              1.0000000
****
S     0
S    6   1.00
  21917.1000000              0.0018690
   3301.4900000              0.0142300
    754.1460000              0.0696960
    212.7110000              0.2384870
     67.9896000              0.4833070
     23.0515000              0.3380740
SP   6   1.00
    423.7350000             -0.0023767              0.0040610
    100.7100000             -0.0316930              0.0306810
     32.1599000             -0.1133170              0.1304520
     11.8079000              0.0560900              0.3272050
      4.6311000              0.5922550              0.4528510
      1.8702500              0.4550060              0.2560420
SP   3   1.00
      2.6158400             -0.2503740             -0.0145110
      0.9221670              0.0669570              0.3102630
      0.3412870              1.0545100              0.7544830
SP   1   1.00
      0.1171670              1.0000000              1.0000000
D    1   1.00
      1.3000000              1.0000000
D    1   1.00
      0.3250000              1.0000000
F    1   1.00
      0.5500000              1.0000000
****
Cl     0
S    6   1.00
  25180.1000000              0.0018330
   3780.3500000              0.0140340
    860.4740000              0.0690970
    242.1450000              0.2374520
     77.3349000              0.4830340
     26.2470000              0.3398560
SP   6   1.00
    491.7650000             -0.0022974              0.0039894
    116.9840000             -0.0307140              0.0303180
     37.4153000             -0.1125280              0.1298800
     13.7834000              0.0450160              0.3279510
      5.4521500              0.5893530              0.4535270
      2.2258800              0.4652060              0.2521540
SP   3   1.00
      3.1864900             -0.2518300             -0.0142990
      1.1442700              0.0615890              0.3235720
      0.4203770              1.0601800              0.7435070
SP   1   1.00
      0.1426570              1.0000000              1.0000000
D    1   1.00
      1.5000000              1.0000000
D    1   1.00
      0.3750000              1.0000000
F    1   1.00
      0.7000000              1.0000000
****
}


set {
reference rhf                          
freeze_core true
e_convergence 10                       
d_convergence 10                      
dft_spherical_points 1202
dft_radial_points 99
}

e = energy('b3lyp')

print_out('Grab this energy {0}'.format(e))
--------------------------------------------------------------------------

  Memory set to  13.039 GiB by Python driver.

Scratch directory: /tmp/

*** tstart() called on n084
*** at Mon Nov  8 14:50:03 2021

   => Loading Basis Set <=

    Name: ANONYMOUSA4F60791
    Role: ORBITAL
    Keyword: BASIS
    atoms 1-2, 4 entry C          line    48 inputblock 6-31g_2dfp_ 
    atoms 3      entry O          line    90 inputblock 6-31g_2dfp_ 
    atoms 5-12   entry H          line    15 inputblock 6-31g_2dfp_ 


         ---------------------------------------------------------
                                   SCF
               by Justin Turney, Rob Parrish, Andy Simmonett
                          and Daniel G. A. Smith
                              RKS Reference
                        1 Threads,  13351 MiB Core
         ---------------------------------------------------------

  ==> Geometry <==

    Molecular point group: c1
    Full point group: C1

    Geometry (in Bohr), charge = 0, multiplicity = 1:

       Center              X                  Y                   Z               Mass       
    ------------   -----------------  -----------------  -----------------  -----------------
         C           -3.514486156902     0.289762314502     0.001523310727    12.000000000000
         C           -0.953161641702    -0.992844328498    -0.001687511673    12.000000000000
         O            0.934943866998     0.901359015702     0.000534589327    15.994914619570
         C            3.376127631198    -0.171953205298    -0.000462515873    12.000000000000
         H           -5.026051666102    -1.115442615498    -0.000615472073     1.007825032230
         H           -3.720088622602     1.478617754702    -1.672531796873     1.007825032230
         H           -3.720064830602     1.478949601902     1.671891720727     1.007825032230
         H           -0.742396568902    -2.203522534198     1.674522542627     1.007825032230
         H           -0.742340249902    -2.203904072698    -1.674215118873     1.007825032230
         H            4.735972096398     1.372064012102    -0.000027454373     1.007825032230
         H            3.686635726098    -1.346608166198    -1.682061888573     1.007825032230
         H            3.686640112698    -1.346481210498     1.682015356627     1.007825032230

  Running in c1 symmetry.

  Rotational constants: A =      0.93800  B =      0.13957  C =      0.13043 [cm^-1]
  Rotational constants: A =  28120.48609  B =   4184.06852  C =   3910.30019 [MHz]
  Nuclear repulsion =  133.771570671139926

  Charge       = 0
  Multiplicity = 1
  Electrons    = 34
  Nalpha       = 17
  Nbeta        = 17

  ==> Algorithm <==

  SCF Algorithm Type is DF.
  DIIS enabled.
  MOM disabled.
  Fractional occupation disabled.
  Guess Type is SAD.
  Energy threshold   = 1.00e-10
  Density threshold  = 1.00e-10
  Integral threshold = 0.00e+00

  ==> Primary Basis <==

  Basis Set: ANONYMOUSA4F60791
    Blend: 6-31G_2DFP_
    Number of shells: 64
    Number of basis function: 168
    Number of Cartesian functions: 188
    Spherical Harmonics?: true
    Max angular momentum: 3

  ==> DFT Potential <==

   => Composite Functional: B3LYP <= 

    B3LYP Hyb-GGA Exchange-Correlation Functional

    P. J. Stephens, F. J. Devlin, C. F. Chabalowski, and M. J. Frisch, J. Phys. Chem. 98, 11623 (1994)

    Deriv               =              1
    GGA                 =           TRUE
    Meta                =          FALSE

    Exchange Hybrid     =           TRUE
    MP2 Hybrid          =          FALSE

   => Exchange Functionals <=

    0.0800   Slater exchange
    0.7200         Becke 88

   => Exact (HF) Exchange <=

    0.2000               HF 

   => Correlation Functionals <=

    0.1900   Vosko, Wilk & Nusair (VWN5_RPA)
    0.8100   Lee, Yang & Parr

   => Molecular Quadrature <=

    Radial Scheme          =       TREUTLER
    Pruning Scheme         =           NONE
    Nuclear Scheme         =       TREUTLER

    BS radius alpha        =              1
    Pruning alpha          =              1
    Radial Points          =             99
    Spherical Points       =           1202
    Total Points           =        1335124
    Total Blocks           =           8858
    Max Points             =            256
    Max Functions          =            164
    Weights Tolerance      =       1.00E-15

   => Loading Basis Set <=

    Name: (ANONYMOUSA4F60791 AUX)
    Role: JKFIT
    Keyword: DF_BASIS_SCF
    atoms 1-2, 4 entry C          line   198 file /opt/psi/4/master/share/psi4/basis/def2-universal-jkfit.gbs 
    atoms 3      entry O          line   318 file /opt/psi/4/master/share/psi4/basis/def2-universal-jkfit.gbs 
    atoms 5-12   entry H          line    18 file /opt/psi/4/master/share/psi4/basis/def2-universal-jkfit.gbs 

  ==> Integral Setup <==

  DFHelper Memory: AOs need 0.099 GiB; user supplied 4.854 GiB. Using in-core AOs.

  ==> MemDFJK: Density-Fitted J/K Matrices <==

    J tasked:                   Yes
    K tasked:                   Yes
    wK tasked:                   No
    OpenMP threads:               1
    Memory [MiB]:              4970
    Algorithm:                 Core
    Schwarz Cutoff:           1E-12
    Mask sparsity (%):       2.6857
    Fitting Condition:        1E-10

   => Auxiliary Basis Set <=

  Basis Set: (ANONYMOUSA4F60791 AUX)
    Blend: DEF2-UNIVERSAL-JKFIT
    Number of shells: 148
    Number of basis function: 446
    Number of Cartesian functions: 520
    Spherical Harmonics?: true
    Max angular momentum: 4

  Cached 100.0% of DFT collocation blocks in 4.924 [GiB].

  Minimum eigenvalue in the overlap matrix is 1.6512278891E-03.
  Reciprocal condition number of the overlap matrix is 2.8704325221E-04.
    Using symmetric orthogonalization.

  ==> Pre-Iterations <==

  SCF Guess: Superposition of Atomic Densities via on-the-fly atomic UHF (no occupation information).

   -------------------------
    Irrep   Nso     Nmo    
   -------------------------
     A        168     168 
   -------------------------
    Total     168     168
   -------------------------

  ==> Iterations <==

                           Total Energy        Delta E     RMS |[F,P]|

   @DF-RKS iter SAD:  -193.69164684472193   -1.93692e+02   0.00000e+00 
   @DF-RKS iter   1:  -194.07148221361624   -3.79835e-01   4.41872e-03 DIIS
   @DF-RKS iter   2:  -193.94994125586823    1.21541e-01   5.31115e-03 DIIS
   @DF-RKS iter   3:  -194.35375927491211   -4.03818e-01   7.82120e-04 DIIS
   @DF-RKS iter   4:  -194.35977314388157   -6.01387e-03   2.53725e-04 DIIS
   @DF-RKS iter   5:  -194.36045480150935   -6.81658e-04   4.00545e-05 DIIS
   @DF-RKS iter   6:  -194.36047163743910   -1.68359e-05   1.68438e-05 DIIS
   @DF-RKS iter   7:  -194.36047526160846   -3.62417e-06   2.37269e-06 DIIS
   @DF-RKS iter   8:  -194.36047534084523   -7.92368e-08   3.72036e-07 DIIS
   @DF-RKS iter   9:  -194.36047534293627   -2.09104e-09   9.09691e-08 DIIS
   @DF-RKS iter  10:  -194.36047534303503   -9.87654e-11   3.48410e-08 DIIS
   @DF-RKS iter  11:  -194.36047534305186   -1.68257e-11   3.61468e-09 DIIS
   @DF-RKS iter  12:  -194.36047534305186    0.00000e+00   5.18637e-10 DIIS
   @DF-RKS iter  13:  -194.36047534305152    3.41061e-13   1.18387e-10 DIIS
   @DF-RKS iter  14:  -194.36047534305175   -2.27374e-13   2.36535e-11 DIIS
  Energy and wave function converged.


  ==> Post-Iterations <==

    Orbital Energies [Eh]
    ---------------------

    Doubly Occupied:                                                      

       1A    -19.139730     2A    -10.221576     3A    -10.217275  
       4A    -10.167500     5A     -1.027553     6A     -0.757653  
       7A     -0.670016     8A     -0.603162     9A     -0.482161  
      10A     -0.478436    11A     -0.448689    12A     -0.416838  
      13A     -0.381210    14A     -0.358026    15A     -0.351060  
      16A     -0.316479    17A     -0.252897  

    Virtual:                                                              

      18A      0.081284    19A      0.106588    20A      0.138041  
      21A      0.139412    22A      0.152443    23A      0.167577  
      24A      0.171265    25A      0.177061    26A      0.188483  
      27A      0.229476    28A      0.246373    29A      0.404594  
      30A      0.421224    31A      0.454312    32A      0.460447  
      33A      0.461601    34A      0.471566    35A      0.472864  
      36A      0.510693    37A      0.527093    38A      0.564577  
      39A      0.581970    40A      0.584428    41A      0.586567  
      42A      0.598685    43A      0.612153    44A      0.616093  
      45A      0.635199    46A      0.643751    47A      0.662431  
      48A      0.713903    49A      0.771185    50A      0.812799  
      51A      0.835011    52A      0.856952    53A      0.886198  
      54A      0.930856    55A      0.970936    56A      0.979971  
      57A      1.017754    58A      1.026923    59A      1.071347  
      60A      1.096288    61A      1.121453    62A      1.154925  
      63A      1.156184    64A      1.177567    65A      1.230637  
      66A      1.234904    67A      1.240351    68A      1.281974  
      69A      1.312278    70A      1.337421    71A      1.359281  
      72A      1.382196    73A      1.386882    74A      1.394873  
      75A      1.421005    76A      1.446698    77A      1.457121  
      78A      1.485936    79A      1.522697    80A      1.564775  
      81A      1.624270    82A      1.718254    83A      1.742462  
      84A      1.763241    85A      1.783233    86A      1.829728  
      87A      1.876064    88A      1.911455    89A      1.964358  
      90A      1.986929    91A      2.068711    92A      2.082730  
      93A      2.111673    94A      2.271075    95A      2.290453  
      96A      2.396678    97A      2.771684    98A      2.832285  
      99A      2.882193   100A      2.899860   101A      2.929498  
     102A      2.937458   103A      2.960480   104A      2.961493  
     105A      3.016223   106A      3.042851   107A      3.113428  
     108A      3.131128   109A      3.143506   110A      3.168525  
     111A      3.191824   112A      3.260116   113A      3.288457  
     114A      3.329188   115A      3.363466   116A      3.379484  
     117A      3.455054   118A      3.461734   119A      3.549662  
     120A      3.559445   121A      3.576315   122A      3.609091  
     123A      3.671441   124A      3.688063   125A      3.755245  
     126A      3.755711   127A      3.794471   128A      3.822472  
     129A      3.975023   130A      3.980934   131A      4.059750  
     132A      4.124637   133A      4.154996   134A      4.168041  
     135A      4.188344   136A      4.212822   137A      4.219222  
     138A      4.259377   139A      4.269318   140A      4.316664  
     141A      4.362582   142A      4.400448   143A      4.449587  
     144A      4.482065   145A      4.520436   146A      4.554879  
     147A      4.556230   148A      4.598600   149A      4.846961  
     150A      4.944501   151A      5.068735   152A      5.084149  
     153A      5.151083   154A      5.202893   155A      5.254579  
     156A      5.296075   157A      5.403813   158A      5.432993  
     159A      5.580180   160A      5.756661   161A      5.830458  
     162A      5.925890   163A      6.200575   164A      7.073830  
     165A      7.186216   166A      7.309195   167A      7.507081  
     168A      7.540135  

    Final Occupation by Irrep:
              A 
    DOCC [    17 ]

  @DF-RKS Final Energy:  -194.36047534305175

   => Energetics <=

    Nuclear Repulsion Energy =            133.7715706711399264
    One-Electron Energy =                -527.4599138420413738
    Two-Electron Energy =                 221.9025553300076297
    DFT Exchange-Correlation Energy =     -22.5746875021579037
    Empirical Dispersion Energy =           0.0000000000000000
    VV10 Nonlocal Energy =                  0.0000000000000000
    Total Energy =                       -194.3604753430517462

Computation Completed


Properties will be evaluated at   0.000000,   0.000000,   0.000000 [a0]

Properties computed using the SCF density matrix

  Nuclear Dipole Moment: [e a0]
     X:    -0.9113      Y:    -1.9257      Z:    -0.0005

  Electronic Dipole Moment: [e a0]
     X:     0.9688      Y:     1.5053      Z:    -0.0005

  Dipole Moment: [e a0]
     X:     0.0576      Y:    -0.4204      Z:    -0.0010     Total:     0.4243

  Dipole Moment: [D]
     X:     0.1463      Y:    -1.0686      Z:    -0.0024     Total:     1.0785


*** tstop() called on n084 at Mon Nov  8 14:51:22 2021
Module time:
	user time   =      78.49 seconds =       1.31 minutes
	system time =       1.29 seconds =       0.02 minutes
	total time  =         79 seconds =       1.32 minutes
Total time:
	user time   =      78.49 seconds =       1.31 minutes
	system time =       1.29 seconds =       0.02 minutes
	total time  =         79 seconds =       1.32 minutes
Grab this energy -194.36047534305175
    Psi4 stopped on: Monday, 08 November 2021 02:51PM
    Psi4 wall time for execution: 0:01:19.82

*** Psi4 exiting successfully. Buy a developer a beer!
