
    -----------------------------------------------------------------------
          Psi4: An Open-Source Ab Initio Electronic Structure Package
                               Psi4 1.4a2.dev629 

                         Git: Rev {master} 2938fc2 dirty


    D. G. A. Smith, L. A. Burns, A. C. Simmonett, R. M. Parrish,
    M. C. Schieber, R. Galvelis, P. Kraus, H. Kruse, R. Di Remigio,
    A. Alenaizan, A. M. James, S. Lehtola, J. P. Misiewicz, M. Scheurer,
    R. A. Shaw, J. B. Schriber, Y. Xie, Z. L. Glick, D. A. Sirianni,
    J. S. O'Brien, J. M. Waldrop, A. Kumar, E. G. Hohenstein,
    B. P. Pritchard, B. R. Brooks, H. F. Schaefer III, A. Yu. Sokolov,
    K. Patkowski, A. E. DePrince III, U. Bozkaya, R. A. King,
    F. A. Evangelista, J. M. Turney, T. D. Crawford, C. D. Sherrill,
    J. Chem. Phys. 152(18) 184108 (2020). https://doi.org/10.1063/5.0006002

                            Additional Code Authors
    E. T. Seidl, C. L. Janssen, E. F. Valeev, M. L. Leininger,
    J. F. Gonthier, R. M. Richard, H. R. McAlexander, M. Saitow, X. Wang,
    P. Verma, and M. H. Lechner

             Previous Authors, Complete List of Code Contributors,
                       and Citations for Specific Modules
    https://github.com/psi4/psi4/blob/master/codemeta.json
    https://github.com/psi4/psi4/graphs/contributors
    http://psicode.org/psi4manual/master/introduction.html#citing-psifour

    -----------------------------------------------------------------------


    Psi4 started on: Monday, 08 November 2021 03:37PM

    Process ID: 30282
    Host:       n054
    PSIDATADIR: /opt/psi/4/master/share/psi4
    Memory:     500.0 MiB
    Threads:    1
    
  ==> Input File <==

--------------------------------------------------------------------------
import os
memory 14 GB 
 
molecule {
 C   -3.5140544013    0.2896083774   -0.0018397599
 C   -0.9527272274   -0.9929963343   -0.0005575231
 O    0.9353786343    0.9012079398   -0.0002709536
 C    3.3765621843   -0.1721052029   -0.0000236576
 H   -5.0256200156   -1.1155960018   -0.0042490457
 H   -3.7210976738    1.4748117406   -1.6695364801
 H   -3.7181812250    1.4824524012    1.6748833248
 H   -0.7412405170   -2.2049362012    1.6750842811
 H   -0.7426250852   -2.2027974998   -1.6736516060
 H    4.7364073199    1.3719114824    0.0000722767
 H    3.6869094402   -1.3467115864   -1.6819939919
 H    3.6872345866   -1.3466822549    1.6820831353
units bohr
}

basis {

assign 6-31g_2dfp_

[ 6-31g_2dfp_ ]

spherical

!----------------------------------------------------------------------
! Basis Set Exchange
! Version v0.8.13
! https://www.basissetexchange.org
!----------------------------------------------------------------------
!   Basis set: 6-31G(2df,p)
! Description: 6-31G(2df,p)
!        Role: orbital
!     Version: 0  (Data from the original Basis Set Exchange)
!----------------------------------------------------------------------


****
H     0
S    3   1.00
     18.7311370              0.03349460
      2.8253937              0.23472695
      0.6401217              0.81375733
S    1   1.00
      0.1612778              1.00000000
P    1   1.00
      1.5000000              1.0000000
P    1   1.00
      0.3750000              1.0000000
****
B     0
S    6   1.00
   2068.8823000              0.0018663
    310.6495700              0.0142515
     70.6830330              0.0695516
     19.8610800              0.2325729
      6.2993048              0.4670787
      2.1270270              0.3634314
SP   3   1.00
      4.7279710             -0.1303938              0.0745976
      1.1903377             -0.1307889              0.3078467
      0.3594117              1.1309444              0.7434568
SP   1   1.00
      0.1267512              1.0000000              1.0000000
D    1   1.00
      0.8020000              1.0000000
D    1   1.00
      0.2005000              1.0000000
F    1   1.00
      0.5000000              1.0000000
****
C     0
S    6   1.00
   3047.5249000              0.0018347
    457.3695100              0.0140373
    103.9486900              0.0688426
     29.2101550              0.2321844
      9.2866630              0.4679413
      3.1639270              0.3623120
SP   3   1.00
      7.8682724             -0.1193324              0.0689991
      1.8812885             -0.1608542              0.3164240
      0.5442493              1.1434564              0.7443083
SP   1   1.00
      0.1687144              1.0000000              1.0000000
D    1   1.00
      1.2520000              1.0000000
D    1   1.00
      0.3130000              1.0000000
F    1   1.00
      0.8000000              1.0000000
****
N     0
S    6   1.00
   4173.5110000              0.0018348
    627.4579000              0.0139950
    142.9021000              0.0685870
     40.2343300              0.2322410
     12.8202100              0.4690700
      4.3904370              0.3604550
SP   3   1.00
     11.6263580             -0.1149610              0.0675800
      2.7162800             -0.1691180              0.3239070
      0.7722180              1.1458520              0.7408950
SP   1   1.00
      0.2120313              1.0000000              1.0000000
D    1   1.00
      1.8260000              1.0000000
D    1   1.00
      0.4565000              1.0000000
F    1   1.00
      1.0000000              1.0000000
****
O     0
S    6   1.00
   5484.6717000              0.0018311
    825.2349500              0.0139501
    188.0469600              0.0684451
     52.9645000              0.2327143
     16.8975700              0.4701930
      5.7996353              0.3585209
SP   3   1.00
     15.5396160             -0.1107775              0.0708743
      3.5999336             -0.1480263              0.3397528
      1.0137618              1.1307670              0.7271586
SP   1   1.00
      0.2700058              1.0000000              1.0000000
D    1   1.00
      2.5840000              1.0000000
D    1   1.00
      0.6460000              1.0000000
F    1   1.00
      1.4000000              1.0000000
****
F     0
S    6   1.00
   7001.7130900              0.0018196169
   1051.3660900              0.0139160796
    239.2856900              0.0684053245
     67.3974453              0.233185760
     21.5199573              0.471267439
      7.40310130             0.356618546
SP   3   1.00
     20.8479528             -0.108506975            0.0716287243
      4.80830834            -0.146451658            0.3459121030
      1.34406986             1.128688580            0.7224699570
SP   1   1.00
      0.358151393            1.0000000              1.0000000
D    1   1.00
      3.5000000              1.0000000
D    1   1.00
      0.8750000              1.0000000
F    1   1.00
      1.8500000              1.0000000
****
Al     0
S    6   1.00
  13983.1000000              0.00194267
   2098.7500000              0.0148599
    477.7050000              0.0728494
    134.3600000              0.2468300
     42.8709000              0.4872580
     14.5189000              0.3234960
SP   6   1.00
    239.6680000             -0.00292619             0.00460285
     57.4419000             -0.0374080              0.0331990
     18.2859000             -0.1144870              0.1362820
      6.5991400              0.1156350              0.3304760
      2.4904900              0.6125950              0.4491460
      0.9445400              0.3937990              0.2657040
SP   3   1.00
      1.2779000             -0.2276060             -0.0175130
      0.3975900              0.00144583             0.2445330
      0.1600950              1.0927900              0.8049340
SP   1   1.00
      0.0556577              1.0000000              1.0000000
D    1   1.00
      0.6500000              1.0000000
D    1   1.00
      0.1625000              1.0000000
F    1   1.00
      0.2500000              1.0000000
****
Si     0
S    6   1.00
  16115.9000000              0.00195948
   2425.5800000              0.01492880
    553.8670000              0.07284780
    156.3400000              0.24613000
     50.0683000              0.48591400
     17.0178000              0.32500200
SP   6   1.00
    292.7180000             -0.00278094             0.00443826
     69.8731000             -0.03571460             0.03266790
     22.3363000             -0.11498500             0.13472100
      8.1503900              0.09356340             0.32867800
      3.1345800              0.60301700             0.44964000
      1.2254300              0.41895900             0.26137200
SP   3   1.00
      1.7273800             -0.24463000            -0.01779510
      0.5729220              0.00431572             0.25353900
      0.2221920              1.09818000             0.80066900
SP   1   1.00
      0.0778369              1.00000000             1.00000000
D    1   1.00
      0.9000000              1.0000000
D    1   1.00
      0.2250000              1.0000000
F    1   1.00
      0.3200000              1.0000000
****
P     0
S    6   1.00
  19413.3000000              0.0018516
   2909.4200000              0.0142062
    661.3640000              0.0699995
    185.7590000              0.2400790
     59.1943000              0.4847620
     20.0310000              0.3352000
SP   6   1.00
    339.4780000             -0.00278217             0.00456462
     81.0101000             -0.0360499              0.03369360
     25.8780000             -0.1166310              0.13975500
      9.4522100              0.0968328              0.33936200
      3.6656600              0.6144180              0.45092100
      1.4674600              0.4037980              0.23858600
SP   3   1.00
      2.1562300             -0.2529230             -0.01776530
      0.7489970              0.0328517              0.27405800
      0.2831450              1.0812500              0.78542100
SP   1   1.00
      0.0998317              1.0000000              1.00000000
D    1   1.00
      1.1000000              1.0000000
D    1   1.00
      0.2750000              1.0000000
F    1   1.00
      0.4500000              1.0000000
****
S     0
S    6   1.00
  21917.1000000              0.0018690
   3301.4900000              0.0142300
    754.1460000              0.0696960
    212.7110000              0.2384870
     67.9896000              0.4833070
     23.0515000              0.3380740
SP   6   1.00
    423.7350000             -0.0023767              0.0040610
    100.7100000             -0.0316930              0.0306810
     32.1599000             -0.1133170              0.1304520
     11.8079000              0.0560900              0.3272050
      4.6311000              0.5922550              0.4528510
      1.8702500              0.4550060              0.2560420
SP   3   1.00
      2.6158400             -0.2503740             -0.0145110
      0.9221670              0.0669570              0.3102630
      0.3412870              1.0545100              0.7544830
SP   1   1.00
      0.1171670              1.0000000              1.0000000
D    1   1.00
      1.3000000              1.0000000
D    1   1.00
      0.3250000              1.0000000
F    1   1.00
      0.5500000              1.0000000
****
Cl     0
S    6   1.00
  25180.1000000              0.0018330
   3780.3500000              0.0140340
    860.4740000              0.0690970
    242.1450000              0.2374520
     77.3349000              0.4830340
     26.2470000              0.3398560
SP   6   1.00
    491.7650000             -0.0022974              0.0039894
    116.9840000             -0.0307140              0.0303180
     37.4153000             -0.1125280              0.1298800
     13.7834000              0.0450160              0.3279510
      5.4521500              0.5893530              0.4535270
      2.2258800              0.4652060              0.2521540
SP   3   1.00
      3.1864900             -0.2518300             -0.0142990
      1.1442700              0.0615890              0.3235720
      0.4203770              1.0601800              0.7435070
SP   1   1.00
      0.1426570              1.0000000              1.0000000
D    1   1.00
      1.5000000              1.0000000
D    1   1.00
      0.3750000              1.0000000
F    1   1.00
      0.7000000              1.0000000
****
}


set {
reference rhf                          
freeze_core true
e_convergence 10                       
d_convergence 10                      
dft_spherical_points 1202
dft_radial_points 99
}

e = energy('b3lyp')

print_out('Grab this energy {0}'.format(e))
--------------------------------------------------------------------------

  Memory set to  13.039 GiB by Python driver.

Scratch directory: /tmp/

*** tstart() called on n054
*** at Mon Nov  8 15:37:47 2021

   => Loading Basis Set <=

    Name: ANONYMOUS4C7212E8
    Role: ORBITAL
    Keyword: BASIS
    atoms 1-2, 4 entry C          line    48 inputblock 6-31g_2dfp_ 
    atoms 3      entry O          line    90 inputblock 6-31g_2dfp_ 
    atoms 5-12   entry H          line    15 inputblock 6-31g_2dfp_ 


         ---------------------------------------------------------
                                   SCF
               by Justin Turney, Rob Parrish, Andy Simmonett
                          and Daniel G. A. Smith
                              RKS Reference
                        1 Threads,  13351 MiB Core
         ---------------------------------------------------------

  ==> Geometry <==

    Molecular point group: c1
    Full point group: C1

    Geometry (in Bohr), charge = 0, multiplicity = 1:

       Center              X                  Y                   Z               Mass       
    ------------   -----------------  -----------------  -----------------  -----------------
         C           -3.514488498726     0.289760597713    -0.001329045985    12.000000000000
         C           -0.953161324826    -0.992844113987    -0.000046809185    12.000000000000
         O            0.934944536874     0.901360160113     0.000239760315    15.994914619570
         C            3.376128086874    -0.171952982587     0.000487056315    12.000000000000
         H           -5.026054113026    -1.115443781487    -0.003738331785     1.007825032230
         H           -3.721531771226     1.474963960913    -1.669025766185     1.007825032230
         H           -3.718615322426     1.482604621513     1.675394038715     1.007825032230
         H           -0.741674614426    -2.204783980887     1.675594995015     1.007825032230
         H           -0.743059182626    -2.202645279487    -1.673140892085     1.007825032230
         H            4.735973222474     1.372063702713     0.000582990615     1.007825032230
         H            3.686475342774    -1.346559366087    -1.681483277985     1.007825032230
         H            3.686800489174    -1.346530034587     1.682593849215     1.007825032230

  Running in c1 symmetry.

  Rotational constants: A =      0.93800  B =      0.13957  C =      0.13043 [cm^-1]
  Rotational constants: A =  28120.47482  B =   4184.06617  C =   3910.29781 [MHz]
  Nuclear repulsion =  133.771601001927849

  Charge       = 0
  Multiplicity = 1
  Electrons    = 34
  Nalpha       = 17
  Nbeta        = 17

  ==> Algorithm <==

  SCF Algorithm Type is DF.
  DIIS enabled.
  MOM disabled.
  Fractional occupation disabled.
  Guess Type is SAD.
  Energy threshold   = 1.00e-10
  Density threshold  = 1.00e-10
  Integral threshold = 0.00e+00

  ==> Primary Basis <==

  Basis Set: ANONYMOUS4C7212E8
    Blend: 6-31G_2DFP_
    Number of shells: 64
    Number of basis function: 168
    Number of Cartesian functions: 188
    Spherical Harmonics?: true
    Max angular momentum: 3

  ==> DFT Potential <==

   => Composite Functional: B3LYP <= 

    B3LYP Hyb-GGA Exchange-Correlation Functional

    P. J. Stephens, F. J. Devlin, C. F. Chabalowski, and M. J. Frisch, J. Phys. Chem. 98, 11623 (1994)

    Deriv               =              1
    GGA                 =           TRUE
    Meta                =          FALSE

    Exchange Hybrid     =           TRUE
    MP2 Hybrid          =          FALSE

   => Exchange Functionals <=

    0.0800   Slater exchange
    0.7200         Becke 88

   => Exact (HF) Exchange <=

    0.2000               HF 

   => Correlation Functionals <=

    0.1900   Vosko, Wilk & Nusair (VWN5_RPA)
    0.8100   Lee, Yang & Parr

   => Molecular Quadrature <=

    Radial Scheme          =       TREUTLER
    Pruning Scheme         =           NONE
    Nuclear Scheme         =       TREUTLER

    BS radius alpha        =              1
    Pruning alpha          =              1
    Radial Points          =             99
    Spherical Points       =           1202
    Total Points           =        1335113
    Total Blocks           =           8892
    Max Points             =            256
    Max Functions          =            164
    Weights Tolerance      =       1.00E-15

   => Loading Basis Set <=

    Name: (ANONYMOUS4C7212E8 AUX)
    Role: JKFIT
    Keyword: DF_BASIS_SCF
    atoms 1-2, 4 entry C          line   198 file /opt/psi/4/master/share/psi4/basis/def2-universal-jkfit.gbs 
    atoms 3      entry O          line   318 file /opt/psi/4/master/share/psi4/basis/def2-universal-jkfit.gbs 
    atoms 5-12   entry H          line    18 file /opt/psi/4/master/share/psi4/basis/def2-universal-jkfit.gbs 

  ==> Integral Setup <==

  DFHelper Memory: AOs need 0.099 GiB; user supplied 4.856 GiB. Using in-core AOs.

  ==> MemDFJK: Density-Fitted J/K Matrices <==

    J tasked:                   Yes
    K tasked:                   Yes
    wK tasked:                   No
    OpenMP threads:               1
    Memory [MiB]:              4972
    Algorithm:                 Core
    Schwarz Cutoff:           1E-12
    Mask sparsity (%):       2.6857
    Fitting Condition:        1E-10

   => Auxiliary Basis Set <=

  Basis Set: (ANONYMOUS4C7212E8 AUX)
    Blend: DEF2-UNIVERSAL-JKFIT
    Number of shells: 148
    Number of basis function: 446
    Number of Cartesian functions: 520
    Spherical Harmonics?: true
    Max angular momentum: 4

  Cached 100.0% of DFT collocation blocks in 4.923 [GiB].

  Minimum eigenvalue in the overlap matrix is 1.6512329323E-03.
  Reciprocal condition number of the overlap matrix is 2.8704398953E-04.
    Using symmetric orthogonalization.

  ==> Pre-Iterations <==

  SCF Guess: Superposition of Atomic Densities via on-the-fly atomic UHF (no occupation information).

   -------------------------
    Irrep   Nso     Nmo    
   -------------------------
     A        168     168 
   -------------------------
    Total     168     168
   -------------------------

  ==> Iterations <==

                           Total Energy        Delta E     RMS |[F,P]|

   @DF-RKS iter SAD:  -193.69163979620873   -1.93692e+02   0.00000e+00 
   @DF-RKS iter   1:  -194.07146582738329   -3.79826e-01   4.41875e-03 DIIS
   @DF-RKS iter   2:  -193.94992132727151    1.21545e-01   5.31119e-03 DIIS
   @DF-RKS iter   3:  -194.35374832629049   -4.03827e-01   7.82117e-04 DIIS
   @DF-RKS iter   4:  -194.35976207974397   -6.01375e-03   2.53737e-04 DIIS
   @DF-RKS iter   5:  -194.36044380187639   -6.81722e-04   4.00555e-05 DIIS
   @DF-RKS iter   6:  -194.36046063859402   -1.68367e-05   1.68442e-05 DIIS
   @DF-RKS iter   7:  -194.36046426296645   -3.62437e-06   2.37272e-06 DIIS
   @DF-RKS iter   8:  -194.36046434220526   -7.92388e-08   3.72022e-07 DIIS
   @DF-RKS iter   9:  -194.36046434429633   -2.09107e-09   9.09584e-08 DIIS
   @DF-RKS iter  10:  -194.36046434439555   -9.92202e-11   3.48422e-08 DIIS
   @DF-RKS iter  11:  -194.36046434441158   -1.60298e-11   3.61497e-09 DIIS
   @DF-RKS iter  12:  -194.36046434441243   -8.52651e-13   5.18665e-10 DIIS
   @DF-RKS iter  13:  -194.36046434441209    3.41061e-13   1.18389e-10 DIIS
   @DF-RKS iter  14:  -194.36046434441212   -2.84217e-14   2.36529e-11 DIIS
  Energy and wave function converged.


  ==> Post-Iterations <==

    Orbital Energies [Eh]
    ---------------------

    Doubly Occupied:                                                      

       1A    -19.139730     2A    -10.221576     3A    -10.217276  
       4A    -10.167499     5A     -1.027553     6A     -0.757654  
       7A     -0.670017     8A     -0.603163     9A     -0.482160  
      10A     -0.478437    11A     -0.448690    12A     -0.416838  
      13A     -0.381208    14A     -0.358029    15A     -0.351057  
      16A     -0.316479    17A     -0.252898  

    Virtual:                                                              

      18A      0.081283    19A      0.106585    20A      0.138021  
      21A      0.139431    22A      0.152442    23A      0.167575  
      24A      0.171263    25A      0.177066    26A      0.188484  
      27A      0.229477    28A      0.246374    29A      0.404590  
      30A      0.421226    31A      0.454309    32A      0.460446  
      33A      0.461601    34A      0.471565    35A      0.472869  
      36A      0.510692    37A      0.527092    38A      0.564577  
      39A      0.581971    40A      0.584423    41A      0.586563  
      42A      0.598680    43A      0.612151    44A      0.616096  
      45A      0.635200    46A      0.643752    47A      0.662456  
      48A      0.713904    49A      0.771185    50A      0.812798  
      51A      0.835008    52A      0.856953    53A      0.886198  
      54A      0.930857    55A      0.970940    56A      0.979971  
      57A      1.017755    58A      1.026921    59A      1.071343  
      60A      1.096292    61A      1.121446    62A      1.154852  
      63A      1.156256    64A      1.177567    65A      1.230627  
      66A      1.234938    67A      1.240327    68A      1.281970  
      69A      1.312274    70A      1.337418    71A      1.359292  
      72A      1.382190    73A      1.386878    74A      1.394874  
      75A      1.420995    76A      1.446700    77A      1.457117  
      78A      1.485935    79A      1.522706    80A      1.564775  
      81A      1.624281    82A      1.718255    83A      1.742369  
      84A      1.763295    85A      1.783249    86A      1.829731  
      87A      1.876004    88A      1.911521    89A      1.964375  
      90A      1.986929    91A      2.068717    92A      2.082725  
      93A      2.111676    94A      2.271069    95A      2.290468  
      96A      2.396677    97A      2.771680    98A      2.832289  
      99A      2.882194   100A      2.899846   101A      2.929495  
     102A      2.937466   103A      2.960521   104A      2.961475  
     105A      3.016226   106A      3.042851   107A      3.113424  
     108A      3.131135   109A      3.143502   110A      3.168527  
     111A      3.191832   112A      3.260123   113A      3.288457  
     114A      3.329183   115A      3.363466   116A      3.379485  
     117A      3.455035   118A      3.461758   119A      3.549651  
     120A      3.559446   121A      3.576318   122A      3.609098  
     123A      3.671447   124A      3.688082   125A      3.754871  
     126A      3.756091   127A      3.794472   128A      3.822470  
     129A      3.975076   130A      3.980887   131A      4.059682  
     132A      4.124618   133A      4.154993   134A      4.168030  
     135A      4.188345   136A      4.212636   137A      4.219495  
     138A      4.259352   139A      4.269320   140A      4.316663  
     141A      4.362603   142A      4.400460   143A      4.449586  
     144A      4.482043   145A      4.520451   146A      4.554324  
     147A      4.556809   148A      4.598629   149A      4.846962  
     150A      4.944500   151A      5.068716   152A      5.084169  
     153A      5.151046   154A      5.202884   155A      5.254286  
     156A      5.296447   157A      5.403827   158A      5.433000  
     159A      5.580180   160A      5.756662   161A      5.830458  
     162A      5.925890   163A      6.200574   164A      7.073830  
     165A      7.186216   166A      7.309195   167A      7.507080  
     168A      7.540135  

    Final Occupation by Irrep:
              A 
    DOCC [    17 ]

  @DF-RKS Final Energy:  -194.36046434441212

   => Energetics <=

    Nuclear Repulsion Energy =            133.7716010019278485
    One-Electron Energy =                -527.4599407748526119
    Two-Electron Energy =                 221.9025667949989327
    DFT Exchange-Correlation Energy =     -22.5746913664862525
    Empirical Dispersion Energy =           0.0000000000000000
    VV10 Nonlocal Energy =                  0.0000000000000000
    Total Energy =                       -194.3604643444121223

Computation Completed


Properties will be evaluated at   0.000000,   0.000000,   0.000000 [a0]

Properties computed using the SCF density matrix

  Nuclear Dipole Moment: [e a0]
     X:    -0.9113      Y:    -1.9257      Z:     0.0034

  Electronic Dipole Moment: [e a0]
     X:     0.9688      Y:     1.5053      Z:    -0.0054

  Dipole Moment: [e a0]
     X:     0.0576      Y:    -0.4204      Z:    -0.0020     Total:     0.4243

  Dipole Moment: [D]
     X:     0.1464      Y:    -1.0686      Z:    -0.0051     Total:     1.0786


*** tstop() called on n054 at Mon Nov  8 15:39:20 2021
Module time:
	user time   =      91.18 seconds =       1.52 minutes
	system time =       1.34 seconds =       0.02 minutes
	total time  =         93 seconds =       1.55 minutes
Total time:
	user time   =      91.18 seconds =       1.52 minutes
	system time =       1.34 seconds =       0.02 minutes
	total time  =         93 seconds =       1.55 minutes
Grab this energy -194.36046434441212
    Psi4 stopped on: Monday, 08 November 2021 03:39PM
    Psi4 wall time for execution: 0:01:32.57

*** Psi4 exiting successfully. Buy a developer a beer!
