
    -----------------------------------------------------------------------
          Psi4: An Open-Source Ab Initio Electronic Structure Package
                               Psi4 1.4a2.dev629 

                         Git: Rev {master} 2938fc2 dirty


    D. G. A. Smith, L. A. Burns, A. C. Simmonett, R. M. Parrish,
    M. C. Schieber, R. Galvelis, P. Kraus, H. Kruse, R. Di Remigio,
    A. Alenaizan, A. M. James, S. Lehtola, J. P. Misiewicz, M. Scheurer,
    R. A. Shaw, J. B. Schriber, Y. Xie, Z. L. Glick, D. A. Sirianni,
    J. S. O'Brien, J. M. Waldrop, A. Kumar, E. G. Hohenstein,
    B. P. Pritchard, B. R. Brooks, H. F. Schaefer III, A. Yu. Sokolov,
    K. Patkowski, A. E. DePrince III, U. Bozkaya, R. A. King,
    F. A. Evangelista, J. M. Turney, T. D. Crawford, C. D. Sherrill,
    J. Chem. Phys. 152(18) 184108 (2020). https://doi.org/10.1063/5.0006002

                            Additional Code Authors
    E. T. Seidl, C. L. Janssen, E. F. Valeev, M. L. Leininger,
    J. F. Gonthier, R. M. Richard, H. R. McAlexander, M. Saitow, X. Wang,
    P. Verma, and M. H. Lechner

             Previous Authors, Complete List of Code Contributors,
                       and Citations for Specific Modules
    https://github.com/psi4/psi4/blob/master/codemeta.json
    https://github.com/psi4/psi4/graphs/contributors
    http://psicode.org/psi4manual/master/introduction.html#citing-psifour

    -----------------------------------------------------------------------


    Psi4 started on: Monday, 08 November 2021 04:42PM

    Process ID: 4589
    Host:       n023
    PSIDATADIR: /opt/psi/4/master/share/psi4
    Memory:     500.0 MiB
    Threads:    1
    
  ==> Input File <==

--------------------------------------------------------------------------
import os
memory 14 GB 
 
molecule {
 C   -3.5074614559    0.2898593190   -0.0000000000
 C   -0.9536449107   -0.9951224072    0.0000000000
 O    0.9318191192    0.8985538068    0.0000000000
 C    3.3690790838   -0.1708808376    0.0000000000
 H   -5.0232803442   -1.1167304035    0.0000000000
 H   -3.7074265371    1.4809944672   -1.6771158070
 H   -3.7074265371    1.4809944672    1.6771158070
 H   -0.7405379126   -2.2084143770    1.6728664703
 H   -0.7405379126   -2.2084143770   -1.6728664703
 H    4.7266182713    1.3757901715    0.0000000000
 H    3.6798725780   -1.3442314847   -1.6823757280
 H    3.6798725780   -1.3442314847    1.6823757280
units bohr
}

basis {

assign 6-31g_2dfp_

[ 6-31g_2dfp_ ]

spherical

!----------------------------------------------------------------------
! Basis Set Exchange
! Version v0.8.13
! https://www.basissetexchange.org
!----------------------------------------------------------------------
!   Basis set: 6-31G(2df,p)
! Description: 6-31G(2df,p)
!        Role: orbital
!     Version: 0  (Data from the original Basis Set Exchange)
!----------------------------------------------------------------------


****
H     0
S    3   1.00
     18.7311370              0.03349460
      2.8253937              0.23472695
      0.6401217              0.81375733
S    1   1.00
      0.1612778              1.00000000
P    1   1.00
      1.5000000              1.0000000
P    1   1.00
      0.3750000              1.0000000
****
B     0
S    6   1.00
   2068.8823000              0.0018663
    310.6495700              0.0142515
     70.6830330              0.0695516
     19.8610800              0.2325729
      6.2993048              0.4670787
      2.1270270              0.3634314
SP   3   1.00
      4.7279710             -0.1303938              0.0745976
      1.1903377             -0.1307889              0.3078467
      0.3594117              1.1309444              0.7434568
SP   1   1.00
      0.1267512              1.0000000              1.0000000
D    1   1.00
      0.8020000              1.0000000
D    1   1.00
      0.2005000              1.0000000
F    1   1.00
      0.5000000              1.0000000
****
C     0
S    6   1.00
   3047.5249000              0.0018347
    457.3695100              0.0140373
    103.9486900              0.0688426
     29.2101550              0.2321844
      9.2866630              0.4679413
      3.1639270              0.3623120
SP   3   1.00
      7.8682724             -0.1193324              0.0689991
      1.8812885             -0.1608542              0.3164240
      0.5442493              1.1434564              0.7443083
SP   1   1.00
      0.1687144              1.0000000              1.0000000
D    1   1.00
      1.2520000              1.0000000
D    1   1.00
      0.3130000              1.0000000
F    1   1.00
      0.8000000              1.0000000
****
N     0
S    6   1.00
   4173.5110000              0.0018348
    627.4579000              0.0139950
    142.9021000              0.0685870
     40.2343300              0.2322410
     12.8202100              0.4690700
      4.3904370              0.3604550
SP   3   1.00
     11.6263580             -0.1149610              0.0675800
      2.7162800             -0.1691180              0.3239070
      0.7722180              1.1458520              0.7408950
SP   1   1.00
      0.2120313              1.0000000              1.0000000
D    1   1.00
      1.8260000              1.0000000
D    1   1.00
      0.4565000              1.0000000
F    1   1.00
      1.0000000              1.0000000
****
O     0
S    6   1.00
   5484.6717000              0.0018311
    825.2349500              0.0139501
    188.0469600              0.0684451
     52.9645000              0.2327143
     16.8975700              0.4701930
      5.7996353              0.3585209
SP   3   1.00
     15.5396160             -0.1107775              0.0708743
      3.5999336             -0.1480263              0.3397528
      1.0137618              1.1307670              0.7271586
SP   1   1.00
      0.2700058              1.0000000              1.0000000
D    1   1.00
      2.5840000              1.0000000
D    1   1.00
      0.6460000              1.0000000
F    1   1.00
      1.4000000              1.0000000
****
F     0
S    6   1.00
   7001.7130900              0.0018196169
   1051.3660900              0.0139160796
    239.2856900              0.0684053245
     67.3974453              0.233185760
     21.5199573              0.471267439
      7.40310130             0.356618546
SP   3   1.00
     20.8479528             -0.108506975            0.0716287243
      4.80830834            -0.146451658            0.3459121030
      1.34406986             1.128688580            0.7224699570
SP   1   1.00
      0.358151393            1.0000000              1.0000000
D    1   1.00
      3.5000000              1.0000000
D    1   1.00
      0.8750000              1.0000000
F    1   1.00
      1.8500000              1.0000000
****
Al     0
S    6   1.00
  13983.1000000              0.00194267
   2098.7500000              0.0148599
    477.7050000              0.0728494
    134.3600000              0.2468300
     42.8709000              0.4872580
     14.5189000              0.3234960
SP   6   1.00
    239.6680000             -0.00292619             0.00460285
     57.4419000             -0.0374080              0.0331990
     18.2859000             -0.1144870              0.1362820
      6.5991400              0.1156350              0.3304760
      2.4904900              0.6125950              0.4491460
      0.9445400              0.3937990              0.2657040
SP   3   1.00
      1.2779000             -0.2276060             -0.0175130
      0.3975900              0.00144583             0.2445330
      0.1600950              1.0927900              0.8049340
SP   1   1.00
      0.0556577              1.0000000              1.0000000
D    1   1.00
      0.6500000              1.0000000
D    1   1.00
      0.1625000              1.0000000
F    1   1.00
      0.2500000              1.0000000
****
Si     0
S    6   1.00
  16115.9000000              0.00195948
   2425.5800000              0.01492880
    553.8670000              0.07284780
    156.3400000              0.24613000
     50.0683000              0.48591400
     17.0178000              0.32500200
SP   6   1.00
    292.7180000             -0.00278094             0.00443826
     69.8731000             -0.03571460             0.03266790
     22.3363000             -0.11498500             0.13472100
      8.1503900              0.09356340             0.32867800
      3.1345800              0.60301700             0.44964000
      1.2254300              0.41895900             0.26137200
SP   3   1.00
      1.7273800             -0.24463000            -0.01779510
      0.5729220              0.00431572             0.25353900
      0.2221920              1.09818000             0.80066900
SP   1   1.00
      0.0778369              1.00000000             1.00000000
D    1   1.00
      0.9000000              1.0000000
D    1   1.00
      0.2250000              1.0000000
F    1   1.00
      0.3200000              1.0000000
****
P     0
S    6   1.00
  19413.3000000              0.0018516
   2909.4200000              0.0142062
    661.3640000              0.0699995
    185.7590000              0.2400790
     59.1943000              0.4847620
     20.0310000              0.3352000
SP   6   1.00
    339.4780000             -0.00278217             0.00456462
     81.0101000             -0.0360499              0.03369360
     25.8780000             -0.1166310              0.13975500
      9.4522100              0.0968328              0.33936200
      3.6656600              0.6144180              0.45092100
      1.4674600              0.4037980              0.23858600
SP   3   1.00
      2.1562300             -0.2529230             -0.01776530
      0.7489970              0.0328517              0.27405800
      0.2831450              1.0812500              0.78542100
SP   1   1.00
      0.0998317              1.0000000              1.00000000
D    1   1.00
      1.1000000              1.0000000
D    1   1.00
      0.2750000              1.0000000
F    1   1.00
      0.4500000              1.0000000
****
S     0
S    6   1.00
  21917.1000000              0.0018690
   3301.4900000              0.0142300
    754.1460000              0.0696960
    212.7110000              0.2384870
     67.9896000              0.4833070
     23.0515000              0.3380740
SP   6   1.00
    423.7350000             -0.0023767              0.0040610
    100.7100000             -0.0316930              0.0306810
     32.1599000             -0.1133170              0.1304520
     11.8079000              0.0560900              0.3272050
      4.6311000              0.5922550              0.4528510
      1.8702500              0.4550060              0.2560420
SP   3   1.00
      2.6158400             -0.2503740             -0.0145110
      0.9221670              0.0669570              0.3102630
      0.3412870              1.0545100              0.7544830
SP   1   1.00
      0.1171670              1.0000000              1.0000000
D    1   1.00
      1.3000000              1.0000000
D    1   1.00
      0.3250000              1.0000000
F    1   1.00
      0.5500000              1.0000000
****
Cl     0
S    6   1.00
  25180.1000000              0.0018330
   3780.3500000              0.0140340
    860.4740000              0.0690970
    242.1450000              0.2374520
     77.3349000              0.4830340
     26.2470000              0.3398560
SP   6   1.00
    491.7650000             -0.0022974              0.0039894
    116.9840000             -0.0307140              0.0303180
     37.4153000             -0.1125280              0.1298800
     13.7834000              0.0450160              0.3279510
      5.4521500              0.5893530              0.4535270
      2.2258800              0.4652060              0.2521540
SP   3   1.00
      3.1864900             -0.2518300             -0.0142990
      1.1442700              0.0615890              0.3235720
      0.4203770              1.0601800              0.7435070
SP   1   1.00
      0.1426570              1.0000000              1.0000000
D    1   1.00
      1.5000000              1.0000000
D    1   1.00
      0.3750000              1.0000000
F    1   1.00
      0.7000000              1.0000000
****
}


set {
reference rhf                          
freeze_core true
e_convergence 10                       
d_convergence 10                      
dft_spherical_points 1202
dft_radial_points 99
}

e = energy('b3lyp')

print_out('Grab this energy {0}'.format(e))
--------------------------------------------------------------------------

  Memory set to  13.039 GiB by Python driver.

Scratch directory: /tmp/

*** tstart() called on n023
*** at Mon Nov  8 16:42:18 2021

   => Loading Basis Set <=

    Name: ANONYMOUS03A70E7F
    Role: ORBITAL
    Keyword: BASIS
    atoms 1-2, 4 entry C          line    48 inputblock 6-31g_2dfp_ 
    atoms 3      entry O          line    90 inputblock 6-31g_2dfp_ 
    atoms 5-12   entry H          line    15 inputblock 6-31g_2dfp_ 


         ---------------------------------------------------------
                                   SCF
               by Justin Turney, Rob Parrish, Andy Simmonett
                          and Daniel G. A. Smith
                              RKS Reference
                        1 Threads,  13351 MiB Core
         ---------------------------------------------------------

  ==> Geometry <==

    Molecular point group: cs
    Full point group: Cs

    Geometry (in Bohr), charge = 0, multiplicity = 1:

       Center              X                  Y                   Z               Mass       
    ------------   -----------------  -----------------  -----------------  -----------------
         C           -3.506676407849     0.290792974625     0.000000000000    12.000000000000
         C           -0.952859862649    -0.994188751575     0.000000000000    12.000000000000
         O            0.932604167251     0.899487462425     0.000000000000    15.994914619570
         C            3.369864131851    -0.169947181975     0.000000000000    12.000000000000
         H           -5.022495296149    -1.115796747875     0.000000000000     1.007825032230
         H           -3.706641489049     1.481928122825    -1.677115807000     1.007825032230
         H           -3.706641489049     1.481928122825     1.677115807000     1.007825032230
         H           -0.739752864549    -2.207480721375     1.672866470300     1.007825032230
         H           -0.739752864549    -2.207480721375    -1.672866470300     1.007825032230
         H            4.727403319351     1.376723827125     0.000000000000     1.007825032230
         H            3.680657626051    -1.343297829075    -1.682375728000     1.007825032230
         H            3.680657626051    -1.343297829075     1.682375728000     1.007825032230

  Running in cs symmetry.

  Rotational constants: A =      0.93726  B =      0.14010  C =      0.13090 [cm^-1]
  Rotational constants: A =  28098.32759  B =   4199.95990  C =   3924.17534 [MHz]
  Nuclear repulsion =  133.913690681280400

  Charge       = 0
  Multiplicity = 1
  Electrons    = 34
  Nalpha       = 17
  Nbeta        = 17

  ==> Algorithm <==

  SCF Algorithm Type is DF.
  DIIS enabled.
  MOM disabled.
  Fractional occupation disabled.
  Guess Type is SAD.
  Energy threshold   = 1.00e-10
  Density threshold  = 1.00e-10
  Integral threshold = 0.00e+00

  ==> Primary Basis <==

  Basis Set: ANONYMOUS03A70E7F
    Blend: 6-31G_2DFP_
    Number of shells: 64
    Number of basis function: 168
    Number of Cartesian functions: 188
    Spherical Harmonics?: true
    Max angular momentum: 3

  ==> DFT Potential <==

   => Composite Functional: B3LYP <= 

    B3LYP Hyb-GGA Exchange-Correlation Functional

    P. J. Stephens, F. J. Devlin, C. F. Chabalowski, and M. J. Frisch, J. Phys. Chem. 98, 11623 (1994)

    Deriv               =              1
    GGA                 =           TRUE
    Meta                =          FALSE

    Exchange Hybrid     =           TRUE
    MP2 Hybrid          =          FALSE

   => Exchange Functionals <=

    0.0800   Slater exchange
    0.7200         Becke 88

   => Exact (HF) Exchange <=

    0.2000               HF 

   => Correlation Functionals <=

    0.1900   Vosko, Wilk & Nusair (VWN5_RPA)
    0.8100   Lee, Yang & Parr

   => Molecular Quadrature <=

    Radial Scheme          =       TREUTLER
    Pruning Scheme         =           NONE
    Nuclear Scheme         =       TREUTLER

    BS radius alpha        =              1
    Pruning alpha          =              1
    Radial Points          =             99
    Spherical Points       =           1202
    Total Points           =        1335095
    Total Blocks           =           8876
    Max Points             =            256
    Max Functions          =            164
    Weights Tolerance      =       1.00E-15

   => Loading Basis Set <=

    Name: (ANONYMOUS03A70E7F AUX)
    Role: JKFIT
    Keyword: DF_BASIS_SCF
    atoms 1-2, 4 entry C          line   198 file /opt/psi/4/master/share/psi4/basis/def2-universal-jkfit.gbs 
    atoms 3      entry O          line   318 file /opt/psi/4/master/share/psi4/basis/def2-universal-jkfit.gbs 
    atoms 5-12   entry H          line    18 file /opt/psi/4/master/share/psi4/basis/def2-universal-jkfit.gbs 

  ==> Integral Setup <==

  DFHelper Memory: AOs need 0.099 GiB; user supplied 4.850 GiB. Using in-core AOs.

  ==> MemDFJK: Density-Fitted J/K Matrices <==

    J tasked:                   Yes
    K tasked:                   Yes
    wK tasked:                   No
    OpenMP threads:               1
    Memory [MiB]:              4966
    Algorithm:                 Core
    Schwarz Cutoff:           1E-12
    Mask sparsity (%):       2.6715
    Fitting Condition:        1E-10

   => Auxiliary Basis Set <=

  Basis Set: (ANONYMOUS03A70E7F AUX)
    Blend: DEF2-UNIVERSAL-JKFIT
    Number of shells: 148
    Number of basis function: 446
    Number of Cartesian functions: 520
    Spherical Harmonics?: true
    Max angular momentum: 4

  Cached 100.0% of DFT collocation blocks in 4.929 [GiB].

  Minimum eigenvalue in the overlap matrix is 1.6417101851E-03.
  Reciprocal condition number of the overlap matrix is 3.0834320473E-04.
    Using symmetric orthogonalization.

  ==> Pre-Iterations <==

  SCF Guess: Superposition of Atomic Densities via on-the-fly atomic UHF (no occupation information).

   -------------------------
    Irrep   Nso     Nmo    
   -------------------------
     A'       104     104 
     A"        64      64 
   -------------------------
    Total     168     168
   -------------------------

  ==> Iterations <==

                           Total Energy        Delta E     RMS |[F,P]|

   @DF-RKS iter SAD:  -193.69861345959018   -1.93699e+02   0.00000e+00 
   @DF-RKS iter   1:  -194.07083657888072   -3.72223e-01   6.08495e-03 DIIS
   @DF-RKS iter   2:  -193.94702151547304    1.23815e-01   7.33188e-03 DIIS
   @DF-RKS iter   3:  -194.35374972265200   -4.06728e-01   1.07541e-03 DIIS
   @DF-RKS iter   4:  -194.35975091410296   -6.00119e-03   3.49721e-04 DIIS
   @DF-RKS iter   5:  -194.36043449409740   -6.83580e-04   5.56668e-05 DIIS
   @DF-RKS iter   6:  -194.36045169539162   -1.72013e-05   2.33101e-05 DIIS
   @DF-RKS iter   7:  -194.36045536068423   -3.66529e-06   3.26381e-06 DIIS
   @DF-RKS iter   8:  -194.36045543994263   -7.92584e-08   5.16018e-07 DIIS
   @DF-RKS iter   9:  -194.36045544206678   -2.12415e-09   1.26390e-07 DIIS
   @DF-RKS iter  10:  -194.36045544216782   -1.01039e-10   4.80049e-08 DIIS
   @DF-RKS iter  11:  -194.36045544218456   -1.67404e-11   4.91602e-09 DIIS
   @DF-RKS iter  12:  -194.36045544218484   -2.84217e-13   7.18098e-10 DIIS
   @DF-RKS iter  13:  -194.36045544218533   -4.83169e-13   1.63508e-10 DIIS
   @DF-RKS iter  14:  -194.36045544218436    9.66338e-13   3.24290e-11 DIIS
  Energy and wave function converged.


  ==> Post-Iterations <==

    Orbital Energies [Eh]
    ---------------------

    Doubly Occupied:                                                      

       1Ap   -19.139712     2Ap   -10.221393     3Ap   -10.217062  
       4Ap   -10.168006     5Ap    -1.028755     6Ap    -0.758221  
       7Ap    -0.669736     8Ap    -0.602939     9Ap    -0.482769  
       1App   -0.478883    10Ap    -0.448994     2App   -0.416947  
      11Ap    -0.380889    12Ap    -0.358048     3App   -0.350572  
      13Ap    -0.316736     4App   -0.252943  

    Virtual:                                                              

      14Ap     0.081217    15Ap     0.106450    16Ap     0.138414  
       5App    0.139002    17Ap     0.152351    18Ap     0.167653  
      19Ap     0.171161     6App    0.176963     7App    0.188462  
      20Ap     0.230091    21Ap     0.247196    22Ap     0.404070  
       8App    0.421360    23Ap     0.454713     9App    0.460333  
      24Ap     0.461543    10App    0.471252    25Ap     0.473019  
      26Ap     0.510819    11App    0.527203    27Ap     0.564512  
      28Ap     0.582063    12App    0.584257    29Ap     0.587034  
      30Ap     0.598848    31Ap     0.612020    13App    0.615814  
      14App    0.634595    32Ap     0.643528    33Ap     0.661729  
      15App    0.714747    34Ap     0.771127    16App    0.812537  
      35Ap     0.835185    17App    0.855633    18App    0.886116  
      36Ap     0.930922    19App    0.971402    37Ap     0.980160  
      38Ap     1.017564    20App    1.028188    39Ap     1.070896  
      21App    1.096581    40Ap     1.121025    41Ap     1.155413  
      22App    1.156016    42Ap     1.178488    43Ap     1.230772  
      44Ap     1.234752    23App    1.240661    45Ap     1.281091  
      46Ap     1.313815    47Ap     1.337004    24App    1.359023  
      25App    1.382344    48Ap     1.387097    49Ap     1.394842  
      26App    1.421267    27App    1.445717    50Ap     1.457309  
      51Ap     1.485767    28App    1.522351    52Ap     1.566611  
      53Ap     1.623978    54Ap     1.718445    55Ap     1.740640  
      29App    1.761859    56Ap     1.784159    57Ap     1.828250  
      58Ap     1.876631    30App    1.911171    31App    1.965189  
      59Ap     1.987114    60Ap     2.068479    32App    2.083482  
      61Ap     2.112599    33App    2.271648    62Ap     2.293035  
      63Ap     2.399224    64Ap     2.772478    34App    2.831862  
      65Ap     2.883150    35App    2.898853    36App    2.928960  
      37App    2.936850    66Ap     2.959422    38App    2.961130  
      39App    3.016917    67Ap     3.043107    68Ap     3.115443  
      40App    3.130469    69Ap     3.144407    41App    3.169808  
      70Ap     3.194297    71Ap     3.259896    42App    3.289912  
      43App    3.329882    72Ap     3.364076    73Ap     3.380367  
      44App    3.456295    74Ap     3.463929    45App    3.552411  
      75Ap     3.560674    76Ap     3.577332    77Ap     3.610633  
      46App    3.671535    78Ap     3.687908    79Ap     3.755799  
      47App    3.757487    80Ap     3.795535    81Ap     3.823801  
      48App    3.974448    82Ap     3.982313    83Ap     4.058043  
      84Ap     4.126363    49App    4.154953    85Ap     4.166959  
      50App    4.182884    51App    4.211715    86Ap     4.219204  
      87Ap     4.258089    88Ap     4.270370    89Ap     4.316387  
      52App    4.362957    53App    4.401556    90Ap     4.450746  
      54App    4.480400    55App    4.521187    91Ap     4.553870  
      56App    4.554619    92Ap     4.603554    93Ap     4.847076  
      94Ap     4.943856    57App    5.069012    95Ap     5.084493  
      58App    5.149917    96Ap     5.202748    97Ap     5.248880  
      59App    5.290718    98Ap     5.405298    60App    5.435218  
      99Ap     5.583609    61App    5.759422    62App    5.834765  
     100Ap     5.930684   101Ap     6.206362   102Ap     7.075404  
      63App    7.187338    64App    7.309879   103Ap     7.509505  
     104Ap     7.543691  

    Final Occupation by Irrep:
             Ap   App 
    DOCC [    13,    4 ]

  @DF-RKS Final Energy:  -194.36045544218436

   => Energetics <=

    Nuclear Repulsion Energy =            133.9136906812804000
    One-Electron Energy =                -527.7391345881821962
    Two-Electron Energy =                 222.0401881818463607
    DFT Exchange-Correlation Energy =     -22.5751997171289247
    Empirical Dispersion Energy =           0.0000000000000000
    VV10 Nonlocal Energy =                  0.0000000000000000
    Total Energy =                       -194.3604554421843602

Computation Completed


Properties will be evaluated at   0.000000,   0.000000,   0.000000 [a0]

Properties computed using the SCF density matrix

  Nuclear Dipole Moment: [e a0]
     X:    -0.9038      Y:    -1.9209      Z:     0.0000

  Electronic Dipole Moment: [e a0]
     X:     0.9610      Y:     1.5025      Z:     0.0000

  Dipole Moment: [e a0]
     X:     0.0572      Y:    -0.4184      Z:     0.0000     Total:     0.4223

  Dipole Moment: [D]
     X:     0.1454      Y:    -1.0636      Z:     0.0000     Total:     1.0734


*** tstop() called on n023 at Mon Nov  8 16:44:11 2021
Module time:
	user time   =     111.61 seconds =       1.86 minutes
	system time =       0.98 seconds =       0.02 minutes
	total time  =        113 seconds =       1.88 minutes
Total time:
	user time   =     111.61 seconds =       1.86 minutes
	system time =       0.98 seconds =       0.02 minutes
	total time  =        113 seconds =       1.88 minutes
Grab this energy -194.36045544218436
    Psi4 stopped on: Monday, 08 November 2021 04:44PM
    Psi4 wall time for execution: 0:01:52.63

*** Psi4 exiting successfully. Buy a developer a beer!
