
    -----------------------------------------------------------------------
          Psi4: An Open-Source Ab Initio Electronic Structure Package
                               Psi4 1.4a2.dev629 

                         Git: Rev {master} 2938fc2 dirty


    D. G. A. Smith, L. A. Burns, A. C. Simmonett, R. M. Parrish,
    M. C. Schieber, R. Galvelis, P. Kraus, H. Kruse, R. Di Remigio,
    A. Alenaizan, A. M. James, S. Lehtola, J. P. Misiewicz, M. Scheurer,
    R. A. Shaw, J. B. Schriber, Y. Xie, Z. L. Glick, D. A. Sirianni,
    J. S. O'Brien, J. M. Waldrop, A. Kumar, E. G. Hohenstein,
    B. P. Pritchard, B. R. Brooks, H. F. Schaefer III, A. Yu. Sokolov,
    K. Patkowski, A. E. DePrince III, U. Bozkaya, R. A. King,
    F. A. Evangelista, J. M. Turney, T. D. Crawford, C. D. Sherrill,
    J. Chem. Phys. 152(18) 184108 (2020). https://doi.org/10.1063/5.0006002

                            Additional Code Authors
    E. T. Seidl, C. L. Janssen, E. F. Valeev, M. L. Leininger,
    J. F. Gonthier, R. M. Richard, H. R. McAlexander, M. Saitow, X. Wang,
    P. Verma, and M. H. Lechner

             Previous Authors, Complete List of Code Contributors,
                       and Citations for Specific Modules
    https://github.com/psi4/psi4/blob/master/codemeta.json
    https://github.com/psi4/psi4/graphs/contributors
    http://psicode.org/psi4manual/master/introduction.html#citing-psifour

    -----------------------------------------------------------------------


    Psi4 started on: Monday, 08 November 2021 04:29PM

    Process ID: 2829
    Host:       n062
    PSIDATADIR: /opt/psi/4/master/share/psi4
    Memory:     500.0 MiB
    Threads:    1
    
  ==> Input File <==

--------------------------------------------------------------------------
import os
memory 14 GB 
 
molecule {
 C   -3.5155580505    0.2904428343    0.0006655982
 C   -0.9545847295   -0.9919530580    0.0007920545
 O    0.9358985319    0.9009553176   -0.0002977941
 C    3.3768359673   -0.1728047769    0.0002575286
 H   -5.0251644342   -1.1159905060   -0.0011567514
 H   -3.7159783722    1.4787211421   -1.6704112061
 H   -3.7222185386    1.4780981269    1.6742697072
 H   -0.7436695642   -2.2046236306    1.6755792550
 H   -0.7388674673   -2.2037916069   -1.6727364004
 H    4.7362628562    1.3720925886    0.0029634378
 H    3.6921174909   -1.3523422721   -1.6870887819
 H    3.6818723303   -1.3406372992    1.6771633525
units bohr
}

basis {

assign 6-31g_2dfp_

[ 6-31g_2dfp_ ]

spherical

!----------------------------------------------------------------------
! Basis Set Exchange
! Version v0.8.13
! https://www.basissetexchange.org
!----------------------------------------------------------------------
!   Basis set: 6-31G(2df,p)
! Description: 6-31G(2df,p)
!        Role: orbital
!     Version: 0  (Data from the original Basis Set Exchange)
!----------------------------------------------------------------------


****
H     0
S    3   1.00
     18.7311370              0.03349460
      2.8253937              0.23472695
      0.6401217              0.81375733
S    1   1.00
      0.1612778              1.00000000
P    1   1.00
      1.5000000              1.0000000
P    1   1.00
      0.3750000              1.0000000
****
B     0
S    6   1.00
   2068.8823000              0.0018663
    310.6495700              0.0142515
     70.6830330              0.0695516
     19.8610800              0.2325729
      6.2993048              0.4670787
      2.1270270              0.3634314
SP   3   1.00
      4.7279710             -0.1303938              0.0745976
      1.1903377             -0.1307889              0.3078467
      0.3594117              1.1309444              0.7434568
SP   1   1.00
      0.1267512              1.0000000              1.0000000
D    1   1.00
      0.8020000              1.0000000
D    1   1.00
      0.2005000              1.0000000
F    1   1.00
      0.5000000              1.0000000
****
C     0
S    6   1.00
   3047.5249000              0.0018347
    457.3695100              0.0140373
    103.9486900              0.0688426
     29.2101550              0.2321844
      9.2866630              0.4679413
      3.1639270              0.3623120
SP   3   1.00
      7.8682724             -0.1193324              0.0689991
      1.8812885             -0.1608542              0.3164240
      0.5442493              1.1434564              0.7443083
SP   1   1.00
      0.1687144              1.0000000              1.0000000
D    1   1.00
      1.2520000              1.0000000
D    1   1.00
      0.3130000              1.0000000
F    1   1.00
      0.8000000              1.0000000
****
N     0
S    6   1.00
   4173.5110000              0.0018348
    627.4579000              0.0139950
    142.9021000              0.0685870
     40.2343300              0.2322410
     12.8202100              0.4690700
      4.3904370              0.3604550
SP   3   1.00
     11.6263580             -0.1149610              0.0675800
      2.7162800             -0.1691180              0.3239070
      0.7722180              1.1458520              0.7408950
SP   1   1.00
      0.2120313              1.0000000              1.0000000
D    1   1.00
      1.8260000              1.0000000
D    1   1.00
      0.4565000              1.0000000
F    1   1.00
      1.0000000              1.0000000
****
O     0
S    6   1.00
   5484.6717000              0.0018311
    825.2349500              0.0139501
    188.0469600              0.0684451
     52.9645000              0.2327143
     16.8975700              0.4701930
      5.7996353              0.3585209
SP   3   1.00
     15.5396160             -0.1107775              0.0708743
      3.5999336             -0.1480263              0.3397528
      1.0137618              1.1307670              0.7271586
SP   1   1.00
      0.2700058              1.0000000              1.0000000
D    1   1.00
      2.5840000              1.0000000
D    1   1.00
      0.6460000              1.0000000
F    1   1.00
      1.4000000              1.0000000
****
F     0
S    6   1.00
   7001.7130900              0.0018196169
   1051.3660900              0.0139160796
    239.2856900              0.0684053245
     67.3974453              0.233185760
     21.5199573              0.471267439
      7.40310130             0.356618546
SP   3   1.00
     20.8479528             -0.108506975            0.0716287243
      4.80830834            -0.146451658            0.3459121030
      1.34406986             1.128688580            0.7224699570
SP   1   1.00
      0.358151393            1.0000000              1.0000000
D    1   1.00
      3.5000000              1.0000000
D    1   1.00
      0.8750000              1.0000000
F    1   1.00
      1.8500000              1.0000000
****
Al     0
S    6   1.00
  13983.1000000              0.00194267
   2098.7500000              0.0148599
    477.7050000              0.0728494
    134.3600000              0.2468300
     42.8709000              0.4872580
     14.5189000              0.3234960
SP   6   1.00
    239.6680000             -0.00292619             0.00460285
     57.4419000             -0.0374080              0.0331990
     18.2859000             -0.1144870              0.1362820
      6.5991400              0.1156350              0.3304760
      2.4904900              0.6125950              0.4491460
      0.9445400              0.3937990              0.2657040
SP   3   1.00
      1.2779000             -0.2276060             -0.0175130
      0.3975900              0.00144583             0.2445330
      0.1600950              1.0927900              0.8049340
SP   1   1.00
      0.0556577              1.0000000              1.0000000
D    1   1.00
      0.6500000              1.0000000
D    1   1.00
      0.1625000              1.0000000
F    1   1.00
      0.2500000              1.0000000
****
Si     0
S    6   1.00
  16115.9000000              0.00195948
   2425.5800000              0.01492880
    553.8670000              0.07284780
    156.3400000              0.24613000
     50.0683000              0.48591400
     17.0178000              0.32500200
SP   6   1.00
    292.7180000             -0.00278094             0.00443826
     69.8731000             -0.03571460             0.03266790
     22.3363000             -0.11498500             0.13472100
      8.1503900              0.09356340             0.32867800
      3.1345800              0.60301700             0.44964000
      1.2254300              0.41895900             0.26137200
SP   3   1.00
      1.7273800             -0.24463000            -0.01779510
      0.5729220              0.00431572             0.25353900
      0.2221920              1.09818000             0.80066900
SP   1   1.00
      0.0778369              1.00000000             1.00000000
D    1   1.00
      0.9000000              1.0000000
D    1   1.00
      0.2250000              1.0000000
F    1   1.00
      0.3200000              1.0000000
****
P     0
S    6   1.00
  19413.3000000              0.0018516
   2909.4200000              0.0142062
    661.3640000              0.0699995
    185.7590000              0.2400790
     59.1943000              0.4847620
     20.0310000              0.3352000
SP   6   1.00
    339.4780000             -0.00278217             0.00456462
     81.0101000             -0.0360499              0.03369360
     25.8780000             -0.1166310              0.13975500
      9.4522100              0.0968328              0.33936200
      3.6656600              0.6144180              0.45092100
      1.4674600              0.4037980              0.23858600
SP   3   1.00
      2.1562300             -0.2529230             -0.01776530
      0.7489970              0.0328517              0.27405800
      0.2831450              1.0812500              0.78542100
SP   1   1.00
      0.0998317              1.0000000              1.00000000
D    1   1.00
      1.1000000              1.0000000
D    1   1.00
      0.2750000              1.0000000
F    1   1.00
      0.4500000              1.0000000
****
S     0
S    6   1.00
  21917.1000000              0.0018690
   3301.4900000              0.0142300
    754.1460000              0.0696960
    212.7110000              0.2384870
     67.9896000              0.4833070
     23.0515000              0.3380740
SP   6   1.00
    423.7350000             -0.0023767              0.0040610
    100.7100000             -0.0316930              0.0306810
     32.1599000             -0.1133170              0.1304520
     11.8079000              0.0560900              0.3272050
      4.6311000              0.5922550              0.4528510
      1.8702500              0.4550060              0.2560420
SP   3   1.00
      2.6158400             -0.2503740             -0.0145110
      0.9221670              0.0669570              0.3102630
      0.3412870              1.0545100              0.7544830
SP   1   1.00
      0.1171670              1.0000000              1.0000000
D    1   1.00
      1.3000000              1.0000000
D    1   1.00
      0.3250000              1.0000000
F    1   1.00
      0.5500000              1.0000000
****
Cl     0
S    6   1.00
  25180.1000000              0.0018330
   3780.3500000              0.0140340
    860.4740000              0.0690970
    242.1450000              0.2374520
     77.3349000              0.4830340
     26.2470000              0.3398560
SP   6   1.00
    491.7650000             -0.0022974              0.0039894
    116.9840000             -0.0307140              0.0303180
     37.4153000             -0.1125280              0.1298800
     13.7834000              0.0450160              0.3279510
      5.4521500              0.5893530              0.4535270
      2.2258800              0.4652060              0.2521540
SP   3   1.00
      3.1864900             -0.2518300             -0.0142990
      1.1442700              0.0615890              0.3235720
      0.4203770              1.0601800              0.7435070
SP   1   1.00
      0.1426570              1.0000000              1.0000000
D    1   1.00
      1.5000000              1.0000000
D    1   1.00
      0.3750000              1.0000000
F    1   1.00
      0.7000000              1.0000000
****
}


set {
reference rhf                          
freeze_core true
e_convergence 10                       
d_convergence 10                      
dft_spherical_points 1202
dft_radial_points 99
}

e = energy('b3lyp')

print_out('Grab this energy {0}'.format(e))
--------------------------------------------------------------------------

  Memory set to  13.039 GiB by Python driver.

Scratch directory: /tmp/

*** tstart() called on n062
*** at Mon Nov  8 16:29:33 2021

   => Loading Basis Set <=

    Name: ANONYMOUSE5466A96
    Role: ORBITAL
    Keyword: BASIS
    atoms 1-2, 4 entry C          line    48 inputblock 6-31g_2dfp_ 
    atoms 3      entry O          line    90 inputblock 6-31g_2dfp_ 
    atoms 5-12   entry H          line    15 inputblock 6-31g_2dfp_ 


         ---------------------------------------------------------
                                   SCF
               by Justin Turney, Rob Parrish, Andy Simmonett
                          and Daniel G. A. Smith
                              RKS Reference
                        1 Threads,  13351 MiB Core
         ---------------------------------------------------------

  ==> Geometry <==

    Molecular point group: c1
    Full point group: C1

    Geometry (in Bohr), charge = 0, multiplicity = 1:

       Center              X                  Y                   Z               Mass       
    ------------   -----------------  -----------------  -----------------  -----------------
         C           -3.515556812887     0.290442459883     0.000425986121    12.000000000000
         C           -0.954583491887    -0.991953432417     0.000552442421    12.000000000000
         O            0.935899769513     0.900954943183    -0.000537406179    15.994914619570
         C            3.376837204913    -0.172805151317     0.000017916521    12.000000000000
         H           -5.025163196587    -1.115990880417    -0.001396363479     1.007825032230
         H           -3.715977134587     1.478720767683    -1.670650818179     1.007825032230
         H           -3.722217300987     1.478097752483     1.674030095121     1.007825032230
         H           -0.743668326587    -2.204624005017     1.675339642921     1.007825032230
         H           -0.738866229687    -2.203791981317    -1.672976012479     1.007825032230
         H            4.736264093813     1.372092214183     0.002723825721     1.007825032230
         H            3.692118728513    -1.352342646517    -1.687328393979     1.007825032230
         H            3.681873567913    -1.340637673617     1.676923740421     1.007825032230

  Running in c1 symmetry.

  Rotational constants: A =      0.93831  B =      0.13950  C =      0.13039 [cm^-1]
  Rotational constants: A =  28129.83159  B =   4182.22381  C =   3908.87032 [MHz]
  Nuclear repulsion =  133.761720347235524

  Charge       = 0
  Multiplicity = 1
  Electrons    = 34
  Nalpha       = 17
  Nbeta        = 17

  ==> Algorithm <==

  SCF Algorithm Type is DF.
  DIIS enabled.
  MOM disabled.
  Fractional occupation disabled.
  Guess Type is SAD.
  Energy threshold   = 1.00e-10
  Density threshold  = 1.00e-10
  Integral threshold = 0.00e+00

  ==> Primary Basis <==

  Basis Set: ANONYMOUSE5466A96
    Blend: 6-31G_2DFP_
    Number of shells: 64
    Number of basis function: 168
    Number of Cartesian functions: 188
    Spherical Harmonics?: true
    Max angular momentum: 3

  ==> DFT Potential <==

   => Composite Functional: B3LYP <= 

    B3LYP Hyb-GGA Exchange-Correlation Functional

    P. J. Stephens, F. J. Devlin, C. F. Chabalowski, and M. J. Frisch, J. Phys. Chem. 98, 11623 (1994)

    Deriv               =              1
    GGA                 =           TRUE
    Meta                =          FALSE

    Exchange Hybrid     =           TRUE
    MP2 Hybrid          =          FALSE

   => Exchange Functionals <=

    0.0800   Slater exchange
    0.7200         Becke 88

   => Exact (HF) Exchange <=

    0.2000               HF 

   => Correlation Functionals <=

    0.1900   Vosko, Wilk & Nusair (VWN5_RPA)
    0.8100   Lee, Yang & Parr

   => Molecular Quadrature <=

    Radial Scheme          =       TREUTLER
    Pruning Scheme         =           NONE
    Nuclear Scheme         =       TREUTLER

    BS radius alpha        =              1
    Pruning alpha          =              1
    Radial Points          =             99
    Spherical Points       =           1202
    Total Points           =        1335148
    Total Blocks           =           8880
    Max Points             =            256
    Max Functions          =            164
    Weights Tolerance      =       1.00E-15

   => Loading Basis Set <=

    Name: (ANONYMOUSE5466A96 AUX)
    Role: JKFIT
    Keyword: DF_BASIS_SCF
    atoms 1-2, 4 entry C          line   198 file /opt/psi/4/master/share/psi4/basis/def2-universal-jkfit.gbs 
    atoms 3      entry O          line   318 file /opt/psi/4/master/share/psi4/basis/def2-universal-jkfit.gbs 
    atoms 5-12   entry H          line    18 file /opt/psi/4/master/share/psi4/basis/def2-universal-jkfit.gbs 

  ==> Integral Setup <==

  DFHelper Memory: AOs need 0.099 GiB; user supplied 4.855 GiB. Using in-core AOs.

  ==> MemDFJK: Density-Fitted J/K Matrices <==

    J tasked:                   Yes
    K tasked:                   Yes
    wK tasked:                   No
    OpenMP threads:               1
    Memory [MiB]:              4971
    Algorithm:                 Core
    Schwarz Cutoff:           1E-12
    Mask sparsity (%):       2.6857
    Fitting Condition:        1E-10

   => Auxiliary Basis Set <=

  Basis Set: (ANONYMOUSE5466A96 AUX)
    Blend: DEF2-UNIVERSAL-JKFIT
    Number of shells: 148
    Number of basis function: 446
    Number of Cartesian functions: 520
    Spherical Harmonics?: true
    Max angular momentum: 4

  Cached 100.0% of DFT collocation blocks in 4.924 [GiB].

  Minimum eigenvalue in the overlap matrix is 1.6505246377E-03.
  Reciprocal condition number of the overlap matrix is 2.8692307778E-04.
    Using symmetric orthogonalization.

  ==> Pre-Iterations <==

  SCF Guess: Superposition of Atomic Densities via on-the-fly atomic UHF (no occupation information).

   -------------------------
    Irrep   Nso     Nmo    
   -------------------------
     A        168     168 
   -------------------------
    Total     168     168
   -------------------------

  ==> Iterations <==

                           Total Energy        Delta E     RMS |[F,P]|

   @DF-RKS iter SAD:  -193.69137802554718   -1.93691e+02   0.00000e+00 
   @DF-RKS iter   1:  -194.07140768922906   -3.80030e-01   4.41934e-03 DIIS
   @DF-RKS iter   2:  -193.94994899474713    1.21459e-01   5.31141e-03 DIIS
   @DF-RKS iter   3:  -194.35373025130249   -4.03781e-01   7.82838e-04 DIIS
   @DF-RKS iter   4:  -194.35975761816508   -6.02737e-03   2.53540e-04 DIIS
   @DF-RKS iter   5:  -194.36043823540658   -6.80617e-04   4.01025e-05 DIIS
   @DF-RKS iter   6:  -194.36045511311065   -1.68777e-05   1.68776e-05 DIIS
   @DF-RKS iter   7:  -194.36045875212471   -3.63901e-06   2.37067e-06 DIIS
   @DF-RKS iter   8:  -194.36045883123819   -7.91135e-08   3.72747e-07 DIIS
   @DF-RKS iter   9:  -194.36045883333674   -2.09855e-09   9.14935e-08 DIIS
   @DF-RKS iter  10:  -194.36045883343672   -9.99876e-11   3.48084e-08 DIIS
   @DF-RKS iter  11:  -194.36045883345338   -1.66551e-11   3.61269e-09 DIIS
   @DF-RKS iter  12:  -194.36045883345332    5.68434e-14   5.18852e-10 DIIS
   @DF-RKS iter  13:  -194.36045883345358   -2.55795e-13   1.18435e-10 DIIS
   @DF-RKS iter  14:  -194.36045883345363   -5.68434e-14   2.36773e-11 DIIS
  Energy and wave function converged.


  ==> Post-Iterations <==

    Orbital Energies [Eh]
    ---------------------

    Doubly Occupied:                                                      

       1A    -19.139624     2A    -10.221634     3A    -10.217226  
       4A    -10.167487     5A     -1.027366     6A     -0.757722  
       7A     -0.670052     8A     -0.603093     9A     -0.482092  
      10A     -0.478333    11A     -0.448587    12A     -0.416959  
      13A     -0.381408    14A     -0.358081    15A     -0.351106  
      16A     -0.316343    17A     -0.252790  

    Virtual:                                                              

      18A      0.081245    19A      0.106625    20A      0.138061  
      21A      0.139366    22A      0.152446    23A      0.167521  
      24A      0.171238    25A      0.177191    26A      0.188487  
      27A      0.229479    28A      0.246350    29A      0.404592  
      30A      0.421190    31A      0.454254    32A      0.460400  
      33A      0.461576    34A      0.471548    35A      0.472795  
      36A      0.510683    37A      0.527199    38A      0.564667  
      39A      0.581822    40A      0.584390    41A      0.586687  
      42A      0.598829    43A      0.612112    44A      0.616300  
      45A      0.635226    46A      0.643671    47A      0.662291  
      48A      0.713885    49A      0.771118    50A      0.812784  
      51A      0.834917    52A      0.856844    53A      0.886225  
      54A      0.930992    55A      0.971071    56A      0.980137  
      57A      1.017396    58A      1.027111    59A      1.071265  
      60A      1.096604    61A      1.121209    62A      1.155071  
      63A      1.156154    64A      1.177667    65A      1.230981  
      66A      1.234788    67A      1.240591    68A      1.281995  
      69A      1.312425    70A      1.337313    71A      1.359005  
      72A      1.382214    73A      1.386975    74A      1.394709  
      75A      1.421197    76A      1.446729    77A      1.457444  
      78A      1.486158    79A      1.522360    80A      1.564562  
      81A      1.624371    82A      1.718163    83A      1.742985  
      84A      1.763019    85A      1.783508    86A      1.829250  
      87A      1.876347    88A      1.911423    89A      1.964648  
      90A      1.986373    91A      2.068589    92A      2.083160  
      93A      2.111695    94A      2.270569    95A      2.290422  
      96A      2.396084    97A      2.771723    98A      2.832249  
      99A      2.882474   100A      2.899828   101A      2.929462  
     102A      2.937432   103A      2.960115   104A      2.961424  
     105A      3.016290   106A      3.042637   107A      3.113464  
     108A      3.130864   109A      3.143834   110A      3.168582  
     111A      3.192130   112A      3.260090   113A      3.288625  
     114A      3.329405   115A      3.362824   116A      3.379877  
     117A      3.454830   118A      3.461665   119A      3.549753  
     120A      3.558598   121A      3.576462   122A      3.609079  
     123A      3.671452   124A      3.688222   125A      3.755506  
     126A      3.755938   127A      3.794461   128A      3.822197  
     129A      3.974969   130A      3.981520   131A      4.059646  
     132A      4.125197   133A      4.154774   134A      4.168085  
     135A      4.187805   136A      4.212427   137A      4.219341  
     138A      4.259165   139A      4.269098   140A      4.316543  
     141A      4.363670   142A      4.401298   143A      4.449250  
     144A      4.482175   145A      4.520862   146A      4.554258  
     147A      4.556344   148A      4.599527   149A      4.846971  
     150A      4.945630   151A      5.068760   152A      5.083846  
     153A      5.150709   154A      5.203178   155A      5.254841  
     156A      5.296187   157A      5.403660   158A      5.432522  
     159A      5.579888   160A      5.756757   161A      5.830155  
     162A      5.925627   163A      6.200265   164A      7.073657  
     165A      7.186004   166A      7.309210   167A      7.506995  
     168A      7.539953  

    Final Occupation by Irrep:
              A 
    DOCC [    17 ]

  @DF-RKS Final Energy:  -194.36045883345363

   => Energetics <=

    Nuclear Repulsion Energy =            133.7617203472355243
    One-Electron Energy =                -527.4408528613936369
    Two-Electron Energy =                 221.8934170627220794
    DFT Exchange-Correlation Energy =     -22.5747433820175623
    Empirical Dispersion Energy =           0.0000000000000000
    VV10 Nonlocal Energy =                  0.0000000000000000
    Total Energy =                       -194.3604588334536345

Computation Completed


Properties will be evaluated at   0.000000,   0.000000,   0.000000 [a0]

Properties computed using the SCF density matrix

  Nuclear Dipole Moment: [e a0]
     X:    -0.9083      Y:    -1.9267      Z:    -0.0017

  Electronic Dipole Moment: [e a0]
     X:     0.9647      Y:     1.5066      Z:     0.0044

  Dipole Moment: [e a0]
     X:     0.0564      Y:    -0.4201      Z:     0.0027     Total:     0.4239

  Dipole Moment: [D]
     X:     0.1435      Y:    -1.0679      Z:     0.0069     Total:     1.0775


*** tstop() called on n062 at Mon Nov  8 16:31:05 2021
Module time:
	user time   =      91.37 seconds =       1.52 minutes
	system time =       1.32 seconds =       0.02 minutes
	total time  =         92 seconds =       1.53 minutes
Total time:
	user time   =      91.37 seconds =       1.52 minutes
	system time =       1.32 seconds =       0.02 minutes
	total time  =         92 seconds =       1.53 minutes
Grab this energy -194.36045883345363
    Psi4 stopped on: Monday, 08 November 2021 04:31PM
    Psi4 wall time for execution: 0:01:32.76

*** Psi4 exiting successfully. Buy a developer a beer!
