
    -----------------------------------------------------------------------
          Psi4: An Open-Source Ab Initio Electronic Structure Package
                               Psi4 1.4a2.dev629 

                         Git: Rev {master} 2938fc2 dirty


    D. G. A. Smith, L. A. Burns, A. C. Simmonett, R. M. Parrish,
    M. C. Schieber, R. Galvelis, P. Kraus, H. Kruse, R. Di Remigio,
    A. Alenaizan, A. M. James, S. Lehtola, J. P. Misiewicz, M. Scheurer,
    R. A. Shaw, J. B. Schriber, Y. Xie, Z. L. Glick, D. A. Sirianni,
    J. S. O'Brien, J. M. Waldrop, A. Kumar, E. G. Hohenstein,
    B. P. Pritchard, B. R. Brooks, H. F. Schaefer III, A. Yu. Sokolov,
    K. Patkowski, A. E. DePrince III, U. Bozkaya, R. A. King,
    F. A. Evangelista, J. M. Turney, T. D. Crawford, C. D. Sherrill,
    J. Chem. Phys. 152(18) 184108 (2020). https://doi.org/10.1063/5.0006002

                            Additional Code Authors
    E. T. Seidl, C. L. Janssen, E. F. Valeev, M. L. Leininger,
    J. F. Gonthier, R. M. Richard, H. R. McAlexander, M. Saitow, X. Wang,
    P. Verma, and M. H. Lechner

             Previous Authors, Complete List of Code Contributors,
                       and Citations for Specific Modules
    https://github.com/psi4/psi4/blob/master/codemeta.json
    https://github.com/psi4/psi4/graphs/contributors
    http://psicode.org/psi4manual/master/introduction.html#citing-psifour

    -----------------------------------------------------------------------


    Psi4 started on: Monday, 08 November 2021 02:59PM

    Process ID: 11011
    Host:       n046
    PSIDATADIR: /opt/psi/4/master/share/psi4
    Memory:     500.0 MiB
    Threads:    1
    
  ==> Input File <==

--------------------------------------------------------------------------
import os
memory 14 GB 
 
molecule {
 C   -3.5148147470    0.2919286872    0.0000401130
 C   -0.9553248673   -0.9934135410   -0.0015365205
 O    0.9359150695    0.9011281505   -0.0010527100
 C    3.3768152638   -0.1728738450   -0.0000213193
 H   -5.0251492640   -1.1161566399    0.0034084336
 H   -3.7194300211    1.4763810098   -1.6737622115
 H   -3.7192103244    1.4796990956    1.6712563513
 H   -0.7429243214   -2.2080231610    1.6747005332
 H   -0.7391780925   -2.1996679330   -1.6739478952
 H    4.7362639898    1.3721024834    0.0007563434
 H    3.6864047347   -1.3466727639   -1.6820637630
 H    3.6875785999   -1.3462646826    1.6822226448
units bohr
}

basis {

assign 6-31g_2dfp_

[ 6-31g_2dfp_ ]

spherical

!----------------------------------------------------------------------
! Basis Set Exchange
! Version v0.8.13
! https://www.basissetexchange.org
!----------------------------------------------------------------------
!   Basis set: 6-31G(2df,p)
! Description: 6-31G(2df,p)
!        Role: orbital
!     Version: 0  (Data from the original Basis Set Exchange)
!----------------------------------------------------------------------


****
H     0
S    3   1.00
     18.7311370              0.03349460
      2.8253937              0.23472695
      0.6401217              0.81375733
S    1   1.00
      0.1612778              1.00000000
P    1   1.00
      1.5000000              1.0000000
P    1   1.00
      0.3750000              1.0000000
****
B     0
S    6   1.00
   2068.8823000              0.0018663
    310.6495700              0.0142515
     70.6830330              0.0695516
     19.8610800              0.2325729
      6.2993048              0.4670787
      2.1270270              0.3634314
SP   3   1.00
      4.7279710             -0.1303938              0.0745976
      1.1903377             -0.1307889              0.3078467
      0.3594117              1.1309444              0.7434568
SP   1   1.00
      0.1267512              1.0000000              1.0000000
D    1   1.00
      0.8020000              1.0000000
D    1   1.00
      0.2005000              1.0000000
F    1   1.00
      0.5000000              1.0000000
****
C     0
S    6   1.00
   3047.5249000              0.0018347
    457.3695100              0.0140373
    103.9486900              0.0688426
     29.2101550              0.2321844
      9.2866630              0.4679413
      3.1639270              0.3623120
SP   3   1.00
      7.8682724             -0.1193324              0.0689991
      1.8812885             -0.1608542              0.3164240
      0.5442493              1.1434564              0.7443083
SP   1   1.00
      0.1687144              1.0000000              1.0000000
D    1   1.00
      1.2520000              1.0000000
D    1   1.00
      0.3130000              1.0000000
F    1   1.00
      0.8000000              1.0000000
****
N     0
S    6   1.00
   4173.5110000              0.0018348
    627.4579000              0.0139950
    142.9021000              0.0685870
     40.2343300              0.2322410
     12.8202100              0.4690700
      4.3904370              0.3604550
SP   3   1.00
     11.6263580             -0.1149610              0.0675800
      2.7162800             -0.1691180              0.3239070
      0.7722180              1.1458520              0.7408950
SP   1   1.00
      0.2120313              1.0000000              1.0000000
D    1   1.00
      1.8260000              1.0000000
D    1   1.00
      0.4565000              1.0000000
F    1   1.00
      1.0000000              1.0000000
****
O     0
S    6   1.00
   5484.6717000              0.0018311
    825.2349500              0.0139501
    188.0469600              0.0684451
     52.9645000              0.2327143
     16.8975700              0.4701930
      5.7996353              0.3585209
SP   3   1.00
     15.5396160             -0.1107775              0.0708743
      3.5999336             -0.1480263              0.3397528
      1.0137618              1.1307670              0.7271586
SP   1   1.00
      0.2700058              1.0000000              1.0000000
D    1   1.00
      2.5840000              1.0000000
D    1   1.00
      0.6460000              1.0000000
F    1   1.00
      1.4000000              1.0000000
****
F     0
S    6   1.00
   7001.7130900              0.0018196169
   1051.3660900              0.0139160796
    239.2856900              0.0684053245
     67.3974453              0.233185760
     21.5199573              0.471267439
      7.40310130             0.356618546
SP   3   1.00
     20.8479528             -0.108506975            0.0716287243
      4.80830834            -0.146451658            0.3459121030
      1.34406986             1.128688580            0.7224699570
SP   1   1.00
      0.358151393            1.0000000              1.0000000
D    1   1.00
      3.5000000              1.0000000
D    1   1.00
      0.8750000              1.0000000
F    1   1.00
      1.8500000              1.0000000
****
Al     0
S    6   1.00
  13983.1000000              0.00194267
   2098.7500000              0.0148599
    477.7050000              0.0728494
    134.3600000              0.2468300
     42.8709000              0.4872580
     14.5189000              0.3234960
SP   6   1.00
    239.6680000             -0.00292619             0.00460285
     57.4419000             -0.0374080              0.0331990
     18.2859000             -0.1144870              0.1362820
      6.5991400              0.1156350              0.3304760
      2.4904900              0.6125950              0.4491460
      0.9445400              0.3937990              0.2657040
SP   3   1.00
      1.2779000             -0.2276060             -0.0175130
      0.3975900              0.00144583             0.2445330
      0.1600950              1.0927900              0.8049340
SP   1   1.00
      0.0556577              1.0000000              1.0000000
D    1   1.00
      0.6500000              1.0000000
D    1   1.00
      0.1625000              1.0000000
F    1   1.00
      0.2500000              1.0000000
****
Si     0
S    6   1.00
  16115.9000000              0.00195948
   2425.5800000              0.01492880
    553.8670000              0.07284780
    156.3400000              0.24613000
     50.0683000              0.48591400
     17.0178000              0.32500200
SP   6   1.00
    292.7180000             -0.00278094             0.00443826
     69.8731000             -0.03571460             0.03266790
     22.3363000             -0.11498500             0.13472100
      8.1503900              0.09356340             0.32867800
      3.1345800              0.60301700             0.44964000
      1.2254300              0.41895900             0.26137200
SP   3   1.00
      1.7273800             -0.24463000            -0.01779510
      0.5729220              0.00431572             0.25353900
      0.2221920              1.09818000             0.80066900
SP   1   1.00
      0.0778369              1.00000000             1.00000000
D    1   1.00
      0.9000000              1.0000000
D    1   1.00
      0.2250000              1.0000000
F    1   1.00
      0.3200000              1.0000000
****
P     0
S    6   1.00
  19413.3000000              0.0018516
   2909.4200000              0.0142062
    661.3640000              0.0699995
    185.7590000              0.2400790
     59.1943000              0.4847620
     20.0310000              0.3352000
SP   6   1.00
    339.4780000             -0.00278217             0.00456462
     81.0101000             -0.0360499              0.03369360
     25.8780000             -0.1166310              0.13975500
      9.4522100              0.0968328              0.33936200
      3.6656600              0.6144180              0.45092100
      1.4674600              0.4037980              0.23858600
SP   3   1.00
      2.1562300             -0.2529230             -0.01776530
      0.7489970              0.0328517              0.27405800
      0.2831450              1.0812500              0.78542100
SP   1   1.00
      0.0998317              1.0000000              1.00000000
D    1   1.00
      1.1000000              1.0000000
D    1   1.00
      0.2750000              1.0000000
F    1   1.00
      0.4500000              1.0000000
****
S     0
S    6   1.00
  21917.1000000              0.0018690
   3301.4900000              0.0142300
    754.1460000              0.0696960
    212.7110000              0.2384870
     67.9896000              0.4833070
     23.0515000              0.3380740
SP   6   1.00
    423.7350000             -0.0023767              0.0040610
    100.7100000             -0.0316930              0.0306810
     32.1599000             -0.1133170              0.1304520
     11.8079000              0.0560900              0.3272050
      4.6311000              0.5922550              0.4528510
      1.8702500              0.4550060              0.2560420
SP   3   1.00
      2.6158400             -0.2503740             -0.0145110
      0.9221670              0.0669570              0.3102630
      0.3412870              1.0545100              0.7544830
SP   1   1.00
      0.1171670              1.0000000              1.0000000
D    1   1.00
      1.3000000              1.0000000
D    1   1.00
      0.3250000              1.0000000
F    1   1.00
      0.5500000              1.0000000
****
Cl     0
S    6   1.00
  25180.1000000              0.0018330
   3780.3500000              0.0140340
    860.4740000              0.0690970
    242.1450000              0.2374520
     77.3349000              0.4830340
     26.2470000              0.3398560
SP   6   1.00
    491.7650000             -0.0022974              0.0039894
    116.9840000             -0.0307140              0.0303180
     37.4153000             -0.1125280              0.1298800
     13.7834000              0.0450160              0.3279510
      5.4521500              0.5893530              0.4535270
      2.2258800              0.4652060              0.2521540
SP   3   1.00
      3.1864900             -0.2518300             -0.0142990
      1.1442700              0.0615890              0.3235720
      0.4203770              1.0601800              0.7435070
SP   1   1.00
      0.1426570              1.0000000              1.0000000
D    1   1.00
      1.5000000              1.0000000
D    1   1.00
      0.3750000              1.0000000
F    1   1.00
      0.7000000              1.0000000
****
}


set {
reference rhf                          
freeze_core true
e_convergence 10                       
d_convergence 10                      
dft_spherical_points 1202
dft_radial_points 99
}

e = energy('b3lyp')

print_out('Grab this energy {0}'.format(e))
--------------------------------------------------------------------------

  Memory set to  13.039 GiB by Python driver.

Scratch directory: /tmp/

*** tstart() called on n046
*** at Mon Nov  8 14:59:34 2021

   => Loading Basis Set <=

    Name: ANONYMOUS9F0B84BC
    Role: ORBITAL
    Keyword: BASIS
    atoms 1-2, 4 entry C          line    48 inputblock 6-31g_2dfp_ 
    atoms 3      entry O          line    90 inputblock 6-31g_2dfp_ 
    atoms 5-12   entry H          line    15 inputblock 6-31g_2dfp_ 


         ---------------------------------------------------------
                                   SCF
               by Justin Turney, Rob Parrish, Andy Simmonett
                          and Daniel G. A. Smith
                              RKS Reference
                        1 Threads,  13351 MiB Core
         ---------------------------------------------------------

  ==> Geometry <==

    Molecular point group: c1
    Full point group: C1

    Geometry (in Bohr), charge = 0, multiplicity = 1:

       Center              X                  Y                   Z               Mass       
    ------------   -----------------  -----------------  -----------------  -----------------
         C           -3.514814426372     0.291893181057     0.000580597865    12.000000000000
         C           -0.955324546672    -0.993449047143    -0.000996035635    12.000000000000
         O            0.935915390128     0.901092644357    -0.000512225135    15.994914619570
         C            3.376815584428    -0.172909351143     0.000519165565    12.000000000000
         H           -5.025148943372    -1.116192146043     0.003948918465     1.007825032230
         H           -3.719429700472     1.476345503657    -1.673221726635     1.007825032230
         H           -3.719210003772     1.479663589457     1.671796836165     1.007825032230
         H           -0.742924000772    -2.208058667143     1.675241018065     1.007825032230
         H           -0.739177771872    -2.199703439143    -1.673407410335     1.007825032230
         H            4.736264310428     1.372066977257     0.001296828265     1.007825032230
         H            3.686405055328    -1.346708270043    -1.681523278135     1.007825032230
         H            3.687578920528    -1.346300188743     1.682763129665     1.007825032230

  Running in c1 symmetry.

  Rotational constants: A =      0.93761  B =      0.13952  C =      0.13039 [cm^-1]
  Rotational constants: A =  28108.95642  B =   4182.63251  C =   3908.86416 [MHz]
  Nuclear repulsion =  133.752569038479663

  Charge       = 0
  Multiplicity = 1
  Electrons    = 34
  Nalpha       = 17
  Nbeta        = 17

  ==> Algorithm <==

  SCF Algorithm Type is DF.
  DIIS enabled.
  MOM disabled.
  Fractional occupation disabled.
  Guess Type is SAD.
  Energy threshold   = 1.00e-10
  Density threshold  = 1.00e-10
  Integral threshold = 0.00e+00

  ==> Primary Basis <==

  Basis Set: ANONYMOUS9F0B84BC
    Blend: 6-31G_2DFP_
    Number of shells: 64
    Number of basis function: 168
    Number of Cartesian functions: 188
    Spherical Harmonics?: true
    Max angular momentum: 3

  ==> DFT Potential <==

   => Composite Functional: B3LYP <= 

    B3LYP Hyb-GGA Exchange-Correlation Functional

    P. J. Stephens, F. J. Devlin, C. F. Chabalowski, and M. J. Frisch, J. Phys. Chem. 98, 11623 (1994)

    Deriv               =              1
    GGA                 =           TRUE
    Meta                =          FALSE

    Exchange Hybrid     =           TRUE
    MP2 Hybrid          =          FALSE

   => Exchange Functionals <=

    0.0800   Slater exchange
    0.7200         Becke 88

   => Exact (HF) Exchange <=

    0.2000               HF 

   => Correlation Functionals <=

    0.1900   Vosko, Wilk & Nusair (VWN5_RPA)
    0.8100   Lee, Yang & Parr

   => Molecular Quadrature <=

    Radial Scheme          =       TREUTLER
    Pruning Scheme         =           NONE
    Nuclear Scheme         =       TREUTLER

    BS radius alpha        =              1
    Pruning alpha          =              1
    Radial Points          =             99
    Spherical Points       =           1202
    Total Points           =        1335131
    Total Blocks           =           8863
    Max Points             =            256
    Max Functions          =            164
    Weights Tolerance      =       1.00E-15

   => Loading Basis Set <=

    Name: (ANONYMOUS9F0B84BC AUX)
    Role: JKFIT
    Keyword: DF_BASIS_SCF
    atoms 1-2, 4 entry C          line   198 file /opt/psi/4/master/share/psi4/basis/def2-universal-jkfit.gbs 
    atoms 3      entry O          line   318 file /opt/psi/4/master/share/psi4/basis/def2-universal-jkfit.gbs 
    atoms 5-12   entry H          line    18 file /opt/psi/4/master/share/psi4/basis/def2-universal-jkfit.gbs 

  ==> Integral Setup <==

  DFHelper Memory: AOs need 0.099 GiB; user supplied 4.855 GiB. Using in-core AOs.

  ==> MemDFJK: Density-Fitted J/K Matrices <==

    J tasked:                   Yes
    K tasked:                   Yes
    wK tasked:                   No
    OpenMP threads:               1
    Memory [MiB]:              4971
    Algorithm:                 Core
    Schwarz Cutoff:           1E-12
    Mask sparsity (%):       2.6857
    Fitting Condition:        1E-10

   => Auxiliary Basis Set <=

  Basis Set: (ANONYMOUS9F0B84BC AUX)
    Blend: DEF2-UNIVERSAL-JKFIT
    Number of shells: 148
    Number of basis function: 446
    Number of Cartesian functions: 520
    Spherical Harmonics?: true
    Max angular momentum: 4

  Cached 100.0% of DFT collocation blocks in 4.924 [GiB].

  Minimum eigenvalue in the overlap matrix is 1.6516415920E-03.
  Reciprocal condition number of the overlap matrix is 2.8711782486E-04.
    Using symmetric orthogonalization.

  ==> Pre-Iterations <==

  SCF Guess: Superposition of Atomic Densities via on-the-fly atomic UHF (no occupation information).

   -------------------------
    Irrep   Nso     Nmo    
   -------------------------
     A        168     168 
   -------------------------
    Total     168     168
   -------------------------

  ==> Iterations <==

                           Total Energy        Delta E     RMS |[F,P]|

   @DF-RKS iter SAD:  -193.69049239676099   -1.93690e+02   0.00000e+00 
   @DF-RKS iter   1:  -194.07144237071168   -3.80950e-01   4.41914e-03 DIIS
   @DF-RKS iter   2:  -193.95004898136185    1.21393e-01   5.31089e-03 DIIS
   @DF-RKS iter   3:  -194.35372794915804   -4.03679e-01   7.83456e-04 DIIS
   @DF-RKS iter   4:  -194.35976483850808   -6.03689e-03   2.53650e-04 DIIS
   @DF-RKS iter   5:  -194.36044601292980   -6.81174e-04   4.01354e-05 DIIS
   @DF-RKS iter   6:  -194.36046292556284   -1.69126e-05   1.68819e-05 DIIS
   @DF-RKS iter   7:  -194.36046656730932   -3.64175e-06   2.37389e-06 DIIS
   @DF-RKS iter   8:  -194.36046664664764   -7.93383e-08   3.74086e-07 DIIS
   @DF-RKS iter   9:  -194.36046664876093   -2.11330e-09   9.15793e-08 DIIS
   @DF-RKS iter  10:  -194.36046664886160   -1.00670e-10   3.48580e-08 DIIS
   @DF-RKS iter  11:  -194.36046664887837   -1.67688e-11   3.61031e-09 DIIS
   @DF-RKS iter  12:  -194.36046664887826    1.13687e-13   5.18373e-10 DIIS
   @DF-RKS iter  13:  -194.36046664887868   -4.26326e-13   1.18175e-10 DIIS
   @DF-RKS iter  14:  -194.36046664887823    4.54747e-13   2.36781e-11 DIIS
  Energy and wave function converged.


  ==> Post-Iterations <==

    Orbital Energies [Eh]
    ---------------------

    Doubly Occupied:                                                      

       1A    -19.139512     2A    -10.221606     3A    -10.217153  
       4A    -10.167509     5A     -1.027060     6A     -0.757715  
       7A     -0.669915     8A     -0.603181     9A     -0.481900  
      10A     -0.478369    11A     -0.448463    12A     -0.417040  
      13A     -0.381241    14A     -0.357975    15A     -0.351316  
      16A     -0.316329    17A     -0.252756  

    Virtual:                                                              

      18A      0.081229    19A      0.106611    20A      0.137993  
      21A      0.139385    22A      0.152469    23A      0.167516  
      24A      0.171172    25A      0.177215    26A      0.188650  
      27A      0.229282    28A      0.246268    29A      0.404609  
      30A      0.421071    31A      0.454323    32A      0.460436  
      33A      0.461758    34A      0.471501    35A      0.472773  
      36A      0.510611    37A      0.527220    38A      0.564486  
      39A      0.581800    40A      0.584596    41A      0.586656  
      42A      0.598823    43A      0.612113    44A      0.616439  
      45A      0.635333    46A      0.643457    47A      0.662490  
      48A      0.713876    49A      0.771100    50A      0.812719  
      51A      0.834974    52A      0.856877    53A      0.886202  
      54A      0.931035    55A      0.971374    56A      0.980193  
      57A      1.017502    58A      1.027152    59A      1.071172  
      60A      1.096716    61A      1.121070    62A      1.155231  
      63A      1.156111    64A      1.177651    65A      1.231329  
      66A      1.234687    67A      1.240623    68A      1.281913  
      69A      1.312528    70A      1.336815    71A      1.359139  
      72A      1.382300    73A      1.387203    74A      1.394852  
      75A      1.421467    76A      1.446460    77A      1.456877  
      78A      1.485909    79A      1.522638    80A      1.564405  
      81A      1.624611    82A      1.718322    83A      1.742833  
      84A      1.763300    85A      1.783422    86A      1.828839  
      87A      1.876390    88A      1.911681    89A      1.964980  
      90A      1.986375    91A      2.068897    92A      2.083294  
      93A      2.111497    94A      2.269827    95A      2.290539  
      96A      2.395294    97A      2.771717    98A      2.832202  
      99A      2.882397   100A      2.899936   101A      2.929474  
     102A      2.937385   103A      2.959880   104A      2.961430  
     105A      3.016424   106A      3.042210   107A      3.113691  
     108A      3.131023   109A      3.143461   110A      3.168490  
     111A      3.192229   112A      3.260425   113A      3.288602  
     114A      3.329383   115A      3.362640   116A      3.379436  
     117A      3.454915   118A      3.461481   119A      3.549811  
     120A      3.558523   121A      3.576413   122A      3.609219  
     123A      3.671621   124A      3.688050   125A      3.754532  
     126A      3.755790   127A      3.794754   128A      3.822678  
     129A      3.973971   130A      3.982154   131A      4.059807  
     132A      4.125243   133A      4.154821   134A      4.167867  
     135A      4.187554   136A      4.212726   137A      4.219598  
     138A      4.258906   139A      4.269202   140A      4.316499  
     141A      4.363661   142A      4.402169   143A      4.448589  
     144A      4.484092   145A      4.520970   146A      4.554205  
     147A      4.555877   148A      4.599811   149A      4.847049  
     150A      4.945960   151A      5.069290   152A      5.084066  
     153A      5.151521   154A      5.202829   155A      5.254752  
     156A      5.296433   157A      5.403196   158A      5.431872  
     159A      5.579416   160A      5.756208   161A      5.829316  
     162A      5.924564   163A      6.199043   164A      7.073463  
     165A      7.185993   166A      7.308969   167A      7.506598  
     168A      7.539242  

    Final Occupation by Irrep:
              A 
    DOCC [    17 ]

  @DF-RKS Final Energy:  -194.36046664887823

   => Energetics <=

    Nuclear Repulsion Energy =            133.7525690384796633
    One-Electron Energy =                -527.4243099667148726
    Two-Electron Energy =                 221.8859785599105408
    DFT Exchange-Correlation Energy =     -22.5747042805535969
    Empirical Dispersion Energy =           0.0000000000000000
    VV10 Nonlocal Energy =                  0.0000000000000000
    Total Energy =                       -194.3604666488782300

Computation Completed


Properties will be evaluated at   0.000000,   0.000000,   0.000000 [a0]

Properties computed using the SCF density matrix

  Nuclear Dipole Moment: [e a0]
     X:    -0.9083      Y:    -1.9269      Z:     0.0034

  Electronic Dipole Moment: [e a0]
     X:     0.9636      Y:     1.5060      Z:    -0.0042

  Dipole Moment: [e a0]
     X:     0.0553      Y:    -0.4209      Z:    -0.0007     Total:     0.4245

  Dipole Moment: [D]
     X:     0.1406      Y:    -1.0699      Z:    -0.0019     Total:     1.0791


*** tstop() called on n046 at Mon Nov  8 15:01:07 2021
Module time:
	user time   =      91.82 seconds =       1.53 minutes
	system time =       1.36 seconds =       0.02 minutes
	total time  =         93 seconds =       1.55 minutes
Total time:
	user time   =      91.82 seconds =       1.53 minutes
	system time =       1.36 seconds =       0.02 minutes
	total time  =         93 seconds =       1.55 minutes
Grab this energy -194.36046664887823
    Psi4 stopped on: Monday, 08 November 2021 03:01PM
    Psi4 wall time for execution: 0:01:33.26

*** Psi4 exiting successfully. Buy a developer a beer!
