
    -----------------------------------------------------------------------
          Psi4: An Open-Source Ab Initio Electronic Structure Package
                               Psi4 1.4a2.dev629 

                         Git: Rev {master} 2938fc2 dirty


    D. G. A. Smith, L. A. Burns, A. C. Simmonett, R. M. Parrish,
    M. C. Schieber, R. Galvelis, P. Kraus, H. Kruse, R. Di Remigio,
    A. Alenaizan, A. M. James, S. Lehtola, J. P. Misiewicz, M. Scheurer,
    R. A. Shaw, J. B. Schriber, Y. Xie, Z. L. Glick, D. A. Sirianni,
    J. S. O'Brien, J. M. Waldrop, A. Kumar, E. G. Hohenstein,
    B. P. Pritchard, B. R. Brooks, H. F. Schaefer III, A. Yu. Sokolov,
    K. Patkowski, A. E. DePrince III, U. Bozkaya, R. A. King,
    F. A. Evangelista, J. M. Turney, T. D. Crawford, C. D. Sherrill,
    J. Chem. Phys. 152(18) 184108 (2020). https://doi.org/10.1063/5.0006002

                            Additional Code Authors
    E. T. Seidl, C. L. Janssen, E. F. Valeev, M. L. Leininger,
    J. F. Gonthier, R. M. Richard, H. R. McAlexander, M. Saitow, X. Wang,
    P. Verma, and M. H. Lechner

             Previous Authors, Complete List of Code Contributors,
                       and Citations for Specific Modules
    https://github.com/psi4/psi4/blob/master/codemeta.json
    https://github.com/psi4/psi4/graphs/contributors
    http://psicode.org/psi4manual/master/introduction.html#citing-psifour

    -----------------------------------------------------------------------


    Psi4 started on: Monday, 08 November 2021 04:00PM

    Process ID: 14142
    Host:       n065
    PSIDATADIR: /opt/psi/4/master/share/psi4
    Memory:     500.0 MiB
    Threads:    1
    
  ==> Input File <==

--------------------------------------------------------------------------
import os
memory 14 GB 
 
molecule {
 C   -3.5184589190    0.2921648474   -0.0001519208
 C   -0.9507739755   -0.9943450456   -0.0015884912
 O    0.9367488853    0.9007072634   -0.0049010338
 C    3.3762145971   -0.1725691301   -0.0009488812
 H   -5.0307158625   -1.1126673662   -0.0005018261
 H   -3.7206365264    1.4820721960   -1.6723938406
 H   -3.7227179665    1.4796248474    1.6741670550
 H   -0.7347311212   -2.2080668678    1.6762099884
 H   -0.7356433186   -2.2085031016   -1.6730390892
 H    4.7357747420    1.3719331192    0.0022844526
 H    3.6848151909   -1.3457371479   -1.6816429113
 H    3.6870702945   -1.3464467542    1.6825064983
units bohr
}

basis {

assign 6-31g_2dfp_

[ 6-31g_2dfp_ ]

spherical

!----------------------------------------------------------------------
! Basis Set Exchange
! Version v0.8.13
! https://www.basissetexchange.org
!----------------------------------------------------------------------
!   Basis set: 6-31G(2df,p)
! Description: 6-31G(2df,p)
!        Role: orbital
!     Version: 0  (Data from the original Basis Set Exchange)
!----------------------------------------------------------------------


****
H     0
S    3   1.00
     18.7311370              0.03349460
      2.8253937              0.23472695
      0.6401217              0.81375733
S    1   1.00
      0.1612778              1.00000000
P    1   1.00
      1.5000000              1.0000000
P    1   1.00
      0.3750000              1.0000000
****
B     0
S    6   1.00
   2068.8823000              0.0018663
    310.6495700              0.0142515
     70.6830330              0.0695516
     19.8610800              0.2325729
      6.2993048              0.4670787
      2.1270270              0.3634314
SP   3   1.00
      4.7279710             -0.1303938              0.0745976
      1.1903377             -0.1307889              0.3078467
      0.3594117              1.1309444              0.7434568
SP   1   1.00
      0.1267512              1.0000000              1.0000000
D    1   1.00
      0.8020000              1.0000000
D    1   1.00
      0.2005000              1.0000000
F    1   1.00
      0.5000000              1.0000000
****
C     0
S    6   1.00
   3047.5249000              0.0018347
    457.3695100              0.0140373
    103.9486900              0.0688426
     29.2101550              0.2321844
      9.2866630              0.4679413
      3.1639270              0.3623120
SP   3   1.00
      7.8682724             -0.1193324              0.0689991
      1.8812885             -0.1608542              0.3164240
      0.5442493              1.1434564              0.7443083
SP   1   1.00
      0.1687144              1.0000000              1.0000000
D    1   1.00
      1.2520000              1.0000000
D    1   1.00
      0.3130000              1.0000000
F    1   1.00
      0.8000000              1.0000000
****
N     0
S    6   1.00
   4173.5110000              0.0018348
    627.4579000              0.0139950
    142.9021000              0.0685870
     40.2343300              0.2322410
     12.8202100              0.4690700
      4.3904370              0.3604550
SP   3   1.00
     11.6263580             -0.1149610              0.0675800
      2.7162800             -0.1691180              0.3239070
      0.7722180              1.1458520              0.7408950
SP   1   1.00
      0.2120313              1.0000000              1.0000000
D    1   1.00
      1.8260000              1.0000000
D    1   1.00
      0.4565000              1.0000000
F    1   1.00
      1.0000000              1.0000000
****
O     0
S    6   1.00
   5484.6717000              0.0018311
    825.2349500              0.0139501
    188.0469600              0.0684451
     52.9645000              0.2327143
     16.8975700              0.4701930
      5.7996353              0.3585209
SP   3   1.00
     15.5396160             -0.1107775              0.0708743
      3.5999336             -0.1480263              0.3397528
      1.0137618              1.1307670              0.7271586
SP   1   1.00
      0.2700058              1.0000000              1.0000000
D    1   1.00
      2.5840000              1.0000000
D    1   1.00
      0.6460000              1.0000000
F    1   1.00
      1.4000000              1.0000000
****
F     0
S    6   1.00
   7001.7130900              0.0018196169
   1051.3660900              0.0139160796
    239.2856900              0.0684053245
     67.3974453              0.233185760
     21.5199573              0.471267439
      7.40310130             0.356618546
SP   3   1.00
     20.8479528             -0.108506975            0.0716287243
      4.80830834            -0.146451658            0.3459121030
      1.34406986             1.128688580            0.7224699570
SP   1   1.00
      0.358151393            1.0000000              1.0000000
D    1   1.00
      3.5000000              1.0000000
D    1   1.00
      0.8750000              1.0000000
F    1   1.00
      1.8500000              1.0000000
****
Al     0
S    6   1.00
  13983.1000000              0.00194267
   2098.7500000              0.0148599
    477.7050000              0.0728494
    134.3600000              0.2468300
     42.8709000              0.4872580
     14.5189000              0.3234960
SP   6   1.00
    239.6680000             -0.00292619             0.00460285
     57.4419000             -0.0374080              0.0331990
     18.2859000             -0.1144870              0.1362820
      6.5991400              0.1156350              0.3304760
      2.4904900              0.6125950              0.4491460
      0.9445400              0.3937990              0.2657040
SP   3   1.00
      1.2779000             -0.2276060             -0.0175130
      0.3975900              0.00144583             0.2445330
      0.1600950              1.0927900              0.8049340
SP   1   1.00
      0.0556577              1.0000000              1.0000000
D    1   1.00
      0.6500000              1.0000000
D    1   1.00
      0.1625000              1.0000000
F    1   1.00
      0.2500000              1.0000000
****
Si     0
S    6   1.00
  16115.9000000              0.00195948
   2425.5800000              0.01492880
    553.8670000              0.07284780
    156.3400000              0.24613000
     50.0683000              0.48591400
     17.0178000              0.32500200
SP   6   1.00
    292.7180000             -0.00278094             0.00443826
     69.8731000             -0.03571460             0.03266790
     22.3363000             -0.11498500             0.13472100
      8.1503900              0.09356340             0.32867800
      3.1345800              0.60301700             0.44964000
      1.2254300              0.41895900             0.26137200
SP   3   1.00
      1.7273800             -0.24463000            -0.01779510
      0.5729220              0.00431572             0.25353900
      0.2221920              1.09818000             0.80066900
SP   1   1.00
      0.0778369              1.00000000             1.00000000
D    1   1.00
      0.9000000              1.0000000
D    1   1.00
      0.2250000              1.0000000
F    1   1.00
      0.3200000              1.0000000
****
P     0
S    6   1.00
  19413.3000000              0.0018516
   2909.4200000              0.0142062
    661.3640000              0.0699995
    185.7590000              0.2400790
     59.1943000              0.4847620
     20.0310000              0.3352000
SP   6   1.00
    339.4780000             -0.00278217             0.00456462
     81.0101000             -0.0360499              0.03369360
     25.8780000             -0.1166310              0.13975500
      9.4522100              0.0968328              0.33936200
      3.6656600              0.6144180              0.45092100
      1.4674600              0.4037980              0.23858600
SP   3   1.00
      2.1562300             -0.2529230             -0.01776530
      0.7489970              0.0328517              0.27405800
      0.2831450              1.0812500              0.78542100
SP   1   1.00
      0.0998317              1.0000000              1.00000000
D    1   1.00
      1.1000000              1.0000000
D    1   1.00
      0.2750000              1.0000000
F    1   1.00
      0.4500000              1.0000000
****
S     0
S    6   1.00
  21917.1000000              0.0018690
   3301.4900000              0.0142300
    754.1460000              0.0696960
    212.7110000              0.2384870
     67.9896000              0.4833070
     23.0515000              0.3380740
SP   6   1.00
    423.7350000             -0.0023767              0.0040610
    100.7100000             -0.0316930              0.0306810
     32.1599000             -0.1133170              0.1304520
     11.8079000              0.0560900              0.3272050
      4.6311000              0.5922550              0.4528510
      1.8702500              0.4550060              0.2560420
SP   3   1.00
      2.6158400             -0.2503740             -0.0145110
      0.9221670              0.0669570              0.3102630
      0.3412870              1.0545100              0.7544830
SP   1   1.00
      0.1171670              1.0000000              1.0000000
D    1   1.00
      1.3000000              1.0000000
D    1   1.00
      0.3250000              1.0000000
F    1   1.00
      0.5500000              1.0000000
****
Cl     0
S    6   1.00
  25180.1000000              0.0018330
   3780.3500000              0.0140340
    860.4740000              0.0690970
    242.1450000              0.2374520
     77.3349000              0.4830340
     26.2470000              0.3398560
SP   6   1.00
    491.7650000             -0.0022974              0.0039894
    116.9840000             -0.0307140              0.0303180
     37.4153000             -0.1125280              0.1298800
     13.7834000              0.0450160              0.3279510
      5.4521500              0.5893530              0.4535270
      2.2258800              0.4652060              0.2521540
SP   3   1.00
      3.1864900             -0.2518300             -0.0142990
      1.1442700              0.0615890              0.3235720
      0.4203770              1.0601800              0.7435070
SP   1   1.00
      0.1426570              1.0000000              1.0000000
D    1   1.00
      1.5000000              1.0000000
D    1   1.00
      0.3750000              1.0000000
F    1   1.00
      0.7000000              1.0000000
****
}


set {
reference rhf                          
freeze_core true
e_convergence 10                       
d_convergence 10                      
dft_spherical_points 1202
dft_radial_points 99
}

e = energy('b3lyp')

print_out('Grab this energy {0}'.format(e))
--------------------------------------------------------------------------

  Memory set to  13.039 GiB by Python driver.

Scratch directory: /tmp/

*** tstart() called on n065
*** at Mon Nov  8 16:00:17 2021

   => Loading Basis Set <=

    Name: ANONYMOUS1EF78621
    Role: ORBITAL
    Keyword: BASIS
    atoms 1-2, 4 entry C          line    48 inputblock 6-31g_2dfp_ 
    atoms 3      entry O          line    90 inputblock 6-31g_2dfp_ 
    atoms 5-12   entry H          line    15 inputblock 6-31g_2dfp_ 


         ---------------------------------------------------------
                                   SCF
               by Justin Turney, Rob Parrish, Andy Simmonett
                          and Daniel G. A. Smith
                              RKS Reference
                        1 Threads,  13351 MiB Core
         ---------------------------------------------------------

  ==> Geometry <==

    Molecular point group: c1
    Full point group: C1

    Geometry (in Bohr), charge = 0, multiplicity = 1:

       Center              X                  Y                   Z               Mass       
    ------------   -----------------  -----------------  -----------------  -----------------
         C           -3.518722689576     0.292305867718     0.001563325229    12.000000000000
         C           -0.951037746076    -0.994204025282     0.000126754829    12.000000000000
         O            0.936485114724     0.900848283718    -0.003185787771    15.994914619570
         C            3.375950826524    -0.172428109782     0.000766364829    12.000000000000
         H           -5.030979633076    -1.112526345882     0.001213419929     1.007825032230
         H           -3.720900296976     1.482213216318    -1.670678594571     1.007825032230
         H           -3.722981737076     1.479765867718     1.675882301029     1.007825032230
         H           -0.734994891776    -2.207925847482     1.677925234429     1.007825032230
         H           -0.735907089176    -2.208362081282    -1.671323843171     1.007825032230
         H            4.735510971424     1.372074139518     0.003999698629     1.007825032230
         H            3.684551420324    -1.345596127582    -1.679927665271     1.007825032230
         H            3.686806523924    -1.346305733882     1.684221744329     1.007825032230

  Running in c1 symmetry.

  Rotational constants: A =      0.93669  B =      0.13944  C =      0.13030 [cm^-1]
  Rotational constants: A =  28081.29637  B =   4180.30007  C =   3906.40829 [MHz]
  Nuclear repulsion =  133.713656011545595

  Charge       = 0
  Multiplicity = 1
  Electrons    = 34
  Nalpha       = 17
  Nbeta        = 17

  ==> Algorithm <==

  SCF Algorithm Type is DF.
  DIIS enabled.
  MOM disabled.
  Fractional occupation disabled.
  Guess Type is SAD.
  Energy threshold   = 1.00e-10
  Density threshold  = 1.00e-10
  Integral threshold = 0.00e+00

  ==> Primary Basis <==

  Basis Set: ANONYMOUS1EF78621
    Blend: 6-31G_2DFP_
    Number of shells: 64
    Number of basis function: 168
    Number of Cartesian functions: 188
    Spherical Harmonics?: true
    Max angular momentum: 3

  ==> DFT Potential <==

   => Composite Functional: B3LYP <= 

    B3LYP Hyb-GGA Exchange-Correlation Functional

    P. J. Stephens, F. J. Devlin, C. F. Chabalowski, and M. J. Frisch, J. Phys. Chem. 98, 11623 (1994)

    Deriv               =              1
    GGA                 =           TRUE
    Meta                =          FALSE

    Exchange Hybrid     =           TRUE
    MP2 Hybrid          =          FALSE

   => Exchange Functionals <=

    0.0800   Slater exchange
    0.7200         Becke 88

   => Exact (HF) Exchange <=

    0.2000               HF 

   => Correlation Functionals <=

    0.1900   Vosko, Wilk & Nusair (VWN5_RPA)
    0.8100   Lee, Yang & Parr

   => Molecular Quadrature <=

    Radial Scheme          =       TREUTLER
    Pruning Scheme         =           NONE
    Nuclear Scheme         =       TREUTLER

    BS radius alpha        =              1
    Pruning alpha          =              1
    Radial Points          =             99
    Spherical Points       =           1202
    Total Points           =        1335184
    Total Blocks           =           8851
    Max Points             =            256
    Max Functions          =            164
    Weights Tolerance      =       1.00E-15

   => Loading Basis Set <=

    Name: (ANONYMOUS1EF78621 AUX)
    Role: JKFIT
    Keyword: DF_BASIS_SCF
    atoms 1-2, 4 entry C          line   198 file /opt/psi/4/master/share/psi4/basis/def2-universal-jkfit.gbs 
    atoms 3      entry O          line   318 file /opt/psi/4/master/share/psi4/basis/def2-universal-jkfit.gbs 
    atoms 5-12   entry H          line    18 file /opt/psi/4/master/share/psi4/basis/def2-universal-jkfit.gbs 

  ==> Integral Setup <==

  DFHelper Memory: AOs need 0.099 GiB; user supplied 4.856 GiB. Using in-core AOs.

  ==> MemDFJK: Density-Fitted J/K Matrices <==

    J tasked:                   Yes
    K tasked:                   Yes
    wK tasked:                   No
    OpenMP threads:               1
    Memory [MiB]:              4972
    Algorithm:                 Core
    Schwarz Cutoff:           1E-12
    Mask sparsity (%):       2.6857
    Fitting Condition:        1E-10

   => Auxiliary Basis Set <=

  Basis Set: (ANONYMOUS1EF78621 AUX)
    Blend: DEF2-UNIVERSAL-JKFIT
    Number of shells: 148
    Number of basis function: 446
    Number of Cartesian functions: 520
    Spherical Harmonics?: true
    Max angular momentum: 4

  Cached 100.0% of DFT collocation blocks in 4.923 [GiB].

  Minimum eigenvalue in the overlap matrix is 1.6609018425E-03.
  Reciprocal condition number of the overlap matrix is 2.8911317789E-04.
    Using symmetric orthogonalization.

  ==> Pre-Iterations <==

  SCF Guess: Superposition of Atomic Densities via on-the-fly atomic UHF (no occupation information).

   -------------------------
    Irrep   Nso     Nmo    
   -------------------------
     A        168     168 
   -------------------------
    Total     168     168
   -------------------------

  ==> Iterations <==

                           Total Energy        Delta E     RMS |[F,P]|

   @DF-RKS iter SAD:  -193.68762194331384   -1.93688e+02   0.00000e+00 
   @DF-RKS iter   1:  -194.07220585756411   -3.84584e-01   4.41312e-03 DIIS
   @DF-RKS iter   2:  -193.95079278838136    1.21413e-01   5.30654e-03 DIIS
   @DF-RKS iter   3:  -194.35374719071240   -4.02954e-01   7.83288e-04 DIIS
   @DF-RKS iter   4:  -194.35978528559644   -6.03809e-03   2.52462e-04 DIIS
   @DF-RKS iter   5:  -194.36046066283205   -6.75377e-04   3.98116e-05 DIIS
   @DF-RKS iter   6:  -194.36047731076420   -1.66479e-05   1.67840e-05 DIIS
   @DF-RKS iter   7:  -194.36048091085019   -3.60009e-06   2.37312e-06 DIIS
   @DF-RKS iter   8:  -194.36048099023051   -7.93803e-08   3.64437e-07 DIIS
   @DF-RKS iter   9:  -194.36048099225732   -2.02681e-09   8.26274e-08 DIIS
   @DF-RKS iter  10:  -194.36048099233585   -7.85292e-11   3.51488e-08 DIIS
   @DF-RKS iter  11:  -194.36048099235296   -1.71099e-11   3.71638e-09 DIIS
   @DF-RKS iter  12:  -194.36048099235276    1.98952e-13   5.16331e-10 DIIS
   @DF-RKS iter  13:  -194.36048099235322   -4.54747e-13   1.17870e-10 DIIS
   @DF-RKS iter  14:  -194.36048099235339   -1.70530e-13   2.37212e-11 DIIS
  Energy and wave function converged.


  ==> Post-Iterations <==

    Orbital Energies [Eh]
    ---------------------

    Doubly Occupied:                                                      

       1A    -19.139766     2A    -10.222125     3A    -10.217172  
       4A    -10.167940     5A     -1.027788     6A     -0.756943  
       7A     -0.669960     8A     -0.603284     9A     -0.481988  
      10A     -0.478163    11A     -0.448658    12A     -0.416753  
      13A     -0.381339    14A     -0.357682    15A     -0.351248  
      16A     -0.316513    17A     -0.252870  

    Virtual:                                                              

      18A      0.081204    19A      0.106565    20A      0.138221  
      21A      0.139368    22A      0.152347    23A      0.167355  
      24A      0.171199    25A      0.177144    26A      0.188356  
      27A      0.228775    28A      0.246029    29A      0.404526  
      30A      0.421133    31A      0.454341    32A      0.460313  
      33A      0.461502    34A      0.471714    35A      0.472889  
      36A      0.510249    37A      0.526990    38A      0.564143  
      39A      0.581250    40A      0.584208    41A      0.585975  
      42A      0.598723    43A      0.612187    44A      0.615790  
      45A      0.635016    46A      0.643409    47A      0.661830  
      48A      0.714120    49A      0.771250    50A      0.812054  
      51A      0.835052    52A      0.856817    53A      0.885970  
      54A      0.930291    55A      0.970859    56A      0.979838  
      57A      1.017271    58A      1.027000    59A      1.070656  
      60A      1.096266    61A      1.120490    62A      1.154362  
      63A      1.155029    64A      1.177497    65A      1.230628  
      66A      1.234719    67A      1.239849    68A      1.281955  
      69A      1.310170    70A      1.336989    71A      1.359273  
      72A      1.382485    73A      1.386687    74A      1.394808  
      75A      1.420634    76A      1.447328    77A      1.456842  
      78A      1.485222    79A      1.522121    80A      1.564446  
      81A      1.623534    82A      1.718449    83A      1.742529  
      84A      1.762449    85A      1.783478    86A      1.828889  
      87A      1.873379    88A      1.911526    89A      1.964249  
      90A      1.986680    91A      2.066383    92A      2.082995  
      93A      2.112002    94A      2.268608    95A      2.289905  
      96A      2.396578    97A      2.770728    98A      2.829992  
      99A      2.881319   100A      2.900263   101A      2.929571  
     102A      2.937476   103A      2.960518   104A      2.961351  
     105A      3.016463   106A      3.042608   107A      3.113572  
     108A      3.130241   109A      3.143196   110A      3.169027  
     111A      3.191973   112A      3.259643   113A      3.288545  
     114A      3.328646   115A      3.362414   116A      3.379764  
     117A      3.455363   118A      3.461499   119A      3.549993  
     120A      3.556574   121A      3.576925   122A      3.609008  
     123A      3.671973   124A      3.687830   125A      3.753608  
     126A      3.754621   127A      3.793997   128A      3.822003  
     129A      3.971654   130A      3.979169   131A      4.057937  
     132A      4.122953   133A      4.154848   134A      4.166948  
     135A      4.187098   136A      4.211922   137A      4.218517  
     138A      4.257384   139A      4.267781   140A      4.315886  
     141A      4.363608   142A      4.400684   143A      4.448206  
     144A      4.480666   145A      4.519292   146A      4.551303  
     147A      4.552188   148A      4.592353   149A      4.846658  
     150A      4.943320   151A      5.068547   152A      5.082266  
     153A      5.150115   154A      5.203257   155A      5.252994  
     156A      5.293065   157A      5.403378   158A      5.431884  
     159A      5.580177   160A      5.756421   161A      5.831109  
     162A      5.925873   163A      6.200572   164A      7.073998  
     165A      7.186429   166A      7.308514   167A      7.506965  
     168A      7.540656  

    Final Occupation by Irrep:
              A 
    DOCC [    17 ]

  @DF-RKS Final Energy:  -194.36048099235339

   => Energetics <=

    Nuclear Repulsion Energy =            133.7136560115455950
    One-Electron Energy =                -527.3454449409357494
    Two-Electron Energy =                 221.8442435817110550
    DFT Exchange-Correlation Energy =     -22.5729356446742955
    Empirical Dispersion Energy =           0.0000000000000000
    VV10 Nonlocal Energy =                  0.0000000000000000
    Total Energy =                       -194.3604809923533878

Computation Completed


Properties will be evaluated at   0.000000,   0.000000,   0.000000 [a0]

Properties computed using the SCF density matrix

  Nuclear Dipole Moment: [e a0]
     X:    -0.9099      Y:    -1.9258      Z:     0.0106

  Electronic Dipole Moment: [e a0]
     X:     0.9670      Y:     1.5066      Z:    -0.0102

  Dipole Moment: [e a0]
     X:     0.0572      Y:    -0.4192      Z:     0.0004     Total:     0.4231

  Dipole Moment: [D]
     X:     0.1453      Y:    -1.0655      Z:     0.0010     Total:     1.0754


*** tstop() called on n065 at Mon Nov  8 16:01:49 2021
Module time:
	user time   =      90.89 seconds =       1.51 minutes
	system time =       1.32 seconds =       0.02 minutes
	total time  =         92 seconds =       1.53 minutes
Total time:
	user time   =      90.89 seconds =       1.51 minutes
	system time =       1.32 seconds =       0.02 minutes
	total time  =         92 seconds =       1.53 minutes
Grab this energy -194.3604809923534
    Psi4 stopped on: Monday, 08 November 2021 04:01PM
    Psi4 wall time for execution: 0:01:32.25

*** Psi4 exiting successfully. Buy a developer a beer!
