
 Primary working directories    : /tmp/1049102.1081.gen5.q
 Secondary working directories  : /tmp/1049102.1081.gen5.q
 Wavefunction directory         : /home/vulcan/mel64643/wfu/
 Main file repository           : /tmp/1049102.1081.gen5.q/

 ARCHNAME  : Linux/x86_64
 FC        : /opt/intel/compilers_and_libraries_2016.1.150/linux/bin/intel64/ifort
 FCVERSION : 16.0.1
 BLASLIB   : -mkl
 id        : ccgc

 Nodes     nprocs
 n072         1
 ga_uses_ma=false, calling ma_init with nominal heap.
 GA-space will be limited to   8.0 MW (determined by -G option)

 Using customized tuning parameters: mindgm=10; mindgv=16; mindgc=4; mindgr=1; noblas=0; mincuda=1000; minvec=7
 default implementation of scratch files=df  

 ***,Optimization of h2o_3
 memory,1000,m
 gthresh,energy=1.0d-12,orbital=1.0d-10,oneint=1.0d-16,twoint=1.0d-16,optgrad=1.0d-6,compress=1.0d-13
 geomtyp=xyz
 
 
 
 bohr
 geometry = {
  C    0.9121877160    1.4065743818   -2.2724777379
  C    0.7401217478    2.7109691397    0.0189524548
  C    0.9980236531    1.4074478077    2.3029755420
  C    1.4263932635   -1.2005177477    2.2955707091
  C    1.5991874035   -2.5044222841    0.0041821534
  C    1.3413444867   -1.2006773794   -2.2796368759
  H    0.7031953724    2.4159126208   -4.0422745507
  H    0.3926142821    4.7291081491    0.0247459314
  H    0.8594193249    2.4179334082    4.0792483935
  H    1.6236524661   -2.2108971763    4.0665350180
  H    1.9291824972   -4.5259779004   -0.0015915730
  H    1.4728555005   -2.2117656545   -4.0563922466
  N   -5.4340418060   -0.3619951613   -0.0724620465
  H   -5.5694551348   -1.5739277007   -1.5537374146
  H   -6.0574388582   -1.3254628980    1.4651486192
  H   -3.5563100478   -0.0640912029    0.2012913011
 }
 
 basis=aug-cc-pvdz, H=cc-pvdz
 {rhf;maxit,200}
 {ccsd(t)}

 Variables initialized (661), CPU time= 0.00 sec
 Commands  initialized (458), CPU time= 0.01 sec, 486 directives.
 Default parameters read. Elapsed time= 0.05 sec

 Checking input...
 Passed
1


                                         ***  PROGRAM SYSTEM MOLPRO  ***
                         Copyright, University College Cardiff Consultants Limited, 2008

                                    Version 2010.1 linked May 16 2016 07:17:05


 **********************************************************************************************************************************
 LABEL *   Optimization of h2o_3                                                         
 Linux-4.4.3/n072(x86_64) 64 bit mpp version                                             DATE: 20-Mar-24          TIME: 11:00:22  
 **********************************************************************************************************************************

 SHA1:             9e8077add272b0f3cad6f7df79ec5211205f459d
 **********************************************************************************************************************************

 THRESHOLDS:

 ZERO    =  1.00D-12  ONEINT  =  1.00D-16  TWOINT  =  1.00D-16  PREFAC  =  1.00D-14  LOCALI  =  1.00D-09  EORDER  =  1.00D-04
 ENERGY  =  1.00D-12  ETEST   =  0.00D+00  EDENS   =  0.00D+00  THRDEDEF=  1.00D-06  GRADIENT=  1.00D-02  STEP    =  1.00D-03
 ORBITAL =  1.00D-10  CIVEC   =  1.00D-05  COEFF   =  1.00D-04  PRINTCI =  5.00D-02  PUNCHCI =  9.90D+01  OPTGRAD =  1.00D-06
 OPTENERG=  1.00D-06  OPTSTEP =  3.00D-04  THRGRAD =  1.00D-10  COMPRESS=  1.00D-13  VARMIN  =  1.00D-07  VARMAX  =  1.00D-03
 THRDOUB =  0.00D+00  THRDIV  =  1.00D-05  THRRED  =  1.00D-07  THRPSP  =  1.00D+00  THRDC   =  1.00D-10  THRCS   =  1.00D-10
 THRNRM  =  1.00D-08  THREQ   =  0.00D+00  THRDE   =  1.00D+00  THRREF  =  1.00D-05  SPARFAC =  1.00D+00  THRDLP  =  1.00D-07
 THRDIA  =  1.00D-10  THRDLS  =  1.00D-07  THRGPS  =  0.00D+00  THRKEX  =  0.00D+00  THRDIS  =  2.00D-01  THRVAR  =  1.00D-10
 THRLOC  =  1.00D-06  THRGAP  =  1.00D-06  THRLOCT = -1.00D+00  THRGAPT = -1.00D+00  THRORB  =  1.00D-06  THRMLTP =  0.00D+00
 THRCPQCI=  1.00D-10  KEXTA   =  0.00D+00  THRCOARS=  0.00D+00  SYMTOL  =  1.00D-06  GRADTOL =  1.00D-06  THROVL  =  1.00D-08
 THRORTH =  1.00D-08  GRID    =  1.00D-06  GRIDMAX =  1.00D-03  DTMAX   =  0.00D+00

 SETTING GEOMTYP        =    XYZ
 ZUNIT=BOHR
 

 Variable memory set to 1000000000 words,  buffer space   230000 words

 SETTING BASIS          =    AUG-CC-PVDZ,H=CC-PVDZ


 Recomputing integrals since basis changed


 Using spherical harmonics

 Library entry C      S aug-cc-pVDZ          selected for orbital group  1
 Library entry C      P aug-cc-pVDZ          selected for orbital group  1
 Library entry C      D aug-cc-pVDZ          selected for orbital group  1
 Library entry H      S cc-pVDZ              selected for orbital group  2
 Library entry H      P cc-pVDZ              selected for orbital group  2
 Library entry N      S aug-cc-pVDZ          selected for orbital group  3
 Library entry N      P aug-cc-pVDZ          selected for orbital group  3
 Library entry N      D aug-cc-pVDZ          selected for orbital group  3

1PROGRAM * SEWARD (Integral evaluation for generally contracted gaussian basis sets)     Author: Roland Lindh, 1990

 Geometry written to block  1 of record 700


 Point group  C1  



 ATOMIC COORDINATES

 NR  ATOM    CHARGE       X              Y              Z

   1  C       6.00    0.912187716    1.406574382   -2.272477738
   2  C       6.00    0.740121748    2.710969140    0.018952455
   3  C       6.00    0.998023653    1.407447808    2.302975542
   4  C       6.00    1.426393264   -1.200517748    2.295570709
   5  C       6.00    1.599187403   -2.504422284    0.004182153
   6  C       6.00    1.341344487   -1.200677379   -2.279636876
   7  H       1.00    0.703195372    2.415912621   -4.042274551
   8  H       1.00    0.392614282    4.729108149    0.024745931
   9  H       1.00    0.859419325    2.417933408    4.079248394
  10  H       1.00    1.623652466   -2.210897176    4.066535018
  11  H       1.00    1.929182497   -4.525977900   -0.001591573
  12  H       1.00    1.472855500   -2.211765655   -4.056392247
  13  N       7.00   -5.434041806   -0.361995161   -0.072462047
  14  H       1.00   -5.569455135   -1.573927701   -1.553737415
  15  H       1.00   -6.057438858   -1.325462898    1.465148619
  16  H       1.00   -3.556310048   -0.064091203    0.201291301

 Bond lengths in Bohr (Angstrom)

 1-2  2.642291564  1-6  2.642345271  1-7  2.048077694  2-3  2.642431214  2-8  2.047847666
     ( 1.398240475)     ( 1.398268896)     ( 1.083796038)     ( 1.398314375)     ( 1.083674313)

  3- 4  2.642922567   3- 9  2.048276727   4- 5  2.642061008   4-10  2.048436566   5- 6  2.642359382
       ( 1.398574387)       ( 1.083901362)       ( 1.398118470)       ( 1.083985945)       ( 1.398276363)

  5-11  2.048320582   6-12  2.048524907  13-14  1.918669843  13-15  1.918629856  13-16  1.920823839
       ( 1.083924569)       ( 1.084032693)       ( 1.015316352)       ( 1.015295192)       ( 1.016456198)

 Bond angles

  1- 2- 3  119.98067235   1- 2- 8  120.00017354   1- 6- 5  120.02353231   1- 6-12  119.98613468

  2-1-6  120.00199148   2-1-7  119.96358300   2-3-4  120.01167870   2-3-9  119.97429910

  3- 2- 8  120.01747710   3- 4- 5  120.00136338   3- 4-10  119.99378352   4- 3- 9  120.01369048

  4- 5- 6  119.98073384   4- 5-11  120.00333306   5- 4-10  120.00484838   5- 6-12  119.99031847

  6- 1- 7  120.03368561   6- 5-11  120.01581910  14-13-15  106.17607474  14-13-16  106.08043223

 15-13-16  106.33745626

 NUCLEAR CHARGE:                   52
 NUMBER OF PRIMITIVE AOS:         322
 NUMBER OF SYMMETRY AOS:          308
 NUMBER OF CONTRACTIONS:          206   ( 206A   )
 NUMBER OF CORE ORBITALS:           7   (   7A   )
 NUMBER OF VALENCE ORBITALS:       37   (  37A   )


 NUCLEAR REPULSION ENERGY  273.80756850


 Eigenvalues of metric

         1 0.861E-05 0.184E-04 0.228E-04 0.532E-04 0.642E-04 0.644E-04 0.107E-03 0.107E-03


 Contracted 2-electron integrals neglected if value below      1.0D-16
 AO integral compression algorithm  1   Integral accuracy      1.0D-16

     1892.942 MB (compressed) written to integral file ( 94.6%)

     Node minimum: 1892.942 MB, node maximum: 1892.942 MB


 NUMBER OF SORTED TWO-ELECTRON INTEGRALS:  227303181.     BUFFER LENGTH:  32768
 NUMBER OF SEGMENTS:  15  SEGMENT LENGTH:   15999503      RECORD LENGTH: 524288

 Memory used in sort:      16.56 MW

 SORT1 READ   250231480. AND WROTE   226420050. INTEGRALS IN    654 RECORDS. CPU TIME:     2.51 SEC, REAL TIME:     3.90 SEC
 SORT2 READ   226420050. AND WROTE   227303181. INTEGRALS IN   7221 RECORDS. CPU TIME:     1.53 SEC, REAL TIME:     2.54 SEC

 FILE SIZES:   FILE 1:  1743.9 MBYTE,  FILE 4:  2743.1 MBYTE,   TOTAL:   4487.0 MBYTE

 OPERATOR DM      FOR CENTER  0  COORDINATES:    0.000000    0.000000    0.000000


 **********************************************************************************************************************************
 DATASETS  * FILE   NREC   LENGTH (MB)   RECORD NAMES
              1      19     1744.38       500      610      700      900      950      970     1000      129      960     1100   
                                          VAR    BASINP    GEOM    SYMINP    ZMAT    AOBASIS   BASIS     P2S    ABASIS      S 
                                         1400     1410     1200     1210     1080     1600     1650     1300     1700   
                                           T        V       H0       H01     AOSYM     SMH    MOLCAS    ERIS     OPER   

 PROGRAMS   *        TOTAL       INT
 CPU TIMES  *        15.14     15.10
 REAL TIME  *        18.80 SEC
 DISK USED  *         6.38 GB      
 GA USED    *         0.01 MB       (max)       0.00 MB       (current)
 **********************************************************************************************************************************

1PROGRAM * RHF-SCF (CLOSED SHELL)       Authors: W. Meyer, H.-J. Werner


 NUMBER OF ELECTRONS:      26+   26-    SPACE SYMMETRY=1    SPIN SYMMETRY: Singlet 
 CONVERGENCE THRESHOLDS:    1.00E-10 (Density)    1.00E-13 (Energy)
 MAX. NUMBER OF ITERATIONS:      200
 INTERPOLATION TYPE:            DIIS
 INTERPOLATION STEPS:              2 (START)      1 (STEP)
 LEVEL SHIFTS:                  0.00 (CLOSED)  0.00 (OPEN) 



 Orbital guess generated from atomic densities. Full valence occupancy:   44

 Molecular orbital dump at record        2100.2

 ITERATION    DDIFF          GRAD             ENERGY        2-EL.EN.            DIPOLE MOMENTS         DIIS
    1      0.000D+00      0.000D+00      -286.85321061    741.071644    0.52573   -0.76443    0.13722    0
    2      0.000D+00      0.322D-02      -286.92076648    735.286261    0.43979   -0.38286    0.06284    1
    3      0.826D-02      0.133D-02      -286.93008997    737.916056    0.45651   -0.52077    0.09315    2
    4      0.218D-02      0.381D-03      -286.93130754    737.396526    0.45507   -0.49418    0.08529    3
    5      0.783D-03      0.526D-04      -286.93133133    737.385265    0.46090   -0.50421    0.08931    4
    6      0.135D-03      0.176D-04      -286.93133376    737.400170    0.45976   -0.49874    0.08719    5
    7      0.510D-04      0.553D-05      -286.93133403    737.397074    0.46041   -0.50095    0.08796    6
    8      0.149D-04      0.129D-05      -286.93133405    737.396073    0.46056   -0.50059    0.08782    7
    9      0.416D-05      0.541D-06      -286.93133405    737.396531    0.46059   -0.50068    0.08785    7
   10      0.148D-05      0.143D-06      -286.93133406    737.396479    0.46060   -0.50069    0.08785    7
   11      0.513D-06      0.407D-07      -286.93133406    737.396465    0.46061   -0.50068    0.08785    7
   12      0.140D-06      0.172D-07      -286.93133406    737.396478    0.46061   -0.50069    0.08785    8
   13      0.598D-07      0.744D-08      -286.93133406    737.396473    0.46061   -0.50069    0.08785    8
   14      0.325D-07      0.356D-08      -286.93133406    737.396475    0.46061   -0.50069    0.08785    8
   15      0.196D-07      0.137D-08      -286.93133406    737.396475    0.46061   -0.50069    0.08785    8
   16      0.710D-08      0.454D-09      -286.93133406    737.396475    0.46061   -0.50069    0.08785    9
   17      0.216D-08      0.125D-09      -286.93133406    737.396475    0.46061   -0.50069    0.08785    9
   18      0.397D-09      0.384D-10      -286.93133406    737.396475    0.46061   -0.50069    0.08785    8
   19      0.215D-09      0.160D-10      -286.93133406    737.396475    0.46061   -0.50069    0.08785    9
   20      0.134D-09      0.851D-11      -286.93133406    737.396475    0.46061   -0.50069    0.08785    9
   21      0.981D-10      0.414D-11      -286.93133406    737.396475    0.46061   -0.50069    0.08785    9
   22      0.302D-09      0.136D-11      -286.93133406    737.396475    0.46061   -0.50069    0.08785    9
   23      0.207D-09      0.777D-12      -286.93133406    737.396475    0.46061   -0.50069    0.08785    9
   24      0.114D-09      0.569D-12      -286.93133406    737.396475    0.46061   -0.50069    0.08785    9
   25      0.604D-10      0.469D-12      -286.93133406    737.396475    0.46061   -0.50069    0.08785    9
   26      0.442D-10      0.559D-12      -286.93133406    737.396475    0.46061   -0.50069    0.08785    9
   27      0.376D-10      0.463D-12      -286.93133406    737.396475    0.46061   -0.50069    0.08785    9
   28      0.180D-10      0.487D-12      -286.93133406    737.396475    0.46061   -0.50069    0.08785    9
   29      0.153D-10      0.561D-12      -286.93133406    737.396475    0.46061   -0.50069    0.08785    9
   30      0.958D-11      0.502D-12      -286.93133406    737.396475    0.46061   -0.50069    0.08785    9
   31      0.995D-11      0.387D-12      -286.93133406    737.396475    0.46061   -0.50069    0.08785    9
   32      0.121D-10      0.457D-12      -286.93133406    737.396475    0.46061   -0.50069    0.08785    9
   33      0.137D-10      0.569D-12      -286.93133406    737.396475    0.46061   -0.50069    0.08785    0

 Final occupancy:  26

 !RHF STATE 1.1 Energy               -286.931334055067
 Nuclear energy                       273.80756850
 One-electron energy                 -929.43713991
 Two-electron energy                  368.69823735
 Virial quotient                       -1.00146409
 !RHF STATE 1.1 Dipole moment           0.46060720    -0.50068571     0.08784695
 Dipole moment /Debye                   1.17067006    -1.27253278     0.22327004

 Orbital energies:

         1.1          2.1          3.1          4.1          5.1          6.1          7.1          8.1          9.1         10.1
    -15.534893   -11.250675   -11.250071   -11.249726   -11.248849   -11.248711   -11.247885    -1.157565    -1.125465    -1.022108

        11.1         12.1         13.1         14.1         15.1         16.1         17.1         18.1         19.1         20.1
     -1.022004    -0.830687    -0.830589    -0.714555    -0.650503    -0.623970    -0.611643    -0.609732    -0.593628    -0.593506

        21.1         22.1         23.1         24.1         25.1         26.1         27.1         28.1
     -0.504934    -0.500149    -0.500074    -0.413335    -0.343032    -0.342044     0.063870     0.066401


 **********************************************************************************************************************************
 DATASETS  * FILE   NREC   LENGTH (MB)   RECORD NAMES
              1      19     1744.38       500      610      700      900      950      970     1000      129      960     1100   
                                          VAR    BASINP    GEOM    SYMINP    ZMAT    AOBASIS   BASIS     P2S    ABASIS      S 
                                         1400     1410     1200     1210     1080     1600     1650     1300     1700   
                                           T        V       H0       H01     AOSYM     SMH    MOLCAS    ERIS     OPER   

              2       3        1.40       700     1000     2100   
                                         GEOM     BASIS     RHF  

 PROGRAMS   *        TOTAL       RHF       INT
 CPU TIMES  *        74.38     59.24     15.10
 REAL TIME  *        84.85 SEC
 DISK USED  *         6.38 GB      
 GA USED    *         0.01 MB       (max)       0.00 MB       (current)
 **********************************************************************************************************************************


1PROGRAM * CCSD (Closed-shell coupled cluster)     Authors: C. Hampel, H.-J. Werner, 1991, M. Deegan, P.J. Knowles, 1992


 Convergence thresholds:  THRVAR = 1.00D-08  THRDEN = 1.00D-12

 CCSD(T)     terms to be evaluated (factor= 1.000)


 Number of core orbitals:           7 (   7 )
 Number of closed-shell orbitals:  19 (  19 )
 Number of external orbitals:     180 ( 180 )

 Molecular orbitals read from record     2100.2  Type=RHF/CANONICAL (state 1.1)

 Number of N-1 electron functions:              19
 Number of N-2 electron functions:             190
 Number of singly external CSFs:              3420
 Number of doubly external CSFs:           5849910
 Total number of CSFs:                     5853331

 Length of J-op  integral file:               0.00 MB
 Length of K-op  integral file:               2.96 MB
 Length of 3-ext integral record:             0.00 MB

 Memory could be reduced to 140.12 Mwords without degradation in triples

 Integral transformation finished. Total CPU:  14.41 sec, npass=  1  Memory used: 101.90 MW

 Reference energy:                   -286.93133406

 MP2 singlet pair energy:              -0.62064527
 MP2 triplet pair energy:              -0.38986485
 MP2 correlation energy:               -1.01051011
 MP2 total energy:                   -287.94184417

 SCS-MP2 correlation energy:           -0.98735689   (PS=  1.200000  PT=  0.333333)
 SCS-MP2 total energy:               -287.91869095

 ITER.      SQ.NORM     CORR.ENERGY   TOTAL ENERGY   ENERGY CHANGE        DEN1      VAR(S)    VAR(P)  DIIS     TIME
   1      1.38488622    -1.05479241  -287.98612646    -0.04428229    -0.01720242  0.36D-02  0.80D-02  1  1    50.68
   2      1.41439842    -1.06065433  -287.99198839    -0.00586193    -0.02705324  0.63D-04  0.10D-02  2  2    87.43
   3      1.42352937    -1.06074994  -287.99208400    -0.00009561    -0.00464354  0.27D-04  0.84D-04  3  3   124.19
   4      1.42746638    -1.06091861  -287.99225266    -0.00016867    -0.00121411  0.22D-05  0.11D-04  4  4   160.99
   5      1.42867984    -1.06094957  -287.99228362    -0.00003096    -0.00027319  0.27D-06  0.13D-05  5  5   197.81
   6      1.42898237    -1.06093933  -287.99227339     0.00001024    -0.00004348  0.23D-07  0.79D-07  6  6   234.66
   7      1.42902311    -1.06094096  -287.99227501    -0.00000163    -0.00000103  0.35D-08  0.82D-08  6  2   271.50
   8      1.42903230    -1.06094082  -287.99227487     0.00000014    -0.00000117  0.75D-09  0.76D-09  6  1   308.34
   9      1.42903213    -1.06094095  -287.99227501    -0.00000014     0.00000123  0.21D-09  0.92D-10  6  4   345.18
  10      1.42903332    -1.06094096  -287.99227502    -0.00000001    -0.00000018  0.57D-10  0.15D-10  6  3   382.03
  11      1.42903327    -1.06094098  -287.99227504    -0.00000002     0.00000013  0.14D-10  0.36D-11  6  5   418.85
  12      1.42903322    -1.06094098  -287.99227504    -0.00000000     0.00000003  0.15D-11  0.10D-11  6  6   455.66
  13      1.42903305    -1.06094099  -287.99227504    -0.00000000     0.00000006  0.70D-13  0.20D-12  6  2   492.49
  14      1.42903295    -1.06094099  -287.99227504    -0.00000000     0.00000002  0.81D-14  0.40D-13  6  1   529.34
  15      1.42903289    -1.06094099  -287.99227504    -0.00000000     0.00000001  0.89D-15  0.53D-14  6  3   566.16
  16      1.42903287    -1.06094099  -287.99227504    -0.00000000     0.00000000  0.12D-15  0.37D-15  6  4   602.99
  17      1.42903286    -1.06094099  -287.99227504    -0.00000000     0.00000000  0.31D-16  0.44D-16  6  5   639.82
  18      1.42903286    -1.06094099  -287.99227504    -0.00000000     0.00000000  0.81D-17  0.70D-17  6  6   676.64
  19      1.42903286    -1.06094099  -287.99227504    -0.00000000     0.00000000  0.23D-17  0.76D-18  6  2   713.49
  20      1.42903286    -1.06094099  -287.99227504    -0.00000000     0.00000000  0.75D-18  0.18D-18  6  1   750.34
  21      1.42903286    -1.06094099  -287.99227504    -0.00000000     0.00000000  0.28D-18  0.74D-19  6  3   787.18
  22      1.42903286    -1.06094099  -287.99227504    -0.00000000     0.00000000  0.12D-18  0.36D-19  6  4   823.99
  23      1.42903286    -1.06094099  -287.99227504    -0.00000000     0.00000000  0.53D-19  0.20D-19  6  6   860.82

 Norm of t1 vector:      0.08385856      S-energy:    -0.00000000      T1 diagnostic:  0.00961924
                                                                       D1 diagnostic:  0.02620690

 Doubles amplitudes (print threshold =  0.500E-01):

         I         J         SYM. A    SYM. B    A         B      T(IJ, AB)

        18        18         1         1         6         6     -0.05162400
        19        19         1         1         7         7     -0.05497037


 Total CPU time for triples:    763.33 sec


 RESULTS
 =======

  Reference energy                   -286.931334055066
  CCSD singlet pair energy             -0.711163574445
  CCSD triplet pair energy             -0.349777413893
  CCSD correlation energy              -1.060940988338

  Triples (T) contribution             -0.045608696900
  Total correlation energy             -1.106549685238

  CCSD total energy                  -287.992275043404
  CCSD[T] energy                     -288.038754113362
  CCSD-T energy                      -288.037495080697
 !CCSD(T) total energy               -288.037883740304

 Timing summary (sec):

 STEP                 CPU(USER)    SYS     CPU(TOT)    WALL
 Transformation         14.84      0.93     15.77     15.77
 CCSD iterations       846.01     13.11    859.12    859.24
 Triples               763.33     12.78    776.11    776.16

 Program statistics:

 Available memory in ccsd:               999998456
 Min. memory needed in ccsd:              14392275
 Max. memory used in ccsd:                19775697
 Max. memory used in cckext:              16737545 (23 integral passes)



 **********************************************************************************************************************************
 DATASETS  * FILE   NREC   LENGTH (MB)   RECORD NAMES
              1      20     2287.98       500      610      700      900      950      970     1000      129      960     1100   
                                          VAR    BASINP    GEOM    SYMINP    ZMAT    AOBASIS   BASIS     P2S    ABASIS      S 
                                         1400     1410     1200     1210     1080     1600     1650     1300     1700     1380   
                                           T        V       H0       H01     AOSYM     SMH    MOLCAS    ERIS     OPER     JKOP   

              2       3        1.40       700     1000     2100   
                                         GEOM     BASIS     RHF  

 PROGRAMS   *        TOTAL   CCSD(T)       RHF       INT
 CPU TIMES  *      1698.58   1624.20     59.24     15.10
 REAL TIME  *      1736.14 SEC
 DISK USED  *         6.38 GB      
 GA USED    *         0.01 MB       (max)       0.00 MB       (current)
 **********************************************************************************************************************************

        CCSD(T)         RHF-SCF 
   -288.03788374   -286.93133406
 **********************************************************************************************************************************
 Variable memory released
