
 Primary working directories    : /tmp/1011203.657.gen4.q
 Secondary working directories  : /tmp/1011203.657.gen4.q
 Wavefunction directory         : /home/vulcan/mel64643/wfu/
 Main file repository           : /tmp/1011203.657.gen4.q/

 ARCHNAME  : Linux/x86_64
 FC        : /opt/intel/compilers_and_libraries_2016.1.150/linux/bin/intel64/ifort
 FCVERSION : 16.0.1
 BLASLIB   : -mkl
 id        : ccgc

 Nodes     nprocs
 n022         1
 ga_uses_ma=false, calling ma_init with nominal heap.
 GA-space will be limited to   8.0 MW (determined by -G option)

 Using customized tuning parameters: mindgm=10; mindgv=16; mindgc=4; mindgr=1; noblas=0; mincuda=1000; minvec=7
 default implementation of scratch files=df  

 ***,Optimization of c2h4_2
 memory,1000,m
 gthresh,energy=1.0d-12,orbital=1.0d-10,oneint=1.0d-16,twoint=1.0d-16,optgrad=1.0d-6,compress=1.0d-13
 geomtyp=xyz
 
 
 
 bohr
 geometry = {
  C   -1.2646557853   -0.0022791308   -3.4914891217
  C    1.2646557853    0.0022791308   -3.4914891217
  H   -2.3303610953    0.0011531093   -1.7413583608
  H    2.3303610953   -0.0011531093   -1.7413583608
  H   -2.3370847656    0.0011260216   -5.2367251405
  H    2.3370847656   -0.0011260216   -5.2367251405
  C    0.0022791311    1.2646556943    3.4914694213
  C   -0.0022791311   -1.2646556943    3.4914694213
  H   -0.0011531034    2.3303627274    1.7413401033
  H    0.0011531034   -2.3303627274    1.7413401033
  H   -0.0011260275    2.3370834331    5.2367061364
  H    0.0011260275   -2.3370834331    5.2367061364
 }
 
 basis=aug-cc-pvdz, H=cc-pvdz
 {rhf;maxit,200}
 {mp2}

 Variables initialized (661), CPU time= 0.01 sec
 Commands  initialized (458), CPU time= 0.00 sec, 486 directives.
 Default parameters read. Elapsed time= 0.05 sec

 Checking input...
 Passed
1


                                         ***  PROGRAM SYSTEM MOLPRO  ***
                         Copyright, University College Cardiff Consultants Limited, 2008

                                    Version 2010.1 linked May 16 2016 07:17:05


 **********************************************************************************************************************************
 LABEL *   Optimization of c2h4_2                                                        
 Linux-4.4.3/n022(x86_64) 64 bit mpp version                                             DATE: 25-Feb-24          TIME: 14:45:26  
 **********************************************************************************************************************************

 SHA1:             9e8077add272b0f3cad6f7df79ec5211205f459d
 **********************************************************************************************************************************

 THRESHOLDS:

 ZERO    =  1.00D-12  ONEINT  =  1.00D-16  TWOINT  =  1.00D-16  PREFAC  =  1.00D-14  LOCALI  =  1.00D-09  EORDER  =  1.00D-04
 ENERGY  =  1.00D-12  ETEST   =  0.00D+00  EDENS   =  0.00D+00  THRDEDEF=  1.00D-06  GRADIENT=  1.00D-02  STEP    =  1.00D-03
 ORBITAL =  1.00D-10  CIVEC   =  1.00D-05  COEFF   =  1.00D-04  PRINTCI =  5.00D-02  PUNCHCI =  9.90D+01  OPTGRAD =  1.00D-06
 OPTENERG=  1.00D-06  OPTSTEP =  3.00D-04  THRGRAD =  1.00D-10  COMPRESS=  1.00D-13  VARMIN  =  1.00D-07  VARMAX  =  1.00D-03
 THRDOUB =  0.00D+00  THRDIV  =  1.00D-05  THRRED  =  1.00D-07  THRPSP  =  1.00D+00  THRDC   =  1.00D-10  THRCS   =  1.00D-10
 THRNRM  =  1.00D-08  THREQ   =  0.00D+00  THRDE   =  1.00D+00  THRREF  =  1.00D-05  SPARFAC =  1.00D+00  THRDLP  =  1.00D-07
 THRDIA  =  1.00D-10  THRDLS  =  1.00D-07  THRGPS  =  0.00D+00  THRKEX  =  0.00D+00  THRDIS  =  2.00D-01  THRVAR  =  1.00D-10
 THRLOC  =  1.00D-06  THRGAP  =  1.00D-06  THRLOCT = -1.00D+00  THRGAPT = -1.00D+00  THRORB  =  1.00D-06  THRMLTP =  0.00D+00
 THRCPQCI=  1.00D-10  KEXTA   =  0.00D+00  THRCOARS=  0.00D+00  SYMTOL  =  1.00D-06  GRADTOL =  1.00D-06  THROVL  =  1.00D-08
 THRORTH =  1.00D-08  GRID    =  1.00D-06  GRIDMAX =  1.00D-03  DTMAX   =  0.00D+00

 SETTING GEOMTYP        =    XYZ
 ZUNIT=BOHR
 

 Variable memory set to 1000000000 words,  buffer space   230000 words

 SETTING BASIS          =    AUG-CC-PVDZ,H=CC-PVDZ


 Recomputing integrals since basis changed


 Using spherical harmonics

 Library entry C      S aug-cc-pVDZ          selected for orbital group  1
 Library entry C      P aug-cc-pVDZ          selected for orbital group  1
 Library entry C      D aug-cc-pVDZ          selected for orbital group  1
 Library entry H      S cc-pVDZ              selected for orbital group  2
 Library entry H      P cc-pVDZ              selected for orbital group  2

1PROGRAM * SEWARD (Integral evaluation for generally contracted gaussian basis sets)     Author: Roland Lindh, 1990

 Geometry written to block  1 of record 700


 Point group  C2  



 ATOMIC COORDINATES

 NR  ATOM    CHARGE       X              Y              Z

   1  C       6.00   -1.264655785   -0.002279131   -3.491489122
   2  C       6.00    1.264655785    0.002279131   -3.491489122
   3  H       1.00   -2.330361095    0.001153109   -1.741358361
   4  H       1.00    2.330361095   -0.001153109   -1.741358361
   5  H       1.00   -2.337084766    0.001126022   -5.236725140
   6  H       1.00    2.337084766   -0.001126022   -5.236725140
   7  C       6.00    0.002279131    1.264655694    3.491469421
   8  C       6.00   -0.002279131   -1.264655694    3.491469421
   9  H       1.00   -0.001153103    2.330362727    1.741340103
  10  H       1.00    0.001153103   -2.330362727    1.741340103
  11  H       1.00   -0.001126028    2.337083433    5.236706136
  12  H       1.00    0.001126028   -2.337083433    5.236706136

 Bond lengths in Bohr (Angstrom)

 1-2  2.529315678  1-3  2.049072295  1-5  2.048405300  2-4  2.049072295  2-6  2.048405300
     ( 1.338456211)     ( 1.084322358)     ( 1.083969400)     ( 1.084322358)     ( 1.083969400)

  7- 8  2.529315496   7- 9  2.049071958   7-11  2.048405244   8-10  2.049071958   8-12  2.048405244
       ( 1.338456115)       ( 1.084322180)       ( 1.083969370)       ( 1.084322180)       ( 1.083969370)

 Bond angles

  1-2-4  121.33813760   1-2-6  121.56997556   2-1-3  121.33813760   2-1-5  121.56997556

  3- 1- 5  117.09101064   4- 2- 6  117.09101064   7- 8-10  121.33819974   7- 8-12  121.56993577

  8- 7- 9  121.33819974   8- 7-11  121.56993577   9- 7-11  117.09098829  10- 8-12  117.09098829

 NUCLEAR CHARGE:                   32
 NUMBER OF PRIMITIVE AOS:         204
 NUMBER OF SYMMETRY AOS:          196
 NUMBER OF CONTRACTIONS:          132   (  66A   +  66B   )
 NUMBER OF CORE ORBITALS:           4   (   2A   +   2B   )
 NUMBER OF VALENCE ORBITALS:       24   (  12A   +  12B   )


 NUCLEAR REPULSION ENERGY  102.23664745


 Eigenvalues of metric

         1 0.585E-02 0.671E-02 0.742E-02 0.878E-02 0.117E-01 0.119E-01 0.194E-01 0.199E-01
         2 0.173E-03 0.173E-03 0.331E-03 0.332E-03 0.553E-02 0.554E-02 0.789E-02 0.790E-02


 Contracted 2-electron integrals neglected if value below      1.0D-16
 AO integral compression algorithm  1   Integral accuracy      1.0D-16

     169.869 MB (compressed) written to integral file ( 82.6%)

     Node minimum: 169.869 MB, node maximum: 169.869 MB


 NUMBER OF SORTED TWO-ELECTRON INTEGRALS:   19556295.     BUFFER LENGTH:  32768
 NUMBER OF SEGMENTS:   2  SEGMENT LENGTH:   15994374      RECORD LENGTH: 524288

 Memory used in sort:      16.55 MW

 SORT1 READ    25667632. AND WROTE    18988975. INTEGRALS IN     55 RECORDS. CPU TIME:     0.29 SEC, REAL TIME:     0.42 SEC
 SORT2 READ    18988975. AND WROTE    19556295. INTEGRALS IN    648 RECORDS. CPU TIME:     0.27 SEC, REAL TIME:     0.36 SEC

 FILE SIZES:   FILE 1:   137.2 MBYTE,  FILE 4:   230.7 MBYTE,   TOTAL:    367.9 MBYTE

 OPERATOR DM      FOR CENTER  0  COORDINATES:    0.000000    0.000000    0.000000


 **********************************************************************************************************************************
 DATASETS  * FILE   NREC   LENGTH (MB)   RECORD NAMES
              1      19      137.26       500      610      700      900      950      970     1000      129      960     1100   
                                          VAR    BASINP    GEOM    SYMINP    ZMAT    AOBASIS   BASIS     P2S    ABASIS      S 
                                         1400     1410     1200     1210     1080     1600     1650     1300     1700   
                                           T        V       H0       H01     AOSYM     SMH    MOLCAS    ERIS     OPER   

 PROGRAMS   *        TOTAL       INT
 CPU TIMES  *         2.39      2.33
 REAL TIME  *         2.83 SEC
 DISK USED  *       538.60 MB      
 GA USED    *         0.00 MB       (max)       0.00 MB       (current)
 **********************************************************************************************************************************

1PROGRAM * RHF-SCF (CLOSED SHELL)       Authors: W. Meyer, H.-J. Werner


 NUMBER OF ELECTRONS:      16+   16-
 CONVERGENCE THRESHOLDS:    1.00E-10 (Density)    1.00E-13 (Energy)
 MAX. NUMBER OF ITERATIONS:      200
 INTERPOLATION TYPE:            DIIS
 INTERPOLATION STEPS:              2 (START)      1 (STEP)
 LEVEL SHIFTS:                  0.00 (CLOSED)  0.00 (OPEN) 



 Orbital guess generated from atomic densities. Full valence occupancy:   14  14

 Molecular orbital dump at record        2100.2

 Initial alpha occupancy:   8   8
 Initial beta  occupancy:   8   8
 Wave function symmetry:    1

 ITERATION    DDIFF          GRAD             ENERGY        2-EL.EN.            DIPOLE MOMENTS         DIIS
    1      0.000D+00      0.000D+00      -156.03858663    307.093407    0.00000    0.00000    0.00000    0
    2      0.000D+00      0.489D-02      -156.07902564    304.364319    0.00000    0.00000    0.00000    1
    3      0.104D-01      0.164D-02      -156.08308382    305.487353    0.00000    0.00000    0.00000    2
    4      0.321D-02      0.499D-03      -156.08365369    305.200652    0.00000    0.00000    0.00000    3
    5      0.118D-02      0.622D-04      -156.08366451    305.215218    0.00000    0.00000    0.00000    4
    6      0.162D-03      0.100D-04      -156.08366492    305.213653    0.00000    0.00000    0.00000    5
    7      0.280D-04      0.240D-05      -156.08366494    305.213637    0.00000    0.00000    0.00000    6
    8      0.766D-05      0.364D-06      -156.08366494    305.213645    0.00000    0.00000    0.00000    6
    9      0.119D-05      0.677D-07      -156.08366494    305.213648    0.00000    0.00000    0.00000    5
   10      0.200D-06      0.145D-07      -156.08366494    305.213650    0.00000    0.00000    0.00000    6
   11      0.376D-07      0.337D-08      -156.08366494    305.213649    0.00000    0.00000    0.00000    6
   12      0.103D-07      0.122D-08      -156.08366494    305.213650    0.00000    0.00000    0.00000    6
   13      0.286D-08      0.492D-09      -156.08366494    305.213650    0.00000    0.00000    0.00000    6
   14      0.116D-08      0.136D-09      -156.08366494    305.213650    0.00000    0.00000    0.00000    7
   15      0.480D-09      0.139D-10      -156.08366494    305.213650    0.00000    0.00000    0.00000    7
   16      0.369D-10      0.280D-11      -156.08366494    305.213650    0.00000    0.00000    0.00000    7
   17      0.819D-11      0.523D-12      -156.08366494    305.213650    0.00000    0.00000    0.00000    6
   18      0.156D-11      0.985D-13      -156.08366494    305.213650    0.00000    0.00000    0.00000    6
   19      0.737D-12      0.289D-13      -156.08366494    305.213650    0.00000    0.00000    0.00000    6
   20      0.384D-12      0.203D-13      -156.08366494    305.213650    0.00000    0.00000    0.00000    6
   21      0.204D-12      0.215D-13      -156.08366494    305.213650    0.00000    0.00000    0.00000    7
   22      0.187D-12      0.154D-13      -156.08366494    305.213650    0.00000    0.00000    0.00000    8
   23      0.168D-12      0.177D-13      -156.08366494    305.213650    0.00000    0.00000    0.00000    9
   24      0.795D-13      0.142D-13      -156.08366494    305.213650    0.00000    0.00000    0.00000    9
   25      0.568D-13      0.149D-13      -156.08366494    305.213650    0.00000    0.00000    0.00000    0

 Final occupancy:   8   8

 !RHF STATE 1.1 Energy               -156.083664942564
 Nuclear energy                       102.23664745
 One-electron energy                 -410.92713733
 Two-electron energy                  152.60682494
 Virial quotient                       -1.00199269
 !RHF STATE 1.1 Dipole moment           0.00000000     0.00000000     0.00000008
 Dipole moment /Debye                   0.00000000     0.00000000     0.00000020

 Orbital energies:

         1.1          2.1          3.1          4.1          5.1          6.1          7.1          8.1          9.1         10.1
    -11.241793   -11.241789    -1.038700    -1.032831    -0.656875    -0.631301    -0.588348    -0.584888     0.075070     0.081626

         1.2          2.2          3.2          4.2          5.2          6.2          7.2          8.2          9.2         10.2
    -11.240173   -11.240173    -0.794798    -0.794797    -0.508795    -0.508789    -0.376347    -0.376347     0.068985     0.069044


 **********************************************************************************************************************************
 DATASETS  * FILE   NREC   LENGTH (MB)   RECORD NAMES
              1      19      137.26       500      610      700      900      950      970     1000      129      960     1100   
                                          VAR    BASINP    GEOM    SYMINP    ZMAT    AOBASIS   BASIS     P2S    ABASIS      S 
                                         1400     1410     1200     1210     1080     1600     1650     1300     1700   
                                           T        V       H0       H01     AOSYM     SMH    MOLCAS    ERIS     OPER   

              2       3        0.64       700     1000     2100   
                                         GEOM     BASIS     RHF  

 PROGRAMS   *        TOTAL       RHF       INT
 CPU TIMES  *         5.36      2.97      2.33
 REAL TIME  *         6.53 SEC
 DISK USED  *       538.60 MB      
 GA USED    *         0.00 MB       (max)       0.00 MB       (current)
 **********************************************************************************************************************************


1PROGRAM * MP2 (Closed-shell)     Authors: C. Hampel, H.-J. Werner, 1991, M. Deegan, P.J. Knowles, 1992


 Convergence thresholds:  THRVAR = 1.00D-08  THRDEN = 1.00D-12

 Number of core orbitals:           4 (   2   2 )
 Number of closed-shell orbitals:  12 (   6   6 )
 Number of external orbitals:     116 (  58  58 )

 Molecular orbitals read from record     2100.2  Type=RHF/CANONICAL (state 1.1)

 Number of N-1 electron functions:              12
 Number of N-2 electron functions:              78
 Number of singly external CSFs:               696
 Number of doubly external CSFs:            485112
 Total number of CSFs:                      485809

 Length of J-op  integral file:               0.00 MB
 Length of K-op  integral file:               0.64 MB

 Integral transformation finished. Total CPU:   0.29 sec, npass=  1  Memory used:   0.92 MW

 Memory needed for MP2:                      0.04 MW

 SCS-MP2 correlation energy:           -0.573957421070   (PS=  1.200000  PT=  0.333333)
 SCS-MP2 total energy:               -156.657622363635


  Reference energy                   -156.083664942564
  MP2 singlet pair energy              -0.379794938185
  MP2 triplet pair energy              -0.189969903078
  MP2 correlation energy               -0.569764841263

 !MP2 total energy                   -156.653429783827


 **********************************************************************************************************************************
 DATASETS  * FILE   NREC   LENGTH (MB)   RECORD NAMES
              1      20      145.68       500      610      700      900      950      970     1000      129      960     1100   
                                          VAR    BASINP    GEOM    SYMINP    ZMAT    AOBASIS   BASIS     P2S    ABASIS      S 
                                         1400     1410     1200     1210     1080     1600     1650     1300     1700     1380   
                                           T        V       H0       H01     AOSYM     SMH    MOLCAS    ERIS     OPER     JKOP   

              2       3        0.64       700     1000     2100   
                                         GEOM     BASIS     RHF  

 PROGRAMS   *        TOTAL       MP2       RHF       INT
 CPU TIMES  *         5.69      0.33      2.97      2.33
 REAL TIME  *         6.93 SEC
 DISK USED  *       538.60 MB      
 GA USED    *         0.00 MB       (max)       0.00 MB       (current)
 **********************************************************************************************************************************

        MP2             RHF-SCF 
   -156.65342978   -156.08366494
 **********************************************************************************************************************************
 Variable memory released
