
 Primary working directories    : /tmp/917057.407.gen4.q
 Secondary working directories  : /tmp/917057.407.gen4.q
 Wavefunction directory         : /home/vulcan/lo21740/wfu/
 Main file repository           : /tmp/917057.407.gen4.q/

 ARCHNAME  : Linux/x86_64
 FC        : /opt/intel/compilers_and_libraries_2016.1.150/linux/bin/intel64/ifort
 FCVERSION : 16.0.1
 BLASLIB   : -mkl
 id        : ccgc

 Nodes     nprocs
 n033         1
 ga_uses_ma=false, calling ma_init with nominal heap.
 GA-space will be limited to   8.0 MW (determined by -G option)

 Using customized tuning parameters: mindgm=10; mindgv=16; mindgc=4; mindgr=1; noblas=0; mincuda=1000; minvec=7
 default implementation of scratch files=df  

 ***,Optimization of h2o_2
 memory,1000,m
 gthresh,energy=1.0d-12,orbital=1.0d-10,oneint=1.0d-16,twoint=1.0d-16,optgrad=1.0d-6,compress=1.0d-13
 geomtyp=xyz
 
 bohr
 geometry = {
  C   -0.0016838855   -3.4255544474   -0.0037103789
  H   -0.9726669073   -2.7342470444   -1.6836930372
  H   -0.9677976560   -2.7319739103    1.6781415487
  H    1.9363230120   -2.7275894163    0.0014400313
  H    0.0070695527   -5.4853244934    0.0060682704
  C   -0.0002470596    3.4228036188    0.0003518924
  H    0.0017383186    5.4826141085    0.0016537623
  H    0.9695705548    2.7332184697   -1.6810111867
  H    0.9695699969    2.7310936651    1.6808422683
  H   -1.9418759266    2.7349594496   -0.0000831705
 }
 
 basis=AVDZ
 {rhf;maxit,200}
 {ccsd(t);maxit,200}

 Variables initialized (661), CPU time= 0.00 sec
 Commands  initialized (458), CPU time= 0.00 sec, 486 directives.
 Default parameters read. Elapsed time= 0.06 sec

 Checking input...
 Passed
1


                                         ***  PROGRAM SYSTEM MOLPRO  ***
                         Copyright, University College Cardiff Consultants Limited, 2008

                                    Version 2010.1 linked May 16 2016 07:17:05


 **********************************************************************************************************************************
 LABEL *   Optimization of h2o_2                                                         
 Linux-4.4.3/n033(x86_64) 64 bit mpp version                                             DATE: 20-Jul-23          TIME: 14:27:12  
 **********************************************************************************************************************************

 SHA1:             9e8077add272b0f3cad6f7df79ec5211205f459d
 **********************************************************************************************************************************

 THRESHOLDS:

 ZERO    =  1.00D-12  ONEINT  =  1.00D-16  TWOINT  =  1.00D-16  PREFAC  =  1.00D-14  LOCALI  =  1.00D-09  EORDER  =  1.00D-04
 ENERGY  =  1.00D-12  ETEST   =  0.00D+00  EDENS   =  0.00D+00  THRDEDEF=  1.00D-06  GRADIENT=  1.00D-02  STEP    =  1.00D-03
 ORBITAL =  1.00D-10  CIVEC   =  1.00D-05  COEFF   =  1.00D-04  PRINTCI =  5.00D-02  PUNCHCI =  9.90D+01  OPTGRAD =  1.00D-06
 OPTENERG=  1.00D-06  OPTSTEP =  3.00D-04  THRGRAD =  1.00D-10  COMPRESS=  1.00D-13  VARMIN  =  1.00D-07  VARMAX  =  1.00D-03
 THRDOUB =  0.00D+00  THRDIV  =  1.00D-05  THRRED  =  1.00D-07  THRPSP  =  1.00D+00  THRDC   =  1.00D-10  THRCS   =  1.00D-10
 THRNRM  =  1.00D-08  THREQ   =  0.00D+00  THRDE   =  1.00D+00  THRREF  =  1.00D-05  SPARFAC =  1.00D+00  THRDLP  =  1.00D-07
 THRDIA  =  1.00D-10  THRDLS  =  1.00D-07  THRGPS  =  0.00D+00  THRKEX  =  0.00D+00  THRDIS  =  2.00D-01  THRVAR  =  1.00D-10
 THRLOC  =  1.00D-06  THRGAP  =  1.00D-06  THRLOCT = -1.00D+00  THRGAPT = -1.00D+00  THRORB  =  1.00D-06  THRMLTP =  0.00D+00
 THRCPQCI=  1.00D-10  KEXTA   =  0.00D+00  THRCOARS=  0.00D+00  SYMTOL  =  1.00D-06  GRADTOL =  1.00D-06  THROVL  =  1.00D-08
 THRORTH =  1.00D-08  GRID    =  1.00D-06  GRIDMAX =  1.00D-03  DTMAX   =  0.00D+00

 SETTING GEOMTYP        =    XYZ
 ZUNIT=BOHR
 

 Variable memory set to 1000000000 words,  buffer space   230000 words

 SETTING BASIS          =    AVDZ


 Recomputing integrals since basis changed


 Using spherical harmonics

 Library entry C      S aug-cc-pVDZ          selected for orbital group  1
 Library entry C      P aug-cc-pVDZ          selected for orbital group  1
 Library entry C      D aug-cc-pVDZ          selected for orbital group  1
 Library entry H      S aug-cc-pVDZ          selected for orbital group  2
 Library entry H      P aug-cc-pVDZ          selected for orbital group  2

1PROGRAM * SEWARD (Integral evaluation for generally contracted gaussian basis sets)     Author: Roland Lindh, 1990

 Geometry written to block  1 of record 700


 Point group  C1  



 ATOMIC COORDINATES

 NR  ATOM    CHARGE       X              Y              Z

   1  C       6.00   -0.001683885   -3.425554447   -0.003710379
   2  H       1.00   -0.972666907   -2.734247044   -1.683693037
   3  H       1.00   -0.967797656   -2.731973910    1.678141549
   4  H       1.00    1.936323012   -2.727589416    0.001440031
   5  H       1.00    0.007069553   -5.485324493    0.006068270
   6  C       6.00   -0.000247060    3.422803619    0.000351892
   7  H       1.00    0.001738319    5.482614108    0.001653762
   8  H       1.00    0.969570555    2.733218470   -1.681011187
   9  H       1.00    0.969569997    2.731093665    1.680842268
  10  H       1.00   -1.941875927    2.734959450   -0.000083170

 Bond lengths in Bohr (Angstrom)

 1-2  2.059867881  1-3  2.059867881  1-4  2.059867094  1-5  2.059811857  6-7  2.059811858
     ( 1.090035136)     ( 1.090035136)     ( 1.090034720)     ( 1.090005490)     ( 1.090005490)

  6- 8  2.059867881   6- 9  2.059867881   6-10  2.059867095
       ( 1.090035136)       ( 1.090035136)       ( 1.090034720)

 Bond angles

  2-1-3  109.37919214   2-1-4  109.37907610   2-1-5  109.96681696   3-1-4  108.97393374

  3-1-5  109.56167467   4-1-5  109.56176677   7-6-8  109.56240830   7-6-9  109.56240831

  7- 6-10  109.56250040   8- 6- 9  109.37992579   8- 6-10  109.37980975   9- 6-10  109.37980975

 NUCLEAR CHARGE:                   20
 NUMBER OF PRIMITIVE AOS:         162
 NUMBER OF SYMMETRY AOS:          158
 NUMBER OF CONTRACTIONS:          118   ( 118A   )
 NUMBER OF CORE ORBITALS:           2   (   2A   )
 NUMBER OF VALENCE ORBITALS:       16   (  16A   )


 NUCLEAR REPULSION ENERGY   41.33541483


 Eigenvalues of metric

         1 0.371E-03 0.570E-03 0.573E-03 0.612E-03 0.727E-03 0.729E-03 0.778E-03 0.101E-02


 Contracted 2-electron integrals neglected if value below      1.0D-16
 AO integral compression algorithm  1   Integral accuracy      1.0D-16

     212.861 MB (compressed) written to integral file ( 93.0%)

     Node minimum: 212.861 MB, node maximum: 212.861 MB


 NUMBER OF SORTED TWO-ELECTRON INTEGRALS:   24650731.     BUFFER LENGTH:  32768
 NUMBER OF SEGMENTS:   2  SEGMENT LENGTH:   15997996      RECORD LENGTH: 524288

 Memory used in sort:      16.56 MW

 SORT1 READ    28594353. AND WROTE    24453584. INTEGRALS IN     71 RECORDS. CPU TIME:     0.30 SEC, REAL TIME:     0.44 SEC
 SORT2 READ    24453584. AND WROTE    24650731. INTEGRALS IN    812 RECORDS. CPU TIME:     0.25 SEC, REAL TIME:     0.36 SEC

 FILE SIZES:   FILE 1:   189.6 MBYTE,  FILE 4:   297.8 MBYTE,   TOTAL:    487.5 MBYTE

 OPERATOR DM      FOR CENTER  0  COORDINATES:    0.000000    0.000000    0.000000


 **********************************************************************************************************************************
 DATASETS  * FILE   NREC   LENGTH (MB)   RECORD NAMES
              1      19      189.81       500      610      700      900      950      970     1000      129      960     1100   
                                          VAR    BASINP    GEOM    SYMINP    ZMAT    AOBASIS   BASIS     P2S    ABASIS      S 
                                         1400     1410     1200     1210     1080     1600     1650     1300     1700   
                                           T        V       H0       H01     AOSYM     SMH    MOLCAS    ERIS     OPER   

 PROGRAMS   *        TOTAL       INT
 CPU TIMES  *         1.78      1.73
 REAL TIME  *         2.31 SEC
 DISK USED  *       701.11 MB      
 GA USED    *         0.00 MB       (max)       0.00 MB       (current)
 **********************************************************************************************************************************

1PROGRAM * RHF-SCF (CLOSED SHELL)       Authors: W. Meyer, H.-J. Werner


 NUMBER OF ELECTRONS:      10+   10-    SPACE SYMMETRY=1    SPIN SYMMETRY: Singlet 
 CONVERGENCE THRESHOLDS:    1.00E-10 (Density)    1.00E-13 (Energy)
 MAX. NUMBER OF ITERATIONS:      200
 INTERPOLATION TYPE:            DIIS
 INTERPOLATION STEPS:              2 (START)      1 (STEP)
 LEVEL SHIFTS:                  0.00 (CLOSED)  0.00 (OPEN) 



 Orbital guess generated from atomic densities. Full valence occupancy:   18

 Molecular orbital dump at record        2100.2

 ITERATION    DDIFF          GRAD             ENERGY        2-EL.EN.            DIPOLE MOMENTS         DIIS
    1      0.000D+00      0.000D+00       -80.36234028    134.779357    0.00146    0.00216    0.00254    0
    2      0.000D+00      0.368D-02       -80.39422722    132.475750    0.00038    0.00089    0.00071    1
    3      0.809D-02      0.137D-02       -80.39820075    133.302786    0.00062    0.00108    0.00111    2
    4      0.256D-02      0.371D-03       -80.39878757    133.172074    0.00056    0.00096    0.00098    3
    5      0.868D-03      0.458D-04       -80.39879630    133.178974    0.00055    0.00094    0.00097    4
    6      0.876D-04      0.295D-05       -80.39879635    133.178810    0.00055    0.00094    0.00097    5
    7      0.107D-04      0.222D-06       -80.39879635    133.178792    0.00055    0.00094    0.00097    5
    8      0.155D-05      0.347D-07       -80.39879635    133.178792    0.00055    0.00094    0.00097    4
    9      0.290D-06      0.560D-08       -80.39879635    133.178793    0.00055    0.00094    0.00097    4
   10      0.195D-07      0.860D-09       -80.39879635    133.178793    0.00055    0.00094    0.00097    5
   11      0.193D-08      0.196D-09       -80.39879635    133.178793    0.00055    0.00094    0.00097    5
   12      0.108D-08      0.580D-10       -80.39879635    133.178793    0.00055    0.00094    0.00097    6
   13      0.195D-09      0.118D-10       -80.39879635    133.178793    0.00055    0.00094    0.00097    6
   14      0.403D-10      0.258D-11       -80.39879635    133.178793    0.00055    0.00094    0.00097    6
   15      0.100D-10      0.356D-12       -80.39879635    133.178793    0.00055    0.00094    0.00097    6
   16      0.213D-11      0.101D-12       -80.39879635    133.178793    0.00055    0.00094    0.00097    6
   17      0.122D-11      0.560D-13       -80.39879635    133.178793    0.00055    0.00094    0.00097    7
   18      0.110D-11      0.373D-13       -80.39879635    133.178793    0.00055    0.00094    0.00097    7
   19      0.552D-12      0.334D-13       -80.39879635    133.178793    0.00055    0.00094    0.00097    8
   20      0.316D-12      0.415D-13       -80.39879635    133.178793    0.00055    0.00094    0.00097    0

 Final occupancy:  10

 !RHF STATE 1.1 Energy                -80.398796347084
 Nuclear energy                        41.33541483
 One-electron energy                 -188.32360772
 Two-electron energy                   66.58939654
 Virial quotient                       -1.00196295
 !RHF STATE 1.1 Dipole moment           0.00055132     0.00094267     0.00096911
 Dipole moment /Debye                   0.00140122     0.00239588     0.00246308

 Orbital energies:

         1.1          2.1          3.1          4.1          5.1          6.1          7.1          8.1          9.1         10.1
    -11.214683   -11.214644    -0.945588    -0.939638    -0.551169    -0.546669    -0.546168    -0.539224    -0.538652    -0.535972

        11.1         12.1
      0.035477     0.045874


 **********************************************************************************************************************************
 DATASETS  * FILE   NREC   LENGTH (MB)   RECORD NAMES
              1      19      189.81       500      610      700      900      950      970     1000      129      960     1100   
                                          VAR    BASINP    GEOM    SYMINP    ZMAT    AOBASIS   BASIS     P2S    ABASIS      S 
                                         1400     1410     1200     1210     1080     1600     1650     1300     1700   
                                           T        V       H0       H01     AOSYM     SMH    MOLCAS    ERIS     OPER   

              2       3        0.70       700     1000     2100   
                                         GEOM     BASIS     RHF  

 PROGRAMS   *        TOTAL       RHF       INT
 CPU TIMES  *         5.72      3.94      1.73
 REAL TIME  *         6.69 SEC
 DISK USED  *       701.11 MB      
 GA USED    *         0.00 MB       (max)       0.00 MB       (current)
 **********************************************************************************************************************************


1PROGRAM * CCSD (Closed-shell coupled cluster)     Authors: C. Hampel, H.-J. Werner, 1991, M. Deegan, P.J. Knowles, 1992


 Convergence thresholds:  THRVAR = 1.00D-08  THRDEN = 1.00D-12

 CCSD(T)     terms to be evaluated (factor= 1.000)


 Number of core orbitals:           2 (   2 )
 Number of closed-shell orbitals:   8 (   8 )
 Number of external orbitals:     108 ( 108 )

 Molecular orbitals read from record     2100.2  Type=RHF/CANONICAL (state 1.1)

 Number of N-1 electron functions:               8
 Number of N-2 electron functions:              36
 Number of singly external CSFs:               864
 Number of doubly external CSFs:            373680
 Total number of CSFs:                      374545

 Length of J-op  integral file:               0.00 MB
 Length of K-op  integral file:               1.00 MB
 Length of 3-ext integral record:             0.00 MB

 Memory could be reduced to 14.62 Mwords without degradation in triples

 Integral transformation finished. Total CPU:   0.87 sec, npass=  1  Memory used:   8.61 MW

 Reference energy:                    -80.39879635

 MP2 singlet pair energy:              -0.24106512
 MP2 triplet pair energy:              -0.09675851
 MP2 correlation energy:               -0.33782363
 MP2 total energy:                    -80.73661997

 SCS-MP2 correlation energy:           -0.34948344   (PS=  1.200000  PT=  0.333333)
 SCS-MP2 total energy:                -80.74827978

 ITER.      SQ.NORM     CORR.ENERGY   TOTAL ENERGY   ENERGY CHANGE        DEN1      VAR(S)    VAR(P)  DIIS     TIME
   1      1.14043988    -0.38147554   -80.78027189    -0.04365192    -0.03251920  0.70D-03  0.24D-02  1  1     2.03
   2      1.15348969    -0.38423119   -80.78302753    -0.00275564    -0.01269459  0.16D-04  0.11D-03  2  2     3.24
   3      1.15560218    -0.38436394   -80.78316029    -0.00013276    -0.00113044  0.25D-05  0.71D-05  3  3     4.45
   4      1.15604922    -0.38438210   -80.78317845    -0.00001816    -0.00017665  0.10D-06  0.45D-06  4  4     5.66
   5      1.15612024    -0.38437880   -80.78317514     0.00000331    -0.00003211  0.39D-08  0.31D-07  5  5     6.87
   6      1.15612413    -0.38437779   -80.78317414     0.00000101    -0.00000142  0.28D-09  0.20D-08  6  6     8.08
   7      1.15612451    -0.38437801   -80.78317436    -0.00000022    -0.00000002  0.24D-10  0.13D-09  6  1     9.30
   8      1.15612458    -0.38437803   -80.78317437    -0.00000002    -0.00000007  0.24D-11  0.96D-11  6  2    10.51
   9      1.15612453    -0.38437803   -80.78317438    -0.00000000     0.00000003  0.45D-12  0.75D-12  6  3    11.73
  10      1.15612449    -0.38437803   -80.78317438    -0.00000000     0.00000002  0.35D-13  0.66D-13  6  4    12.94
  11      1.15612446    -0.38437803   -80.78317438    -0.00000000     0.00000002  0.33D-14  0.71D-14  6  5    14.16
  12      1.15612445    -0.38437803   -80.78317438    -0.00000000     0.00000001  0.28D-15  0.85D-15  6  6    15.38
  13      1.15612444    -0.38437803   -80.78317438    -0.00000000     0.00000000  0.22D-16  0.10D-15  6  1    16.59
  14      1.15612444    -0.38437803   -80.78317438    -0.00000000     0.00000000  0.26D-17  0.11D-16  6  3    17.81
  15      1.15612444    -0.38437803   -80.78317438    -0.00000000     0.00000000  0.20D-18  0.61D-18  6  2    19.02
  16      1.15612444    -0.38437803   -80.78317438    -0.00000000     0.00000000  0.26D-19  0.47D-19  6  4    20.24
  17      1.15612444    -0.38437803   -80.78317438    -0.00000000     0.00000000  0.32D-20  0.59D-20  6  5    21.44
  18      1.15612444    -0.38437803   -80.78317438    -0.00000000     0.00000000  0.36D-21  0.49D-21  6  6    22.64

 Norm of t1 vector:      0.03916248      S-energy:     0.00000000      T1 diagnostic:  0.00692301
                                                                       D1 diagnostic:  0.01252921


 Total CPU time for triples:     14.07 sec


 RESULTS
 =======

  Reference energy                    -80.398796347084
  CCSD singlet pair energy             -0.290156569722
  CCSD triplet pair energy             -0.094221464318
  CCSD correlation energy              -0.384378034040

  Triples (T) contribution             -0.009219478941
  Total correlation energy             -0.393597512981

  CCSD total energy                   -80.783174381124
  CCSD[T] energy                      -80.792614773704
  CCSD-T energy                       -80.792276635669
 !CCSD(T) total energy                -80.792393860065

 Timing summary (sec):

 STEP                 CPU(USER)    SYS     CPU(TOT)    WALL
 Transformation          0.90      0.08      0.98      0.99
 CCSD iterations        21.74      0.78     22.52     22.57
 Triples                14.07      0.18     14.25     14.25

 Program statistics:

 Available memory in ccsd:               999999644
 Min. memory needed in ccsd:               1156281
 Max. memory used in ccsd:                 1468601
 Max. memory used in cckext:               1135046 (18 integral passes)



 **********************************************************************************************************************************
 DATASETS  * FILE   NREC   LENGTH (MB)   RECORD NAMES
              1      20      236.78       500      610      700      900      950      970     1000      129      960     1100   
                                          VAR    BASINP    GEOM    SYMINP    ZMAT    AOBASIS   BASIS     P2S    ABASIS      S 
                                         1400     1410     1200     1210     1080     1600     1650     1300     1700     1380   
                                           T        V       H0       H01     AOSYM     SMH    MOLCAS    ERIS     OPER     JKOP   

              2       3        0.70       700     1000     2100   
                                         GEOM     BASIS     RHF  

 PROGRAMS   *        TOTAL   CCSD(T)       RHF       INT
 CPU TIMES  *        42.44     36.72      3.94      1.73
 REAL TIME  *        44.53 SEC
 DISK USED  *       701.11 MB      
 GA USED    *         0.00 MB       (max)       0.00 MB       (current)
 **********************************************************************************************************************************

        CCSD(T)         RHF-SCF 
    -80.79239386    -80.39879635
 **********************************************************************************************************************************
 Variable memory released
