
    -----------------------------------------------------------------------
          Psi4: An Open-Source Ab Initio Electronic Structure Package
                               Psi4 1.4a2.dev629 

                         Git: Rev {master} 2938fc2 dirty


    D. G. A. Smith, L. A. Burns, A. C. Simmonett, R. M. Parrish,
    M. C. Schieber, R. Galvelis, P. Kraus, H. Kruse, R. Di Remigio,
    A. Alenaizan, A. M. James, S. Lehtola, J. P. Misiewicz, M. Scheurer,
    R. A. Shaw, J. B. Schriber, Y. Xie, Z. L. Glick, D. A. Sirianni,
    J. S. O'Brien, J. M. Waldrop, A. Kumar, E. G. Hohenstein,
    B. P. Pritchard, B. R. Brooks, H. F. Schaefer III, A. Yu. Sokolov,
    K. Patkowski, A. E. DePrince III, U. Bozkaya, R. A. King,
    F. A. Evangelista, J. M. Turney, T. D. Crawford, C. D. Sherrill,
    J. Chem. Phys. 152(18) 184108 (2020). https://doi.org/10.1063/5.0006002

                            Additional Code Authors
    E. T. Seidl, C. L. Janssen, E. F. Valeev, M. L. Leininger,
    J. F. Gonthier, R. M. Richard, H. R. McAlexander, M. Saitow, X. Wang,
    P. Verma, and M. H. Lechner

             Previous Authors, Complete List of Code Contributors,
                       and Citations for Specific Modules
    https://github.com/psi4/psi4/blob/master/codemeta.json
    https://github.com/psi4/psi4/graphs/contributors
    http://psicode.org/psi4manual/master/introduction.html#citing-psifour

    -----------------------------------------------------------------------


    Psi4 started on: Thursday, 11 November 2021 03:36PM

    Process ID: 10057
    Host:       n040
    PSIDATADIR: /opt/psi/4/master/share/psi4
    Memory:     500.0 MiB
    Threads:    4
    
  ==> Input File <==

--------------------------------------------------------------------------
import os
memory 14 GB 
 
molecule {
 C   -0.0000000000   -2.3889837482    0.5130537861
 C   -0.0000000000   -0.0000000002   -1.1056916219
 C   -0.0000000000    2.3889837881    0.5130537358
 H   -0.0000000000   -4.0975801913   -0.6497461442
 H   -1.6646736325   -2.4472450881    1.7317254983
 H    1.6646736325   -2.4472450881    1.7317254983
 H    1.6538202045   -0.0000003198   -2.3453581321
 H   -1.6538202045   -0.0000003198   -2.3453581321
 H   -0.0000000000    4.0975802108   -0.6497462243
 H    1.6646736328    2.4472451482    1.7317254480
 H   -1.6646736328    2.4472451482    1.7317254480
units bohr
}

basis {

assign 6-31g_2dfp_

[ 6-31g_2dfp_ ]

spherical

!----------------------------------------------------------------------
! Basis Set Exchange
! Version v0.8.13
! https://www.basissetexchange.org
!----------------------------------------------------------------------
!   Basis set: 6-31G(2df,p)
! Description: 6-31G(2df,p)
!        Role: orbital
!     Version: 0  (Data from the original Basis Set Exchange)
!----------------------------------------------------------------------


****
H     0
S    3   1.00
     18.7311370              0.03349460
      2.8253937              0.23472695
      0.6401217              0.81375733
S    1   1.00
      0.1612778              1.00000000
P    1   1.00
      1.5000000              1.0000000
P    1   1.00
      0.3750000              1.0000000
****
B     0
S    6   1.00
   2068.8823000              0.0018663
    310.6495700              0.0142515
     70.6830330              0.0695516
     19.8610800              0.2325729
      6.2993048              0.4670787
      2.1270270              0.3634314
SP   3   1.00
      4.7279710             -0.1303938              0.0745976
      1.1903377             -0.1307889              0.3078467
      0.3594117              1.1309444              0.7434568
SP   1   1.00
      0.1267512              1.0000000              1.0000000
D    1   1.00
      0.8020000              1.0000000
D    1   1.00
      0.2005000              1.0000000
F    1   1.00
      0.5000000              1.0000000
****
C     0
S    6   1.00
   3047.5249000              0.0018347
    457.3695100              0.0140373
    103.9486900              0.0688426
     29.2101550              0.2321844
      9.2866630              0.4679413
      3.1639270              0.3623120
SP   3   1.00
      7.8682724             -0.1193324              0.0689991
      1.8812885             -0.1608542              0.3164240
      0.5442493              1.1434564              0.7443083
SP   1   1.00
      0.1687144              1.0000000              1.0000000
D    1   1.00
      1.2520000              1.0000000
D    1   1.00
      0.3130000              1.0000000
F    1   1.00
      0.8000000              1.0000000
****
N     0
S    6   1.00
   4173.5110000              0.0018348
    627.4579000              0.0139950
    142.9021000              0.0685870
     40.2343300              0.2322410
     12.8202100              0.4690700
      4.3904370              0.3604550
SP   3   1.00
     11.6263580             -0.1149610              0.0675800
      2.7162800             -0.1691180              0.3239070
      0.7722180              1.1458520              0.7408950
SP   1   1.00
      0.2120313              1.0000000              1.0000000
D    1   1.00
      1.8260000              1.0000000
D    1   1.00
      0.4565000              1.0000000
F    1   1.00
      1.0000000              1.0000000
****
O     0
S    6   1.00
   5484.6717000              0.0018311
    825.2349500              0.0139501
    188.0469600              0.0684451
     52.9645000              0.2327143
     16.8975700              0.4701930
      5.7996353              0.3585209
SP   3   1.00
     15.5396160             -0.1107775              0.0708743
      3.5999336             -0.1480263              0.3397528
      1.0137618              1.1307670              0.7271586
SP   1   1.00
      0.2700058              1.0000000              1.0000000
D    1   1.00
      2.5840000              1.0000000
D    1   1.00
      0.6460000              1.0000000
F    1   1.00
      1.4000000              1.0000000
****
F     0
S    6   1.00
   7001.7130900              0.0018196169
   1051.3660900              0.0139160796
    239.2856900              0.0684053245
     67.3974453              0.233185760
     21.5199573              0.471267439
      7.40310130             0.356618546
SP   3   1.00
     20.8479528             -0.108506975            0.0716287243
      4.80830834            -0.146451658            0.3459121030
      1.34406986             1.128688580            0.7224699570
SP   1   1.00
      0.358151393            1.0000000              1.0000000
D    1   1.00
      3.5000000              1.0000000
D    1   1.00
      0.8750000              1.0000000
F    1   1.00
      1.8500000              1.0000000
****
Al     0
S    6   1.00
  13983.1000000              0.00194267
   2098.7500000              0.0148599
    477.7050000              0.0728494
    134.3600000              0.2468300
     42.8709000              0.4872580
     14.5189000              0.3234960
SP   6   1.00
    239.6680000             -0.00292619             0.00460285
     57.4419000             -0.0374080              0.0331990
     18.2859000             -0.1144870              0.1362820
      6.5991400              0.1156350              0.3304760
      2.4904900              0.6125950              0.4491460
      0.9445400              0.3937990              0.2657040
SP   3   1.00
      1.2779000             -0.2276060             -0.0175130
      0.3975900              0.00144583             0.2445330
      0.1600950              1.0927900              0.8049340
SP   1   1.00
      0.0556577              1.0000000              1.0000000
D    1   1.00
      0.6500000              1.0000000
D    1   1.00
      0.1625000              1.0000000
F    1   1.00
      0.2500000              1.0000000
****
Si     0
S    6   1.00
  16115.9000000              0.00195948
   2425.5800000              0.01492880
    553.8670000              0.07284780
    156.3400000              0.24613000
     50.0683000              0.48591400
     17.0178000              0.32500200
SP   6   1.00
    292.7180000             -0.00278094             0.00443826
     69.8731000             -0.03571460             0.03266790
     22.3363000             -0.11498500             0.13472100
      8.1503900              0.09356340             0.32867800
      3.1345800              0.60301700             0.44964000
      1.2254300              0.41895900             0.26137200
SP   3   1.00
      1.7273800             -0.24463000            -0.01779510
      0.5729220              0.00431572             0.25353900
      0.2221920              1.09818000             0.80066900
SP   1   1.00
      0.0778369              1.00000000             1.00000000
D    1   1.00
      0.9000000              1.0000000
D    1   1.00
      0.2250000              1.0000000
F    1   1.00
      0.3200000              1.0000000
****
P     0
S    6   1.00
  19413.3000000              0.0018516
   2909.4200000              0.0142062
    661.3640000              0.0699995
    185.7590000              0.2400790
     59.1943000              0.4847620
     20.0310000              0.3352000
SP   6   1.00
    339.4780000             -0.00278217             0.00456462
     81.0101000             -0.0360499              0.03369360
     25.8780000             -0.1166310              0.13975500
      9.4522100              0.0968328              0.33936200
      3.6656600              0.6144180              0.45092100
      1.4674600              0.4037980              0.23858600
SP   3   1.00
      2.1562300             -0.2529230             -0.01776530
      0.7489970              0.0328517              0.27405800
      0.2831450              1.0812500              0.78542100
SP   1   1.00
      0.0998317              1.0000000              1.00000000
D    1   1.00
      1.1000000              1.0000000
D    1   1.00
      0.2750000              1.0000000
F    1   1.00
      0.4500000              1.0000000
****
S     0
S    6   1.00
  21917.1000000              0.0018690
   3301.4900000              0.0142300
    754.1460000              0.0696960
    212.7110000              0.2384870
     67.9896000              0.4833070
     23.0515000              0.3380740
SP   6   1.00
    423.7350000             -0.0023767              0.0040610
    100.7100000             -0.0316930              0.0306810
     32.1599000             -0.1133170              0.1304520
     11.8079000              0.0560900              0.3272050
      4.6311000              0.5922550              0.4528510
      1.8702500              0.4550060              0.2560420
SP   3   1.00
      2.6158400             -0.2503740             -0.0145110
      0.9221670              0.0669570              0.3102630
      0.3412870              1.0545100              0.7544830
SP   1   1.00
      0.1171670              1.0000000              1.0000000
D    1   1.00
      1.3000000              1.0000000
D    1   1.00
      0.3250000              1.0000000
F    1   1.00
      0.5500000              1.0000000
****
Cl     0
S    6   1.00
  25180.1000000              0.0018330
   3780.3500000              0.0140340
    860.4740000              0.0690970
    242.1450000              0.2374520
     77.3349000              0.4830340
     26.2470000              0.3398560
SP   6   1.00
    491.7650000             -0.0022974              0.0039894
    116.9840000             -0.0307140              0.0303180
     37.4153000             -0.1125280              0.1298800
     13.7834000              0.0450160              0.3279510
      5.4521500              0.5893530              0.4535270
      2.2258800              0.4652060              0.2521540
SP   3   1.00
      3.1864900             -0.2518300             -0.0142990
      1.1442700              0.0615890              0.3235720
      0.4203770              1.0601800              0.7435070
SP   1   1.00
      0.1426570              1.0000000              1.0000000
D    1   1.00
      1.5000000              1.0000000
D    1   1.00
      0.3750000              1.0000000
F    1   1.00
      0.7000000              1.0000000
****
}


set {
reference rhf                          
freeze_core true
e_convergence 10                       
d_convergence 10                      
dft_spherical_points 1202
dft_radial_points 99
}

e = energy('b3lyp')

print_out('Grab this energy {0}'.format(e))
--------------------------------------------------------------------------

  Memory set to  13.039 GiB by Python driver.

Scratch directory: /tmp/

*** tstart() called on n040
*** at Thu Nov 11 15:36:33 2021

   => Loading Basis Set <=

    Name: ANONYMOUSA1F3F32E
    Role: ORBITAL
    Keyword: BASIS
    atoms 1-3  entry C          line    48 inputblock 6-31g_2dfp_ 
    atoms 4-11 entry H          line    15 inputblock 6-31g_2dfp_ 


         ---------------------------------------------------------
                                   SCF
               by Justin Turney, Rob Parrish, Andy Simmonett
                          and Daniel G. A. Smith
                              RKS Reference
                        4 Threads,  13351 MiB Core
         ---------------------------------------------------------

  ==> Geometry <==

    Molecular point group: cs
    Full point group: Cs

    Geometry (in Bohr), charge = 0, multiplicity = 1:

       Center              X                  Y                   Z               Mass       
    ------------   -----------------  -----------------  -----------------  -----------------
         C            2.388983747578    -0.513303119664     0.000000000000    12.000000000000
         C           -0.000000000422     1.105442288336     0.000000000000    12.000000000000
         C           -2.388983788722    -0.513303069364     0.000000000000    12.000000000000
         H            4.097580190678     0.649496810636     0.000000000000     1.007825032230
         H            2.447245087478    -1.731974831864    -1.664673632500     1.007825032230
         H            2.447245087478    -1.731974831864     1.664673632500     1.007825032230
         H            0.000000319178     2.345108798536     1.653820204500     1.007825032230
         H            0.000000319178     2.345108798536    -1.653820204500     1.007825032230
         H           -4.097580211422     0.649496890736     0.000000000000     1.007825032230
         H           -2.447245148822    -1.731974781564     1.664673632800     1.007825032230
         H           -2.447245148822    -1.731974781564    -1.664673632800     1.007825032230

  Running in cs symmetry.

  Rotational constants: A =      0.97568  B =      0.28444  C =      0.25086 [cm^-1]
  Rotational constants: A =  29250.18538  B =   8527.21870  C =   7520.49912 [MHz]
  Nuclear repulsion =   82.666574195886753

  Charge       = 0
  Multiplicity = 1
  Electrons    = 26
  Nalpha       = 13
  Nbeta        = 13

  ==> Algorithm <==

  SCF Algorithm Type is DF.
  DIIS enabled.
  MOM disabled.
  Fractional occupation disabled.
  Guess Type is SAD.
  Energy threshold   = 1.00e-10
  Density threshold  = 1.00e-10
  Integral threshold = 0.00e+00

  ==> Primary Basis <==

  Basis Set: ANONYMOUSA1F3F32E
    Blend: 6-31G_2DFP_
    Number of shells: 56
    Number of basis function: 142
    Number of Cartesian functions: 157
    Spherical Harmonics?: true
    Max angular momentum: 3

  ==> DFT Potential <==

   => Composite Functional: B3LYP <= 

    B3LYP Hyb-GGA Exchange-Correlation Functional

    P. J. Stephens, F. J. Devlin, C. F. Chabalowski, and M. J. Frisch, J. Phys. Chem. 98, 11623 (1994)

    Deriv               =              1
    GGA                 =           TRUE
    Meta                =          FALSE

    Exchange Hybrid     =           TRUE
    MP2 Hybrid          =          FALSE

   => Exchange Functionals <=

    0.0800   Slater exchange
    0.7200         Becke 88

   => Exact (HF) Exchange <=

    0.2000               HF 

   => Correlation Functionals <=

    0.1900   Vosko, Wilk & Nusair (VWN5_RPA)
    0.8100   Lee, Yang & Parr

   => Molecular Quadrature <=

    Radial Scheme          =       TREUTLER
    Pruning Scheme         =           NONE
    Nuclear Scheme         =       TREUTLER

    BS radius alpha        =              1
    Pruning alpha          =              1
    Radial Points          =             99
    Spherical Points       =           1202
    Total Points           =        1226251
    Total Blocks           =           8253
    Max Points             =            256
    Max Functions          =            142
    Weights Tolerance      =       1.00E-15

   => Loading Basis Set <=

    Name: (ANONYMOUSA1F3F32E AUX)
    Role: JKFIT
    Keyword: DF_BASIS_SCF
    atoms 1-3  entry C          line   198 file /opt/psi/4/master/share/psi4/basis/def2-universal-jkfit.gbs 
    atoms 4-11 entry H          line    18 file /opt/psi/4/master/share/psi4/basis/def2-universal-jkfit.gbs 

  ==> Integral Setup <==

  DFHelper Memory: AOs need 0.061 GiB; user supplied 5.538 GiB. Using in-core AOs.

  ==> MemDFJK: Density-Fitted J/K Matrices <==

    J tasked:                   Yes
    K tasked:                   Yes
    wK tasked:                   No
    OpenMP threads:               4
    Memory [MiB]:              5670
    Algorithm:                 Core
    Schwarz Cutoff:           1E-12
    Mask sparsity (%):       0.6150
    Fitting Condition:        1E-10

   => Auxiliary Basis Set <=

  Basis Set: (ANONYMOUSA1F3F32E AUX)
    Blend: DEF2-UNIVERSAL-JKFIT
    Number of shells: 123
    Number of basis function: 369
    Number of Cartesian functions: 427
    Spherical Harmonics?: true
    Max angular momentum: 4

  Cached 100.0% of DFT collocation blocks in 4.241 [GiB].

  Minimum eigenvalue in the overlap matrix is 1.6107803024E-03.
  Reciprocal condition number of the overlap matrix is 2.8697941215E-04.
    Using symmetric orthogonalization.

  ==> Pre-Iterations <==

  SCF Guess: Superposition of Atomic Densities via on-the-fly atomic UHF (no occupation information).

   -------------------------
    Irrep   Nso     Nmo    
   -------------------------
     A'        87      87 
     A"        55      55 
   -------------------------
    Total     142     142
   -------------------------

  ==> Iterations <==

                           Total Energy        Delta E     RMS |[F,P]|

   @DF-RKS iter SAD:  -118.51869575639422   -1.18519e+02   0.00000e+00 
   @DF-RKS iter   1:  -118.82293161720480   -3.04236e-01   7.59256e-03 DIIS
   @DF-RKS iter   2:  -118.65971225958904    1.63219e-01   9.11265e-03 DIIS
   @DF-RKS iter   3:  -119.15522288824737   -4.95511e-01   5.18022e-04 DIIS
   @DF-RKS iter   4:  -119.15637256769472   -1.14968e-03   2.39119e-04 DIIS
   @DF-RKS iter   5:  -119.15664724612689   -2.74678e-04   6.36501e-05 DIIS
   @DF-RKS iter   6:  -119.15666742371738   -2.01776e-05   8.80562e-06 DIIS
   @DF-RKS iter   7:  -119.15666787473187   -4.51014e-07   1.63179e-06 DIIS
   @DF-RKS iter   8:  -119.15666789165404   -1.69222e-08   7.53193e-08 DIIS
   @DF-RKS iter   9:  -119.15666789168986   -3.58256e-11   9.61702e-09 DIIS
   @DF-RKS iter  10:  -119.15666789169056   -6.96332e-13   1.55929e-09 DIIS
   @DF-RKS iter  11:  -119.15666789169039    1.70530e-13   6.18485e-11 DIIS
  Energy and wave function converged.


  ==> Post-Iterations <==

    Orbital Energies [Eh]
    ---------------------

    Doubly Occupied:                                                      

       1Ap   -10.171624     2Ap   -10.163649     3Ap   -10.163618  
       4Ap    -0.777345     5Ap    -0.676175     6Ap    -0.581090  
       1App   -0.453629     7Ap    -0.432871     8Ap    -0.393780  
       2App   -0.376362     9Ap    -0.333984    10Ap    -0.332645  
       3App   -0.324832  

    Virtual:                                                              

      11Ap     0.080592    12Ap     0.132540     4App    0.135625  
      13Ap     0.138130    14Ap     0.158593     5App    0.177360  
      15Ap     0.185254     6App    0.187475    16Ap     0.215490  
      17Ap     0.254779    18Ap     0.402939     7App    0.414343  
      19Ap     0.427377     8App    0.429215    20Ap     0.445490  
       9App    0.467756    21Ap     0.507473    22Ap     0.552176  
      23Ap     0.553599    24Ap     0.563906    10App    0.591806  
      25Ap     0.601817    26Ap     0.613340    11App    0.619939  
      12App    0.622246    13App    0.630635    27Ap     0.639688  
      28Ap     0.661385    29Ap     0.680056    14App    0.799609  
      15App    0.819042    30Ap     0.850631    16App    0.889749  
      17App    0.924403    31Ap     0.972942    32Ap     1.040950  
      33Ap     1.043176    18App    1.061727    34Ap     1.087169  
      19App    1.143069    35Ap     1.162947    36Ap     1.174609  
      20App    1.202791    37Ap     1.261001    38Ap     1.262025  
      21App    1.302457    39Ap     1.305924    40Ap     1.320547  
      22App    1.321690    41Ap     1.405620    42Ap     1.417414  
      23App    1.420310    24App    1.452370    43Ap     1.492483  
      44Ap     1.493920    45Ap     1.517718    25App    1.529997  
      26App    1.542689    46Ap     1.566162    47Ap     1.621803  
      48Ap     1.667701    49Ap     1.779719    27App    1.786462  
      50Ap     1.830894    51Ap     1.881499    28App    2.003950  
      52Ap     2.032362    53Ap     2.124551    29App    2.254074  
      54Ap     2.715257    55Ap     2.749336    30App    2.826920  
      56Ap     2.858701    31App    2.877537    32App    2.906557  
      33App    2.957009    34App    2.961005    57Ap     3.006640  
      35App    3.011636    58Ap     3.051078    59Ap     3.052288  
      36App    3.062082    60Ap     3.206764    37App    3.243479  
      38App    3.348365    61Ap     3.349131    62Ap     3.441962  
      63Ap     3.482226    64Ap     3.503237    65Ap     3.506498  
      39App    3.508578    40App    3.518394    66Ap     3.582116  
      41App    3.649184    67Ap     3.656259    42App    3.658803  
      68Ap     3.664918    69Ap     3.811818    70Ap     3.816031  
      71Ap     3.961483    43App    3.976472    44App    4.016869  
      72Ap     4.095426    73Ap     4.141120    74Ap     4.149404  
      45App    4.163452    75Ap     4.206805    46App    4.252035  
      76Ap     4.262732    77Ap     4.275558    47App    4.337307  
      48App    4.367488    78Ap     4.473214    49App    4.516045  
      50App    4.524158    51App    4.563521    79Ap     4.567006  
      80Ap     4.594659    52App    4.597783    81Ap     4.615283  
      82Ap     4.725059    83Ap     4.935012    84Ap     4.983064  
      85Ap     5.104492    53App    5.236376    86Ap     5.246881  
      87Ap     5.341278    54App    5.352029    55App    5.371822  

    Final Occupation by Irrep:
             Ap   App 
    DOCC [    10,    3 ]

  @DF-RKS Final Energy:  -119.15666789169039

   => Energetics <=

    Nuclear Repulsion Energy =             82.6665741958867528
    One-Electron Energy =                -322.0467082247805024
    Two-Electron Energy =                 135.8499109214512828
    DFT Exchange-Correlation Energy =     -15.6264447842479228
    Empirical Dispersion Energy =           0.0000000000000000
    VV10 Nonlocal Energy =                  0.0000000000000000
    Total Energy =                       -119.1566678916903754

Computation Completed


Properties will be evaluated at   0.000000,   0.000000,   0.000000 [a0]

Properties computed using the SCF density matrix

  Nuclear Dipole Moment: [e a0]
     X:     0.0000      Y:    -0.4657      Z:     0.0000

  Electronic Dipole Moment: [e a0]
     X:    -0.0000      Y:     0.4876      Z:     0.0000

  Dipole Moment: [e a0]
     X:    -0.0000      Y:     0.0219      Z:     0.0000     Total:     0.0219

  Dipole Moment: [D]
     X:    -0.0000      Y:     0.0557      Z:     0.0000     Total:     0.0557


*** tstop() called on n040 at Thu Nov 11 15:36:59 2021
Module time:
	user time   =      98.50 seconds =       1.64 minutes
	system time =       1.10 seconds =       0.02 minutes
	total time  =         26 seconds =       0.43 minutes
Total time:
	user time   =      98.50 seconds =       1.64 minutes
	system time =       1.10 seconds =       0.02 minutes
	total time  =         26 seconds =       0.43 minutes
Grab this energy -119.15666789169039
    Psi4 stopped on: Thursday, 11 November 2021 03:36PM
    Psi4 wall time for execution: 0:00:25.66

*** Psi4 exiting successfully. Buy a developer a beer!
