
    -----------------------------------------------------------------------
          Psi4: An Open-Source Ab Initio Electronic Structure Package
                               Psi4 1.4a2.dev629 

                         Git: Rev {master} 2938fc2 dirty


    D. G. A. Smith, L. A. Burns, A. C. Simmonett, R. M. Parrish,
    M. C. Schieber, R. Galvelis, P. Kraus, H. Kruse, R. Di Remigio,
    A. Alenaizan, A. M. James, S. Lehtola, J. P. Misiewicz, M. Scheurer,
    R. A. Shaw, J. B. Schriber, Y. Xie, Z. L. Glick, D. A. Sirianni,
    J. S. O'Brien, J. M. Waldrop, A. Kumar, E. G. Hohenstein,
    B. P. Pritchard, B. R. Brooks, H. F. Schaefer III, A. Yu. Sokolov,
    K. Patkowski, A. E. DePrince III, U. Bozkaya, R. A. King,
    F. A. Evangelista, J. M. Turney, T. D. Crawford, C. D. Sherrill,
    J. Chem. Phys. 152(18) 184108 (2020). https://doi.org/10.1063/5.0006002

                            Additional Code Authors
    E. T. Seidl, C. L. Janssen, E. F. Valeev, M. L. Leininger,
    J. F. Gonthier, R. M. Richard, H. R. McAlexander, M. Saitow, X. Wang,
    P. Verma, and M. H. Lechner

             Previous Authors, Complete List of Code Contributors,
                       and Citations for Specific Modules
    https://github.com/psi4/psi4/blob/master/codemeta.json
    https://github.com/psi4/psi4/graphs/contributors
    http://psicode.org/psi4manual/master/introduction.html#citing-psifour

    -----------------------------------------------------------------------


    Psi4 started on: Thursday, 11 November 2021 03:34PM

    Process ID: 3448
    Host:       n035
    PSIDATADIR: /opt/psi/4/master/share/psi4
    Memory:     500.0 MiB
    Threads:    4
    
  ==> Input File <==

--------------------------------------------------------------------------
import os
memory 14 GB 
 
molecule {
 C    0.0013387677   -2.3961341705    0.5112582095
 C    0.0008002860   -0.0000000001   -1.1010013866
 C    0.0013387827    2.3961342105    0.5112581596
 H    0.0029130912   -4.1037338708   -0.6513084406
 H   -1.6689717207   -2.4557067849    1.7302130705
 H    1.6652862868   -2.4580218382    1.7251270173
 H    1.6528015822   -0.0000002983   -2.3345995433
 H   -1.6547347281   -0.0000003415   -2.3378693941
 H    0.0029131428    4.1037338909   -0.6513085204
 H    1.6652862587    2.4580219093    1.7251269493
 H   -1.6689717493    2.4557068335    1.7302130389
units bohr
}

basis {

assign 6-31g_2dfp_

[ 6-31g_2dfp_ ]

spherical

!----------------------------------------------------------------------
! Basis Set Exchange
! Version v0.8.13
! https://www.basissetexchange.org
!----------------------------------------------------------------------
!   Basis set: 6-31G(2df,p)
! Description: 6-31G(2df,p)
!        Role: orbital
!     Version: 0  (Data from the original Basis Set Exchange)
!----------------------------------------------------------------------


****
H     0
S    3   1.00
     18.7311370              0.03349460
      2.8253937              0.23472695
      0.6401217              0.81375733
S    1   1.00
      0.1612778              1.00000000
P    1   1.00
      1.5000000              1.0000000
P    1   1.00
      0.3750000              1.0000000
****
B     0
S    6   1.00
   2068.8823000              0.0018663
    310.6495700              0.0142515
     70.6830330              0.0695516
     19.8610800              0.2325729
      6.2993048              0.4670787
      2.1270270              0.3634314
SP   3   1.00
      4.7279710             -0.1303938              0.0745976
      1.1903377             -0.1307889              0.3078467
      0.3594117              1.1309444              0.7434568
SP   1   1.00
      0.1267512              1.0000000              1.0000000
D    1   1.00
      0.8020000              1.0000000
D    1   1.00
      0.2005000              1.0000000
F    1   1.00
      0.5000000              1.0000000
****
C     0
S    6   1.00
   3047.5249000              0.0018347
    457.3695100              0.0140373
    103.9486900              0.0688426
     29.2101550              0.2321844
      9.2866630              0.4679413
      3.1639270              0.3623120
SP   3   1.00
      7.8682724             -0.1193324              0.0689991
      1.8812885             -0.1608542              0.3164240
      0.5442493              1.1434564              0.7443083
SP   1   1.00
      0.1687144              1.0000000              1.0000000
D    1   1.00
      1.2520000              1.0000000
D    1   1.00
      0.3130000              1.0000000
F    1   1.00
      0.8000000              1.0000000
****
N     0
S    6   1.00
   4173.5110000              0.0018348
    627.4579000              0.0139950
    142.9021000              0.0685870
     40.2343300              0.2322410
     12.8202100              0.4690700
      4.3904370              0.3604550
SP   3   1.00
     11.6263580             -0.1149610              0.0675800
      2.7162800             -0.1691180              0.3239070
      0.7722180              1.1458520              0.7408950
SP   1   1.00
      0.2120313              1.0000000              1.0000000
D    1   1.00
      1.8260000              1.0000000
D    1   1.00
      0.4565000              1.0000000
F    1   1.00
      1.0000000              1.0000000
****
O     0
S    6   1.00
   5484.6717000              0.0018311
    825.2349500              0.0139501
    188.0469600              0.0684451
     52.9645000              0.2327143
     16.8975700              0.4701930
      5.7996353              0.3585209
SP   3   1.00
     15.5396160             -0.1107775              0.0708743
      3.5999336             -0.1480263              0.3397528
      1.0137618              1.1307670              0.7271586
SP   1   1.00
      0.2700058              1.0000000              1.0000000
D    1   1.00
      2.5840000              1.0000000
D    1   1.00
      0.6460000              1.0000000
F    1   1.00
      1.4000000              1.0000000
****
F     0
S    6   1.00
   7001.7130900              0.0018196169
   1051.3660900              0.0139160796
    239.2856900              0.0684053245
     67.3974453              0.233185760
     21.5199573              0.471267439
      7.40310130             0.356618546
SP   3   1.00
     20.8479528             -0.108506975            0.0716287243
      4.80830834            -0.146451658            0.3459121030
      1.34406986             1.128688580            0.7224699570
SP   1   1.00
      0.358151393            1.0000000              1.0000000
D    1   1.00
      3.5000000              1.0000000
D    1   1.00
      0.8750000              1.0000000
F    1   1.00
      1.8500000              1.0000000
****
Al     0
S    6   1.00
  13983.1000000              0.00194267
   2098.7500000              0.0148599
    477.7050000              0.0728494
    134.3600000              0.2468300
     42.8709000              0.4872580
     14.5189000              0.3234960
SP   6   1.00
    239.6680000             -0.00292619             0.00460285
     57.4419000             -0.0374080              0.0331990
     18.2859000             -0.1144870              0.1362820
      6.5991400              0.1156350              0.3304760
      2.4904900              0.6125950              0.4491460
      0.9445400              0.3937990              0.2657040
SP   3   1.00
      1.2779000             -0.2276060             -0.0175130
      0.3975900              0.00144583             0.2445330
      0.1600950              1.0927900              0.8049340
SP   1   1.00
      0.0556577              1.0000000              1.0000000
D    1   1.00
      0.6500000              1.0000000
D    1   1.00
      0.1625000              1.0000000
F    1   1.00
      0.2500000              1.0000000
****
Si     0
S    6   1.00
  16115.9000000              0.00195948
   2425.5800000              0.01492880
    553.8670000              0.07284780
    156.3400000              0.24613000
     50.0683000              0.48591400
     17.0178000              0.32500200
SP   6   1.00
    292.7180000             -0.00278094             0.00443826
     69.8731000             -0.03571460             0.03266790
     22.3363000             -0.11498500             0.13472100
      8.1503900              0.09356340             0.32867800
      3.1345800              0.60301700             0.44964000
      1.2254300              0.41895900             0.26137200
SP   3   1.00
      1.7273800             -0.24463000            -0.01779510
      0.5729220              0.00431572             0.25353900
      0.2221920              1.09818000             0.80066900
SP   1   1.00
      0.0778369              1.00000000             1.00000000
D    1   1.00
      0.9000000              1.0000000
D    1   1.00
      0.2250000              1.0000000
F    1   1.00
      0.3200000              1.0000000
****
P     0
S    6   1.00
  19413.3000000              0.0018516
   2909.4200000              0.0142062
    661.3640000              0.0699995
    185.7590000              0.2400790
     59.1943000              0.4847620
     20.0310000              0.3352000
SP   6   1.00
    339.4780000             -0.00278217             0.00456462
     81.0101000             -0.0360499              0.03369360
     25.8780000             -0.1166310              0.13975500
      9.4522100              0.0968328              0.33936200
      3.6656600              0.6144180              0.45092100
      1.4674600              0.4037980              0.23858600
SP   3   1.00
      2.1562300             -0.2529230             -0.01776530
      0.7489970              0.0328517              0.27405800
      0.2831450              1.0812500              0.78542100
SP   1   1.00
      0.0998317              1.0000000              1.00000000
D    1   1.00
      1.1000000              1.0000000
D    1   1.00
      0.2750000              1.0000000
F    1   1.00
      0.4500000              1.0000000
****
S     0
S    6   1.00
  21917.1000000              0.0018690
   3301.4900000              0.0142300
    754.1460000              0.0696960
    212.7110000              0.2384870
     67.9896000              0.4833070
     23.0515000              0.3380740
SP   6   1.00
    423.7350000             -0.0023767              0.0040610
    100.7100000             -0.0316930              0.0306810
     32.1599000             -0.1133170              0.1304520
     11.8079000              0.0560900              0.3272050
      4.6311000              0.5922550              0.4528510
      1.8702500              0.4550060              0.2560420
SP   3   1.00
      2.6158400             -0.2503740             -0.0145110
      0.9221670              0.0669570              0.3102630
      0.3412870              1.0545100              0.7544830
SP   1   1.00
      0.1171670              1.0000000              1.0000000
D    1   1.00
      1.3000000              1.0000000
D    1   1.00
      0.3250000              1.0000000
F    1   1.00
      0.5500000              1.0000000
****
Cl     0
S    6   1.00
  25180.1000000              0.0018330
   3780.3500000              0.0140340
    860.4740000              0.0690970
    242.1450000              0.2374520
     77.3349000              0.4830340
     26.2470000              0.3398560
SP   6   1.00
    491.7650000             -0.0022974              0.0039894
    116.9840000             -0.0307140              0.0303180
     37.4153000             -0.1125280              0.1298800
     13.7834000              0.0450160              0.3279510
      5.4521500              0.5893530              0.4535270
      2.2258800              0.4652060              0.2521540
SP   3   1.00
      3.1864900             -0.2518300             -0.0142990
      1.1442700              0.0615890              0.3235720
      0.4203770              1.0601800              0.7435070
SP   1   1.00
      0.1426570              1.0000000              1.0000000
D    1   1.00
      1.5000000              1.0000000
D    1   1.00
      0.3750000              1.0000000
F    1   1.00
      0.7000000              1.0000000
****
}


set {
reference rhf                          
freeze_core true
e_convergence 10                       
d_convergence 10                      
dft_spherical_points 1202
dft_radial_points 99
}

e = energy('b3lyp')

print_out('Grab this energy {0}'.format(e))
--------------------------------------------------------------------------

  Memory set to  13.039 GiB by Python driver.

Scratch directory: /tmp/

*** tstart() called on n035
*** at Thu Nov 11 15:34:37 2021

   => Loading Basis Set <=

    Name: ANONYMOUS3C2605EA
    Role: ORBITAL
    Keyword: BASIS
    atoms 1-3  entry C          line    48 inputblock 6-31g_2dfp_ 
    atoms 4-11 entry H          line    15 inputblock 6-31g_2dfp_ 


         ---------------------------------------------------------
                                   SCF
               by Justin Turney, Rob Parrish, Andy Simmonett
                          and Daniel G. A. Smith
                              RKS Reference
                        4 Threads,  13351 MiB Core
         ---------------------------------------------------------

  ==> Geometry <==

    Molecular point group: c1
    Full point group: C1

    Geometry (in Bohr), charge = 0, multiplicity = 1:

       Center              X                  Y                   Z               Mass       
    ------------   -----------------  -----------------  -----------------  -----------------
         C            0.000471161476    -2.396134169930     0.511233357989    12.000000000000
         C           -0.000067320224     0.000000000470    -1.101026238111    12.000000000000
         C            0.000471176476     2.396134211070     0.511233308089    12.000000000000
         H            0.002045484976    -4.103733870230    -0.651333292111     1.007825032230
         H           -1.669839326924    -2.455706784330     1.730188218989     1.007825032230
         H            1.664418680576    -2.458021837630     1.725102165789     1.007825032230
         H            1.651933975976    -0.000000297730    -2.334624394811     1.007825032230
         H           -1.655602334324    -0.000000340930    -2.337894245611     1.007825032230
         H            0.002045536576     4.103733891470    -0.651333371911     1.007825032230
         H            1.664418652476     2.458021909870     1.725102097789     1.007825032230
         H           -1.669839355524     2.455706834070     1.730188187389     1.007825032230

  Running in c1 symmetry.

  Rotational constants: A =      0.98004  B =      0.28291  C =      0.25002 [cm^-1]
  Rotational constants: A =  29380.74530  B =   8481.30475  C =   7495.31772 [MHz]
  Nuclear repulsion =   82.610811673033567

  Charge       = 0
  Multiplicity = 1
  Electrons    = 26
  Nalpha       = 13
  Nbeta        = 13

  ==> Algorithm <==

  SCF Algorithm Type is DF.
  DIIS enabled.
  MOM disabled.
  Fractional occupation disabled.
  Guess Type is SAD.
  Energy threshold   = 1.00e-10
  Density threshold  = 1.00e-10
  Integral threshold = 0.00e+00

  ==> Primary Basis <==

  Basis Set: ANONYMOUS3C2605EA
    Blend: 6-31G_2DFP_
    Number of shells: 56
    Number of basis function: 142
    Number of Cartesian functions: 157
    Spherical Harmonics?: true
    Max angular momentum: 3

  ==> DFT Potential <==

   => Composite Functional: B3LYP <= 

    B3LYP Hyb-GGA Exchange-Correlation Functional

    P. J. Stephens, F. J. Devlin, C. F. Chabalowski, and M. J. Frisch, J. Phys. Chem. 98, 11623 (1994)

    Deriv               =              1
    GGA                 =           TRUE
    Meta                =          FALSE

    Exchange Hybrid     =           TRUE
    MP2 Hybrid          =          FALSE

   => Exchange Functionals <=

    0.0800   Slater exchange
    0.7200         Becke 88

   => Exact (HF) Exchange <=

    0.2000               HF 

   => Correlation Functionals <=

    0.1900   Vosko, Wilk & Nusair (VWN5_RPA)
    0.8100   Lee, Yang & Parr

   => Molecular Quadrature <=

    Radial Scheme          =       TREUTLER
    Pruning Scheme         =           NONE
    Nuclear Scheme         =       TREUTLER

    BS radius alpha        =              1
    Pruning alpha          =              1
    Radial Points          =             99
    Spherical Points       =           1202
    Total Points           =        1226303
    Total Blocks           =           8195
    Max Points             =            256
    Max Functions          =            142
    Weights Tolerance      =       1.00E-15

   => Loading Basis Set <=

    Name: (ANONYMOUS3C2605EA AUX)
    Role: JKFIT
    Keyword: DF_BASIS_SCF
    atoms 1-3  entry C          line   198 file /opt/psi/4/master/share/psi4/basis/def2-universal-jkfit.gbs 
    atoms 4-11 entry H          line    18 file /opt/psi/4/master/share/psi4/basis/def2-universal-jkfit.gbs 

  ==> Integral Setup <==

  DFHelper Memory: AOs need 0.061 GiB; user supplied 5.531 GiB. Using in-core AOs.

  ==> MemDFJK: Density-Fitted J/K Matrices <==

    J tasked:                   Yes
    K tasked:                   Yes
    wK tasked:                   No
    OpenMP threads:               4
    Memory [MiB]:              5663
    Algorithm:                 Core
    Schwarz Cutoff:           1E-12
    Mask sparsity (%):       0.6546
    Fitting Condition:        1E-10

   => Auxiliary Basis Set <=

  Basis Set: (ANONYMOUS3C2605EA AUX)
    Blend: DEF2-UNIVERSAL-JKFIT
    Number of shells: 123
    Number of basis function: 369
    Number of Cartesian functions: 427
    Spherical Harmonics?: true
    Max angular momentum: 4

  Cached 100.0% of DFT collocation blocks in 4.248 [GiB].

  Minimum eigenvalue in the overlap matrix is 1.6182765617E-03.
  Reciprocal condition number of the overlap matrix is 2.6581954040E-04.
    Using symmetric orthogonalization.

  ==> Pre-Iterations <==

  SCF Guess: Superposition of Atomic Densities via on-the-fly atomic UHF (no occupation information).

   -------------------------
    Irrep   Nso     Nmo    
   -------------------------
     A        142     142 
   -------------------------
    Total     142     142
   -------------------------

  ==> Iterations <==

                           Total Energy        Delta E     RMS |[F,P]|

   @DF-RKS iter SAD:  -118.51629970229861   -1.18516e+02   0.00000e+00 
   @DF-RKS iter   1:  -118.82360780897091   -3.07308e-01   5.49715e-03 DIIS
   @DF-RKS iter   2:  -118.66217692279207    1.61431e-01   6.58845e-03 DIIS
   @DF-RKS iter   3:  -119.15523602030201   -4.93059e-01   3.74683e-04 DIIS
   @DF-RKS iter   4:  -119.15638059189409   -1.14457e-03   1.73260e-04 DIIS
   @DF-RKS iter   5:  -119.15665533706266   -2.74745e-04   4.59915e-05 DIIS
   @DF-RKS iter   6:  -119.15667538754964   -2.00505e-05   6.34548e-06 DIIS
   @DF-RKS iter   7:  -119.15667583327362   -4.45724e-07   1.17941e-06 DIIS
   @DF-RKS iter   8:  -119.15667585009206   -1.68184e-08   5.43806e-08 DIIS
   @DF-RKS iter   9:  -119.15667585012818   -3.61240e-11   7.04802e-09 DIIS
   @DF-RKS iter  10:  -119.15667585012859   -4.12115e-13   1.25506e-09 DIIS
   @DF-RKS iter  11:  -119.15667585012842    1.70530e-13   2.71565e-10 DIIS
   @DF-RKS iter  12:  -119.15667585012856   -1.42109e-13   4.56191e-11 DIIS
  Energy and wave function converged.


  ==> Post-Iterations <==

    Orbital Energies [Eh]
    ---------------------

    Doubly Occupied:                                                      

       1A    -10.171481     2A    -10.163797     3A    -10.163766  
       4A     -0.776966     5A     -0.676334     6A     -0.581091  
       7A     -0.453816     8A     -0.432645     9A     -0.393238  
      10A     -0.376744    11A     -0.333507    12A     -0.332934  
      13A     -0.325104  

    Virtual:                                                              

      14A      0.080557    15A      0.132420    16A      0.136030  
      17A      0.138686    18A      0.158434    19A      0.177322  
      20A      0.185052    21A      0.187235    22A      0.214932  
      23A      0.254701    24A      0.402553    25A      0.414179  
      26A      0.427763    27A      0.429048    28A      0.445703  
      29A      0.468111    30A      0.507054    31A      0.553331  
      32A      0.553556    33A      0.563428    34A      0.590477  
      35A      0.601662    36A      0.612941    37A      0.619966  
      38A      0.622548    39A      0.631118    40A      0.639516  
      41A      0.661325    42A      0.680336    43A      0.800544  
      44A      0.818606    45A      0.849572    46A      0.890026  
      47A      0.923361    48A      0.972767    49A      1.040985  
      50A      1.043179    51A      1.059704    52A      1.086473  
      53A      1.143375    54A      1.163413    55A      1.177569  
      56A      1.203928    57A      1.259178    58A      1.261881  
      59A      1.301560    60A      1.305628    61A      1.319100  
      62A      1.321847    63A      1.404558    64A      1.416895  
      65A      1.419224    66A      1.454012    67A      1.492551  
      68A      1.494563    69A      1.516364    70A      1.532299  
      71A      1.541862    72A      1.564116    73A      1.623209  
      74A      1.666133    75A      1.778994    76A      1.788039  
      77A      1.830977    78A      1.881844    79A      2.001047  
      80A      2.028375    81A      2.125501    82A      2.254733  
      83A      2.714768    84A      2.749692    85A      2.828274  
      86A      2.856499    87A      2.878261    88A      2.907266  
      89A      2.956142    90A      2.960549    91A      3.008533  
      92A      3.010750    93A      3.051112    94A      3.053548  
      95A      3.061909    96A      3.203985    97A      3.242737  
      98A      3.346463    99A      3.347056   100A      3.440645  
     101A      3.486369   102A      3.500114   103A      3.504781  
     104A      3.507651   105A      3.522577   106A      3.580181  
     107A      3.650781   108A      3.656087   109A      3.656722  
     110A      3.663364   111A      3.811507   112A      3.815579  
     113A      3.963228   114A      3.978351   115A      4.020544  
     116A      4.094966   117A      4.136512   118A      4.148482  
     119A      4.165367   120A      4.204289   121A      4.251777  
     122A      4.263129   123A      4.273359   124A      4.334142  
     125A      4.366289   126A      4.473680   127A      4.517906  
     128A      4.520753   129A      4.562384   130A      4.566459  
     131A      4.593821   132A      4.599565   133A      4.618298  
     134A      4.721672   135A      4.934225   136A      4.982173  
     137A      5.107563   138A      5.233812   139A      5.249393  
     140A      5.341324   141A      5.349737   142A      5.372689  

    Final Occupation by Irrep:
              A 
    DOCC [    13 ]

  @DF-RKS Final Energy:  -119.15667585012856

   => Energetics <=

    Nuclear Repulsion Energy =             82.6108116730335666
    One-Electron Energy =                -321.9356742282632808
    Two-Electron Energy =                 135.7944371496197675
    DFT Exchange-Correlation Energy =     -15.6262504445186199
    Empirical Dispersion Energy =           0.0000000000000000
    VV10 Nonlocal Energy =                  0.0000000000000000
    Total Energy =                       -119.1566758501285648

Computation Completed


Properties will be evaluated at   0.000000,   0.000000,   0.000000 [a0]

Properties computed using the SCF density matrix

  Nuclear Dipole Moment: [e a0]
     X:    -0.0052      Y:    -0.0000      Z:     0.4640

  Electronic Dipole Moment: [e a0]
     X:     0.0081      Y:     0.0000      Z:    -0.4872

  Dipole Moment: [e a0]
     X:     0.0029      Y:     0.0000      Z:    -0.0231     Total:     0.0233

  Dipole Moment: [D]
     X:     0.0074      Y:     0.0000      Z:    -0.0588     Total:     0.0592


*** tstop() called on n035 at Thu Nov 11 15:35:01 2021
Module time:
	user time   =      91.83 seconds =       1.53 minutes
	system time =       0.96 seconds =       0.02 minutes
	total time  =         24 seconds =       0.40 minutes
Total time:
	user time   =      91.83 seconds =       1.53 minutes
	system time =       0.96 seconds =       0.02 minutes
	total time  =         24 seconds =       0.40 minutes
Grab this energy -119.15667585012856
    Psi4 stopped on: Thursday, 11 November 2021 03:35PM
    Psi4 wall time for execution: 0:00:23.93

*** Psi4 exiting successfully. Buy a developer a beer!
