
    -----------------------------------------------------------------------
          Psi4: An Open-Source Ab Initio Electronic Structure Package
                               Psi4 1.4a2.dev629 

                         Git: Rev {master} 2938fc2 dirty


    D. G. A. Smith, L. A. Burns, A. C. Simmonett, R. M. Parrish,
    M. C. Schieber, R. Galvelis, P. Kraus, H. Kruse, R. Di Remigio,
    A. Alenaizan, A. M. James, S. Lehtola, J. P. Misiewicz, M. Scheurer,
    R. A. Shaw, J. B. Schriber, Y. Xie, Z. L. Glick, D. A. Sirianni,
    J. S. O'Brien, J. M. Waldrop, A. Kumar, E. G. Hohenstein,
    B. P. Pritchard, B. R. Brooks, H. F. Schaefer III, A. Yu. Sokolov,
    K. Patkowski, A. E. DePrince III, U. Bozkaya, R. A. King,
    F. A. Evangelista, J. M. Turney, T. D. Crawford, C. D. Sherrill,
    J. Chem. Phys. 152(18) 184108 (2020). https://doi.org/10.1063/5.0006002

                            Additional Code Authors
    E. T. Seidl, C. L. Janssen, E. F. Valeev, M. L. Leininger,
    J. F. Gonthier, R. M. Richard, H. R. McAlexander, M. Saitow, X. Wang,
    P. Verma, and M. H. Lechner

             Previous Authors, Complete List of Code Contributors,
                       and Citations for Specific Modules
    https://github.com/psi4/psi4/blob/master/codemeta.json
    https://github.com/psi4/psi4/graphs/contributors
    http://psicode.org/psi4manual/master/introduction.html#citing-psifour

    -----------------------------------------------------------------------


    Psi4 started on: Thursday, 11 November 2021 03:35PM

    Process ID: 25263
    Host:       n062
    PSIDATADIR: /opt/psi/4/master/share/psi4
    Memory:     500.0 MiB
    Threads:    4
    
  ==> Input File <==

--------------------------------------------------------------------------
import os
memory 14 GB 
 
molecule {
 C    0.0000000000   -2.3965808205    0.5107713154
 C    0.0000000000    0.0000000001   -1.1017169324
 C    0.0000000000    2.3965808604    0.5107712655
 H    0.0000000000   -4.0975404877   -0.6500044056
 H   -1.6702750269   -2.4589579721    1.7290774669
 H    1.6702750269   -2.4589579721    1.7290774669
 H    1.6573927225   -0.0000003200   -2.3395086824
 H   -1.6573927225   -0.0000003200   -2.3395086824
 H    0.0000000000    4.0975405080   -0.6500044860
 H    1.6702750265    2.4589580319    1.7290774171
 H   -1.6702750265    2.4589580319    1.7290774171
units bohr
}

basis {

assign 6-31g_2dfp_

[ 6-31g_2dfp_ ]

spherical

!----------------------------------------------------------------------
! Basis Set Exchange
! Version v0.8.13
! https://www.basissetexchange.org
!----------------------------------------------------------------------
!   Basis set: 6-31G(2df,p)
! Description: 6-31G(2df,p)
!        Role: orbital
!     Version: 0  (Data from the original Basis Set Exchange)
!----------------------------------------------------------------------


****
H     0
S    3   1.00
     18.7311370              0.03349460
      2.8253937              0.23472695
      0.6401217              0.81375733
S    1   1.00
      0.1612778              1.00000000
P    1   1.00
      1.5000000              1.0000000
P    1   1.00
      0.3750000              1.0000000
****
B     0
S    6   1.00
   2068.8823000              0.0018663
    310.6495700              0.0142515
     70.6830330              0.0695516
     19.8610800              0.2325729
      6.2993048              0.4670787
      2.1270270              0.3634314
SP   3   1.00
      4.7279710             -0.1303938              0.0745976
      1.1903377             -0.1307889              0.3078467
      0.3594117              1.1309444              0.7434568
SP   1   1.00
      0.1267512              1.0000000              1.0000000
D    1   1.00
      0.8020000              1.0000000
D    1   1.00
      0.2005000              1.0000000
F    1   1.00
      0.5000000              1.0000000
****
C     0
S    6   1.00
   3047.5249000              0.0018347
    457.3695100              0.0140373
    103.9486900              0.0688426
     29.2101550              0.2321844
      9.2866630              0.4679413
      3.1639270              0.3623120
SP   3   1.00
      7.8682724             -0.1193324              0.0689991
      1.8812885             -0.1608542              0.3164240
      0.5442493              1.1434564              0.7443083
SP   1   1.00
      0.1687144              1.0000000              1.0000000
D    1   1.00
      1.2520000              1.0000000
D    1   1.00
      0.3130000              1.0000000
F    1   1.00
      0.8000000              1.0000000
****
N     0
S    6   1.00
   4173.5110000              0.0018348
    627.4579000              0.0139950
    142.9021000              0.0685870
     40.2343300              0.2322410
     12.8202100              0.4690700
      4.3904370              0.3604550
SP   3   1.00
     11.6263580             -0.1149610              0.0675800
      2.7162800             -0.1691180              0.3239070
      0.7722180              1.1458520              0.7408950
SP   1   1.00
      0.2120313              1.0000000              1.0000000
D    1   1.00
      1.8260000              1.0000000
D    1   1.00
      0.4565000              1.0000000
F    1   1.00
      1.0000000              1.0000000
****
O     0
S    6   1.00
   5484.6717000              0.0018311
    825.2349500              0.0139501
    188.0469600              0.0684451
     52.9645000              0.2327143
     16.8975700              0.4701930
      5.7996353              0.3585209
SP   3   1.00
     15.5396160             -0.1107775              0.0708743
      3.5999336             -0.1480263              0.3397528
      1.0137618              1.1307670              0.7271586
SP   1   1.00
      0.2700058              1.0000000              1.0000000
D    1   1.00
      2.5840000              1.0000000
D    1   1.00
      0.6460000              1.0000000
F    1   1.00
      1.4000000              1.0000000
****
F     0
S    6   1.00
   7001.7130900              0.0018196169
   1051.3660900              0.0139160796
    239.2856900              0.0684053245
     67.3974453              0.233185760
     21.5199573              0.471267439
      7.40310130             0.356618546
SP   3   1.00
     20.8479528             -0.108506975            0.0716287243
      4.80830834            -0.146451658            0.3459121030
      1.34406986             1.128688580            0.7224699570
SP   1   1.00
      0.358151393            1.0000000              1.0000000
D    1   1.00
      3.5000000              1.0000000
D    1   1.00
      0.8750000              1.0000000
F    1   1.00
      1.8500000              1.0000000
****
Al     0
S    6   1.00
  13983.1000000              0.00194267
   2098.7500000              0.0148599
    477.7050000              0.0728494
    134.3600000              0.2468300
     42.8709000              0.4872580
     14.5189000              0.3234960
SP   6   1.00
    239.6680000             -0.00292619             0.00460285
     57.4419000             -0.0374080              0.0331990
     18.2859000             -0.1144870              0.1362820
      6.5991400              0.1156350              0.3304760
      2.4904900              0.6125950              0.4491460
      0.9445400              0.3937990              0.2657040
SP   3   1.00
      1.2779000             -0.2276060             -0.0175130
      0.3975900              0.00144583             0.2445330
      0.1600950              1.0927900              0.8049340
SP   1   1.00
      0.0556577              1.0000000              1.0000000
D    1   1.00
      0.6500000              1.0000000
D    1   1.00
      0.1625000              1.0000000
F    1   1.00
      0.2500000              1.0000000
****
Si     0
S    6   1.00
  16115.9000000              0.00195948
   2425.5800000              0.01492880
    553.8670000              0.07284780
    156.3400000              0.24613000
     50.0683000              0.48591400
     17.0178000              0.32500200
SP   6   1.00
    292.7180000             -0.00278094             0.00443826
     69.8731000             -0.03571460             0.03266790
     22.3363000             -0.11498500             0.13472100
      8.1503900              0.09356340             0.32867800
      3.1345800              0.60301700             0.44964000
      1.2254300              0.41895900             0.26137200
SP   3   1.00
      1.7273800             -0.24463000            -0.01779510
      0.5729220              0.00431572             0.25353900
      0.2221920              1.09818000             0.80066900
SP   1   1.00
      0.0778369              1.00000000             1.00000000
D    1   1.00
      0.9000000              1.0000000
D    1   1.00
      0.2250000              1.0000000
F    1   1.00
      0.3200000              1.0000000
****
P     0
S    6   1.00
  19413.3000000              0.0018516
   2909.4200000              0.0142062
    661.3640000              0.0699995
    185.7590000              0.2400790
     59.1943000              0.4847620
     20.0310000              0.3352000
SP   6   1.00
    339.4780000             -0.00278217             0.00456462
     81.0101000             -0.0360499              0.03369360
     25.8780000             -0.1166310              0.13975500
      9.4522100              0.0968328              0.33936200
      3.6656600              0.6144180              0.45092100
      1.4674600              0.4037980              0.23858600
SP   3   1.00
      2.1562300             -0.2529230             -0.01776530
      0.7489970              0.0328517              0.27405800
      0.2831450              1.0812500              0.78542100
SP   1   1.00
      0.0998317              1.0000000              1.00000000
D    1   1.00
      1.1000000              1.0000000
D    1   1.00
      0.2750000              1.0000000
F    1   1.00
      0.4500000              1.0000000
****
S     0
S    6   1.00
  21917.1000000              0.0018690
   3301.4900000              0.0142300
    754.1460000              0.0696960
    212.7110000              0.2384870
     67.9896000              0.4833070
     23.0515000              0.3380740
SP   6   1.00
    423.7350000             -0.0023767              0.0040610
    100.7100000             -0.0316930              0.0306810
     32.1599000             -0.1133170              0.1304520
     11.8079000              0.0560900              0.3272050
      4.6311000              0.5922550              0.4528510
      1.8702500              0.4550060              0.2560420
SP   3   1.00
      2.6158400             -0.2503740             -0.0145110
      0.9221670              0.0669570              0.3102630
      0.3412870              1.0545100              0.7544830
SP   1   1.00
      0.1171670              1.0000000              1.0000000
D    1   1.00
      1.3000000              1.0000000
D    1   1.00
      0.3250000              1.0000000
F    1   1.00
      0.5500000              1.0000000
****
Cl     0
S    6   1.00
  25180.1000000              0.0018330
   3780.3500000              0.0140340
    860.4740000              0.0690970
    242.1450000              0.2374520
     77.3349000              0.4830340
     26.2470000              0.3398560
SP   6   1.00
    491.7650000             -0.0022974              0.0039894
    116.9840000             -0.0307140              0.0303180
     37.4153000             -0.1125280              0.1298800
     13.7834000              0.0450160              0.3279510
      5.4521500              0.5893530              0.4535270
      2.2258800              0.4652060              0.2521540
SP   3   1.00
      3.1864900             -0.2518300             -0.0142990
      1.1442700              0.0615890              0.3235720
      0.4203770              1.0601800              0.7435070
SP   1   1.00
      0.1426570              1.0000000              1.0000000
D    1   1.00
      1.5000000              1.0000000
D    1   1.00
      0.3750000              1.0000000
F    1   1.00
      0.7000000              1.0000000
****
}


set {
reference rhf                          
freeze_core true
e_convergence 10                       
d_convergence 10                      
dft_spherical_points 1202
dft_radial_points 99
}

e = energy('b3lyp')

print_out('Grab this energy {0}'.format(e))
--------------------------------------------------------------------------

  Memory set to  13.039 GiB by Python driver.

Scratch directory: /tmp/

*** tstart() called on n062
*** at Thu Nov 11 15:35:18 2021

   => Loading Basis Set <=

    Name: ANONYMOUS39F0398B
    Role: ORBITAL
    Keyword: BASIS
    atoms 1-3  entry C          line    48 inputblock 6-31g_2dfp_ 
    atoms 4-11 entry H          line    15 inputblock 6-31g_2dfp_ 


         ---------------------------------------------------------
                                   SCF
               by Justin Turney, Rob Parrish, Andy Simmonett
                          and Daniel G. A. Smith
                              RKS Reference
                        4 Threads,  13351 MiB Core
         ---------------------------------------------------------

  ==> Geometry <==

    Molecular point group: cs
    Full point group: Cs

    Geometry (in Bohr), charge = 0, multiplicity = 1:

       Center              X                  Y                   Z               Mass       
    ------------   -----------------  -----------------  -----------------  -----------------
         C            2.396580819955    -0.511167897368     0.000000000000    12.000000000000
         C           -0.000000000645     1.101320350432     0.000000000000    12.000000000000
         C           -2.396580860945    -0.511167847468     0.000000000000    12.000000000000
         H            4.097540487155     0.649607823632     0.000000000000     1.007825032230
         H            2.458957971555    -1.729474048868    -1.670275026900     1.007825032230
         H            2.458957971555    -1.729474048868     1.670275026900     1.007825032230
         H            0.000000319455     2.339112100432     1.657392722500     1.007825032230
         H            0.000000319455     2.339112100432    -1.657392722500     1.007825032230
         H           -4.097540508545     0.649607904032     0.000000000000     1.007825032230
         H           -2.458958032445    -1.729473999068     1.670275026500     1.007825032230
         H           -2.458958032445    -1.729473999068    -1.670275026500     1.007825032230

  Running in cs symmetry.

  Rotational constants: A =      0.97812  B =      0.28283  C =      0.24997 [cm^-1]
  Rotational constants: A =  29323.24517  B =   8479.03516  C =   7493.93428 [MHz]
  Nuclear repulsion =   82.578985267517339

  Charge       = 0
  Multiplicity = 1
  Electrons    = 26
  Nalpha       = 13
  Nbeta        = 13

  ==> Algorithm <==

  SCF Algorithm Type is DF.
  DIIS enabled.
  MOM disabled.
  Fractional occupation disabled.
  Guess Type is SAD.
  Energy threshold   = 1.00e-10
  Density threshold  = 1.00e-10
  Integral threshold = 0.00e+00

  ==> Primary Basis <==

  Basis Set: ANONYMOUS39F0398B
    Blend: 6-31G_2DFP_
    Number of shells: 56
    Number of basis function: 142
    Number of Cartesian functions: 157
    Spherical Harmonics?: true
    Max angular momentum: 3

  ==> DFT Potential <==

   => Composite Functional: B3LYP <= 

    B3LYP Hyb-GGA Exchange-Correlation Functional

    P. J. Stephens, F. J. Devlin, C. F. Chabalowski, and M. J. Frisch, J. Phys. Chem. 98, 11623 (1994)

    Deriv               =              1
    GGA                 =           TRUE
    Meta                =          FALSE

    Exchange Hybrid     =           TRUE
    MP2 Hybrid          =          FALSE

   => Exchange Functionals <=

    0.0800   Slater exchange
    0.7200         Becke 88

   => Exact (HF) Exchange <=

    0.2000               HF 

   => Correlation Functionals <=

    0.1900   Vosko, Wilk & Nusair (VWN5_RPA)
    0.8100   Lee, Yang & Parr

   => Molecular Quadrature <=

    Radial Scheme          =       TREUTLER
    Pruning Scheme         =           NONE
    Nuclear Scheme         =       TREUTLER

    BS radius alpha        =              1
    Pruning alpha          =              1
    Radial Points          =             99
    Spherical Points       =           1202
    Total Points           =        1226361
    Total Blocks           =           8249
    Max Points             =            256
    Max Functions          =            142
    Weights Tolerance      =       1.00E-15

   => Loading Basis Set <=

    Name: (ANONYMOUS39F0398B AUX)
    Role: JKFIT
    Keyword: DF_BASIS_SCF
    atoms 1-3  entry C          line   198 file /opt/psi/4/master/share/psi4/basis/def2-universal-jkfit.gbs 
    atoms 4-11 entry H          line    18 file /opt/psi/4/master/share/psi4/basis/def2-universal-jkfit.gbs 

  ==> Integral Setup <==

  DFHelper Memory: AOs need 0.061 GiB; user supplied 5.539 GiB. Using in-core AOs.

  ==> MemDFJK: Density-Fitted J/K Matrices <==

    J tasked:                   Yes
    K tasked:                   Yes
    wK tasked:                   No
    OpenMP threads:               4
    Memory [MiB]:              5672
    Algorithm:                 Core
    Schwarz Cutoff:           1E-12
    Mask sparsity (%):       0.6546
    Fitting Condition:        1E-10

   => Auxiliary Basis Set <=

  Basis Set: (ANONYMOUS39F0398B AUX)
    Blend: DEF2-UNIVERSAL-JKFIT
    Number of shells: 123
    Number of basis function: 369
    Number of Cartesian functions: 427
    Spherical Harmonics?: true
    Max angular momentum: 4

  Cached 100.0% of DFT collocation blocks in 4.240 [GiB].

  Minimum eigenvalue in the overlap matrix is 1.6188069860E-03.
  Reciprocal condition number of the overlap matrix is 2.8874741995E-04.
    Using symmetric orthogonalization.

  ==> Pre-Iterations <==

  SCF Guess: Superposition of Atomic Densities via on-the-fly atomic UHF (no occupation information).

   -------------------------
    Irrep   Nso     Nmo    
   -------------------------
     A'        87      87 
     A"        55      55 
   -------------------------
    Total     142     142
   -------------------------

  ==> Iterations <==

                           Total Energy        Delta E     RMS |[F,P]|

   @DF-RKS iter SAD:  -118.51383867546798   -1.18514e+02   0.00000e+00 
   @DF-RKS iter   1:  -118.82386749928813   -3.10029e-01   7.58055e-03 DIIS
   @DF-RKS iter   2:  -118.66220676319823    1.61661e-01   9.08789e-03 DIIS
   @DF-RKS iter   3:  -119.15525598647308   -4.93049e-01   5.18448e-04 DIIS
   @DF-RKS iter   4:  -119.15640497984842   -1.14899e-03   2.40836e-04 DIIS
   @DF-RKS iter   5:  -119.15668421596496   -2.79236e-04   6.34168e-05 DIIS
   @DF-RKS iter   6:  -119.15670425934992   -2.00434e-05   8.74467e-06 DIIS
   @DF-RKS iter   7:  -119.15670470480465   -4.45455e-07   1.62517e-06 DIIS
   @DF-RKS iter   8:  -119.15670472159577   -1.67911e-08   7.48686e-08 DIIS
   @DF-RKS iter   9:  -119.15670472163153   -3.57545e-11   9.52196e-09 DIIS
   @DF-RKS iter  10:  -119.15670472163200   -4.68958e-13   1.54071e-09 DIIS
   @DF-RKS iter  11:  -119.15670472163205   -5.68434e-14   6.04688e-11 DIIS
  Energy and wave function converged.


  ==> Post-Iterations <==

    Orbital Energies [Eh]
    ---------------------

    Doubly Occupied:                                                      

       1Ap   -10.172045     2Ap   -10.163875     3Ap   -10.163844  
       4Ap    -0.776716     5Ap    -0.676371     6Ap    -0.580650  
       1App   -0.453367     7Ap    -0.433031     8Ap    -0.393229  
       2App   -0.376369     9Ap    -0.333679    10Ap    -0.332913  
       3App   -0.324783  

    Virtual:                                                              

      11Ap     0.080550    12Ap     0.132143     4App    0.135427  
      13Ap     0.138473    14Ap     0.158847     5App    0.176998  
      15Ap     0.185516     6App    0.186541    16Ap     0.214808  
      17Ap     0.254519    18Ap     0.402138     7App    0.413960  
      19Ap     0.427478     8App    0.429402    20Ap     0.446016  
       9App    0.468318    21Ap     0.506811    22Ap     0.553398  
      23Ap     0.553596    24Ap     0.563104    10App    0.590377  
      25Ap     0.600536    26Ap     0.613256    11App    0.619160  
      12App    0.621359    13App    0.630441    27Ap     0.640163  
      28Ap     0.661355    29Ap     0.679862    14App    0.800557  
      15App    0.817658    30Ap     0.849434    16App    0.889003  
      17App    0.923214    31Ap     0.972447    32Ap     1.040588  
      33Ap     1.043790    18App    1.060091    34Ap     1.086235  
      19App    1.142309    35Ap     1.162543    36Ap     1.176768  
      20App    1.202758    37Ap     1.259966    38Ap     1.262150  
      21App    1.301623    39Ap     1.305384    40Ap     1.318660  
      22App    1.321087    41Ap     1.404731    42Ap     1.417103  
      23App    1.419033    24App    1.453161    43Ap     1.492941  
      44Ap     1.494194    45Ap     1.515252    25App    1.531065  
      26App    1.540720    46Ap     1.564409    47Ap     1.621946  
      48Ap     1.665343    49Ap     1.778804    27App    1.785599  
      50Ap     1.832344    51Ap     1.879278    28App    1.999813  
      52Ap     2.027450    53Ap     2.125770    29App    2.252025  
      54Ap     2.714343    55Ap     2.750153    30App    2.827019  
      56Ap     2.857938    31App    2.875994    32App    2.906445  
      33App    2.955603    34App    2.960298    57Ap     3.009268  
      35App    3.009953    58Ap     3.050639    59Ap     3.053626  
      36App    3.061641    60Ap     3.204115    37App    3.242839  
      61Ap     3.346537    38App    3.348209    62Ap     3.438474  
      63Ap     3.483301    64Ap     3.499443    65Ap     3.505397  
      39App    3.508123    40App    3.522013    66Ap     3.581718  
      41App    3.651746    67Ap     3.656177    42App    3.657886  
      68Ap     3.662714    69Ap     3.810018    70Ap     3.815510  
      71Ap     3.964157    43App    3.976152    44App    4.017782  
      72Ap     4.093091    73Ap     4.135136    74Ap     4.151372  
      45App    4.165643    75Ap     4.201391    46App    4.252814  
      76Ap     4.259394    77Ap     4.273843    47App    4.334452  
      48App    4.364751    78Ap     4.472353    49App    4.514750  
      50App    4.518415    51App    4.558471    79Ap     4.569529  
      80Ap     4.592590    52App    4.594687    81Ap     4.615512  
      82Ap     4.721463    83Ap     4.933985    84Ap     4.980414  
      85Ap     5.105340    53App    5.229708    86Ap     5.251218  
      54App    5.343451    87Ap     5.345975    55App    5.365993  

    Final Occupation by Irrep:
             Ap   App 
    DOCC [    10,    3 ]

  @DF-RKS Final Energy:  -119.15670472163205

   => Energetics <=

    Nuclear Repulsion Energy =             82.5789852675173393
    One-Electron Energy =                -321.8744388992321888
    Two-Electron Energy =                 135.7631850272511542
    DFT Exchange-Correlation Energy =     -15.6244361171683792
    Empirical Dispersion Energy =           0.0000000000000000
    VV10 Nonlocal Energy =                  0.0000000000000000
    Total Energy =                       -119.1567047216320816

Computation Completed


Properties will be evaluated at   0.000000,   0.000000,   0.000000 [a0]

Properties computed using the SCF density matrix

  Nuclear Dipole Moment: [e a0]
     X:     0.0000      Y:    -0.4665      Z:     0.0000

  Electronic Dipole Moment: [e a0]
     X:    -0.0000      Y:     0.4911      Z:     0.0000

  Dipole Moment: [e a0]
     X:    -0.0000      Y:     0.0245      Z:     0.0000     Total:     0.0245

  Dipole Moment: [D]
     X:    -0.0000      Y:     0.0623      Z:     0.0000     Total:     0.0623


*** tstop() called on n062 at Thu Nov 11 15:35:36 2021
Module time:
	user time   =      69.07 seconds =       1.15 minutes
	system time =       1.26 seconds =       0.02 minutes
	total time  =         18 seconds =       0.30 minutes
Total time:
	user time   =      69.07 seconds =       1.15 minutes
	system time =       1.26 seconds =       0.02 minutes
	total time  =         18 seconds =       0.30 minutes
Grab this energy -119.15670472163205
    Psi4 stopped on: Thursday, 11 November 2021 03:35PM
    Psi4 wall time for execution: 0:00:18.26

*** Psi4 exiting successfully. Buy a developer a beer!
