
    -----------------------------------------------------------------------
          Psi4: An Open-Source Ab Initio Electronic Structure Package
                               Psi4 1.4a2.dev629 

                         Git: Rev {master} 2938fc2 dirty


    D. G. A. Smith, L. A. Burns, A. C. Simmonett, R. M. Parrish,
    M. C. Schieber, R. Galvelis, P. Kraus, H. Kruse, R. Di Remigio,
    A. Alenaizan, A. M. James, S. Lehtola, J. P. Misiewicz, M. Scheurer,
    R. A. Shaw, J. B. Schriber, Y. Xie, Z. L. Glick, D. A. Sirianni,
    J. S. O'Brien, J. M. Waldrop, A. Kumar, E. G. Hohenstein,
    B. P. Pritchard, B. R. Brooks, H. F. Schaefer III, A. Yu. Sokolov,
    K. Patkowski, A. E. DePrince III, U. Bozkaya, R. A. King,
    F. A. Evangelista, J. M. Turney, T. D. Crawford, C. D. Sherrill,
    J. Chem. Phys. 152(18) 184108 (2020). https://doi.org/10.1063/5.0006002

                            Additional Code Authors
    E. T. Seidl, C. L. Janssen, E. F. Valeev, M. L. Leininger,
    J. F. Gonthier, R. M. Richard, H. R. McAlexander, M. Saitow, X. Wang,
    P. Verma, and M. H. Lechner

             Previous Authors, Complete List of Code Contributors,
                       and Citations for Specific Modules
    https://github.com/psi4/psi4/blob/master/codemeta.json
    https://github.com/psi4/psi4/graphs/contributors
    http://psicode.org/psi4manual/master/introduction.html#citing-psifour

    -----------------------------------------------------------------------


    Psi4 started on: Thursday, 11 November 2021 03:19PM

    Process ID: 2776
    Host:       n035
    PSIDATADIR: /opt/psi/4/master/share/psi4
    Memory:     500.0 MiB
    Threads:    4
    
  ==> Input File <==

--------------------------------------------------------------------------
import os
memory 14 GB 
 
molecule {
 C    0.0015089495   -2.3959284210    0.5117962633
 C    0.0006976317    0.0000007800   -1.1021772249
 C   -0.0021730864    2.3959273189    0.5117978752
 H   -0.0027873826   -4.0993886180   -0.6527824973
 H   -1.6689107663   -2.4594887626    1.7328853979
 H    1.6657803790   -2.4569276410    1.7278612721
 H    1.6605271629   -0.0000555448   -2.3432588675
 H   -1.6514480339    0.0000567429   -2.3369741144
 H   -0.0012843275    4.0993890392   -0.6527862439
 H    1.6663885118    2.4570839979    1.7274842278
 H   -1.6682990382    2.4593306486    1.7332630717
units bohr
}

basis {

assign 6-31g_2dfp_

[ 6-31g_2dfp_ ]

spherical

!----------------------------------------------------------------------
! Basis Set Exchange
! Version v0.8.13
! https://www.basissetexchange.org
!----------------------------------------------------------------------
!   Basis set: 6-31G(2df,p)
! Description: 6-31G(2df,p)
!        Role: orbital
!     Version: 0  (Data from the original Basis Set Exchange)
!----------------------------------------------------------------------


****
H     0
S    3   1.00
     18.7311370              0.03349460
      2.8253937              0.23472695
      0.6401217              0.81375733
S    1   1.00
      0.1612778              1.00000000
P    1   1.00
      1.5000000              1.0000000
P    1   1.00
      0.3750000              1.0000000
****
B     0
S    6   1.00
   2068.8823000              0.0018663
    310.6495700              0.0142515
     70.6830330              0.0695516
     19.8610800              0.2325729
      6.2993048              0.4670787
      2.1270270              0.3634314
SP   3   1.00
      4.7279710             -0.1303938              0.0745976
      1.1903377             -0.1307889              0.3078467
      0.3594117              1.1309444              0.7434568
SP   1   1.00
      0.1267512              1.0000000              1.0000000
D    1   1.00
      0.8020000              1.0000000
D    1   1.00
      0.2005000              1.0000000
F    1   1.00
      0.5000000              1.0000000
****
C     0
S    6   1.00
   3047.5249000              0.0018347
    457.3695100              0.0140373
    103.9486900              0.0688426
     29.2101550              0.2321844
      9.2866630              0.4679413
      3.1639270              0.3623120
SP   3   1.00
      7.8682724             -0.1193324              0.0689991
      1.8812885             -0.1608542              0.3164240
      0.5442493              1.1434564              0.7443083
SP   1   1.00
      0.1687144              1.0000000              1.0000000
D    1   1.00
      1.2520000              1.0000000
D    1   1.00
      0.3130000              1.0000000
F    1   1.00
      0.8000000              1.0000000
****
N     0
S    6   1.00
   4173.5110000              0.0018348
    627.4579000              0.0139950
    142.9021000              0.0685870
     40.2343300              0.2322410
     12.8202100              0.4690700
      4.3904370              0.3604550
SP   3   1.00
     11.6263580             -0.1149610              0.0675800
      2.7162800             -0.1691180              0.3239070
      0.7722180              1.1458520              0.7408950
SP   1   1.00
      0.2120313              1.0000000              1.0000000
D    1   1.00
      1.8260000              1.0000000
D    1   1.00
      0.4565000              1.0000000
F    1   1.00
      1.0000000              1.0000000
****
O     0
S    6   1.00
   5484.6717000              0.0018311
    825.2349500              0.0139501
    188.0469600              0.0684451
     52.9645000              0.2327143
     16.8975700              0.4701930
      5.7996353              0.3585209
SP   3   1.00
     15.5396160             -0.1107775              0.0708743
      3.5999336             -0.1480263              0.3397528
      1.0137618              1.1307670              0.7271586
SP   1   1.00
      0.2700058              1.0000000              1.0000000
D    1   1.00
      2.5840000              1.0000000
D    1   1.00
      0.6460000              1.0000000
F    1   1.00
      1.4000000              1.0000000
****
F     0
S    6   1.00
   7001.7130900              0.0018196169
   1051.3660900              0.0139160796
    239.2856900              0.0684053245
     67.3974453              0.233185760
     21.5199573              0.471267439
      7.40310130             0.356618546
SP   3   1.00
     20.8479528             -0.108506975            0.0716287243
      4.80830834            -0.146451658            0.3459121030
      1.34406986             1.128688580            0.7224699570
SP   1   1.00
      0.358151393            1.0000000              1.0000000
D    1   1.00
      3.5000000              1.0000000
D    1   1.00
      0.8750000              1.0000000
F    1   1.00
      1.8500000              1.0000000
****
Al     0
S    6   1.00
  13983.1000000              0.00194267
   2098.7500000              0.0148599
    477.7050000              0.0728494
    134.3600000              0.2468300
     42.8709000              0.4872580
     14.5189000              0.3234960
SP   6   1.00
    239.6680000             -0.00292619             0.00460285
     57.4419000             -0.0374080              0.0331990
     18.2859000             -0.1144870              0.1362820
      6.5991400              0.1156350              0.3304760
      2.4904900              0.6125950              0.4491460
      0.9445400              0.3937990              0.2657040
SP   3   1.00
      1.2779000             -0.2276060             -0.0175130
      0.3975900              0.00144583             0.2445330
      0.1600950              1.0927900              0.8049340
SP   1   1.00
      0.0556577              1.0000000              1.0000000
D    1   1.00
      0.6500000              1.0000000
D    1   1.00
      0.1625000              1.0000000
F    1   1.00
      0.2500000              1.0000000
****
Si     0
S    6   1.00
  16115.9000000              0.00195948
   2425.5800000              0.01492880
    553.8670000              0.07284780
    156.3400000              0.24613000
     50.0683000              0.48591400
     17.0178000              0.32500200
SP   6   1.00
    292.7180000             -0.00278094             0.00443826
     69.8731000             -0.03571460             0.03266790
     22.3363000             -0.11498500             0.13472100
      8.1503900              0.09356340             0.32867800
      3.1345800              0.60301700             0.44964000
      1.2254300              0.41895900             0.26137200
SP   3   1.00
      1.7273800             -0.24463000            -0.01779510
      0.5729220              0.00431572             0.25353900
      0.2221920              1.09818000             0.80066900
SP   1   1.00
      0.0778369              1.00000000             1.00000000
D    1   1.00
      0.9000000              1.0000000
D    1   1.00
      0.2250000              1.0000000
F    1   1.00
      0.3200000              1.0000000
****
P     0
S    6   1.00
  19413.3000000              0.0018516
   2909.4200000              0.0142062
    661.3640000              0.0699995
    185.7590000              0.2400790
     59.1943000              0.4847620
     20.0310000              0.3352000
SP   6   1.00
    339.4780000             -0.00278217             0.00456462
     81.0101000             -0.0360499              0.03369360
     25.8780000             -0.1166310              0.13975500
      9.4522100              0.0968328              0.33936200
      3.6656600              0.6144180              0.45092100
      1.4674600              0.4037980              0.23858600
SP   3   1.00
      2.1562300             -0.2529230             -0.01776530
      0.7489970              0.0328517              0.27405800
      0.2831450              1.0812500              0.78542100
SP   1   1.00
      0.0998317              1.0000000              1.00000000
D    1   1.00
      1.1000000              1.0000000
D    1   1.00
      0.2750000              1.0000000
F    1   1.00
      0.4500000              1.0000000
****
S     0
S    6   1.00
  21917.1000000              0.0018690
   3301.4900000              0.0142300
    754.1460000              0.0696960
    212.7110000              0.2384870
     67.9896000              0.4833070
     23.0515000              0.3380740
SP   6   1.00
    423.7350000             -0.0023767              0.0040610
    100.7100000             -0.0316930              0.0306810
     32.1599000             -0.1133170              0.1304520
     11.8079000              0.0560900              0.3272050
      4.6311000              0.5922550              0.4528510
      1.8702500              0.4550060              0.2560420
SP   3   1.00
      2.6158400             -0.2503740             -0.0145110
      0.9221670              0.0669570              0.3102630
      0.3412870              1.0545100              0.7544830
SP   1   1.00
      0.1171670              1.0000000              1.0000000
D    1   1.00
      1.3000000              1.0000000
D    1   1.00
      0.3250000              1.0000000
F    1   1.00
      0.5500000              1.0000000
****
Cl     0
S    6   1.00
  25180.1000000              0.0018330
   3780.3500000              0.0140340
    860.4740000              0.0690970
    242.1450000              0.2374520
     77.3349000              0.4830340
     26.2470000              0.3398560
SP   6   1.00
    491.7650000             -0.0022974              0.0039894
    116.9840000             -0.0307140              0.0303180
     37.4153000             -0.1125280              0.1298800
     13.7834000              0.0450160              0.3279510
      5.4521500              0.5893530              0.4535270
      2.2258800              0.4652060              0.2521540
SP   3   1.00
      3.1864900             -0.2518300             -0.0142990
      1.1442700              0.0615890              0.3235720
      0.4203770              1.0601800              0.7435070
SP   1   1.00
      0.1426570              1.0000000              1.0000000
D    1   1.00
      1.5000000              1.0000000
D    1   1.00
      0.3750000              1.0000000
F    1   1.00
      0.7000000              1.0000000
****
}


set {
reference rhf                          
freeze_core true
e_convergence 10                       
d_convergence 10                      
dft_spherical_points 1202
dft_radial_points 99
}

e = energy('b3lyp')

print_out('Grab this energy {0}'.format(e))
--------------------------------------------------------------------------

  Memory set to  13.039 GiB by Python driver.

Scratch directory: /tmp/

*** tstart() called on n035
*** at Thu Nov 11 15:19:48 2021

   => Loading Basis Set <=

    Name: ANONYMOUS3AF80B69
    Role: ORBITAL
    Keyword: BASIS
    atoms 1-3  entry C          line    48 inputblock 6-31g_2dfp_ 
    atoms 4-11 entry H          line    15 inputblock 6-31g_2dfp_ 


         ---------------------------------------------------------
                                   SCF
               by Justin Turney, Rob Parrish, Andy Simmonett
                          and Daniel G. A. Smith
                              RKS Reference
                        4 Threads,  13351 MiB Core
         ---------------------------------------------------------

  ==> Geometry <==

    Molecular point group: c1
    Full point group: C1

    Geometry (in Bohr), charge = 0, multiplicity = 1:

       Center              X                  Y                   Z               Mass       
    ------------   -----------------  -----------------  -----------------  -----------------
         C            0.001500593645    -2.395928330128     0.511795876768    12.000000000000
         C            0.000689275845     0.000000870872    -1.102177611432    12.000000000000
         C           -0.002181442255     2.395927409772     0.511797488668    12.000000000000
         H           -0.002795738455    -4.099388527128    -0.652782883832     1.007825032230
         H           -1.668919122155    -2.459488671728     1.732885011368     1.007825032230
         H            1.665772023145    -2.456927550128     1.727860885568     1.007825032230
         H            1.660518807045    -0.000055453928    -2.343259254032     1.007825032230
         H           -1.651456389755     0.000056833772    -2.336974500932     1.007825032230
         H           -0.001292683355     4.099389130072    -0.652786630432     1.007825032230
         H            1.666380155945     2.457084088772     1.727483841268     1.007825032230
         H           -1.668307394055     2.459330739472     1.733262685168     1.007825032230

  Running in c1 symmetry.

  Rotational constants: A =      0.97780  B =      0.28297  C =      0.24996 [cm^-1]
  Rotational constants: A =  29313.81669  B =   8483.35036  C =   7493.64480 [MHz]
  Nuclear repulsion =   82.582999830771655

  Charge       = 0
  Multiplicity = 1
  Electrons    = 26
  Nalpha       = 13
  Nbeta        = 13

  ==> Algorithm <==

  SCF Algorithm Type is DF.
  DIIS enabled.
  MOM disabled.
  Fractional occupation disabled.
  Guess Type is SAD.
  Energy threshold   = 1.00e-10
  Density threshold  = 1.00e-10
  Integral threshold = 0.00e+00

  ==> Primary Basis <==

  Basis Set: ANONYMOUS3AF80B69
    Blend: 6-31G_2DFP_
    Number of shells: 56
    Number of basis function: 142
    Number of Cartesian functions: 157
    Spherical Harmonics?: true
    Max angular momentum: 3

  ==> DFT Potential <==

   => Composite Functional: B3LYP <= 

    B3LYP Hyb-GGA Exchange-Correlation Functional

    P. J. Stephens, F. J. Devlin, C. F. Chabalowski, and M. J. Frisch, J. Phys. Chem. 98, 11623 (1994)

    Deriv               =              1
    GGA                 =           TRUE
    Meta                =          FALSE

    Exchange Hybrid     =           TRUE
    MP2 Hybrid          =          FALSE

   => Exchange Functionals <=

    0.0800   Slater exchange
    0.7200         Becke 88

   => Exact (HF) Exchange <=

    0.2000               HF 

   => Correlation Functionals <=

    0.1900   Vosko, Wilk & Nusair (VWN5_RPA)
    0.8100   Lee, Yang & Parr

   => Molecular Quadrature <=

    Radial Scheme          =       TREUTLER
    Pruning Scheme         =           NONE
    Nuclear Scheme         =       TREUTLER

    BS radius alpha        =              1
    Pruning alpha          =              1
    Radial Points          =             99
    Spherical Points       =           1202
    Total Points           =        1226292
    Total Blocks           =           8169
    Max Points             =            256
    Max Functions          =            142
    Weights Tolerance      =       1.00E-15

   => Loading Basis Set <=

    Name: (ANONYMOUS3AF80B69 AUX)
    Role: JKFIT
    Keyword: DF_BASIS_SCF
    atoms 1-3  entry C          line   198 file /opt/psi/4/master/share/psi4/basis/def2-universal-jkfit.gbs 
    atoms 4-11 entry H          line    18 file /opt/psi/4/master/share/psi4/basis/def2-universal-jkfit.gbs 

  ==> Integral Setup <==

  DFHelper Memory: AOs need 0.061 GiB; user supplied 5.531 GiB. Using in-core AOs.

  ==> MemDFJK: Density-Fitted J/K Matrices <==

    J tasked:                   Yes
    K tasked:                   Yes
    wK tasked:                   No
    OpenMP threads:               4
    Memory [MiB]:              5664
    Algorithm:                 Core
    Schwarz Cutoff:           1E-12
    Mask sparsity (%):       0.6546
    Fitting Condition:        1E-10

   => Auxiliary Basis Set <=

  Basis Set: (ANONYMOUS3AF80B69 AUX)
    Blend: DEF2-UNIVERSAL-JKFIT
    Number of shells: 123
    Number of basis function: 369
    Number of Cartesian functions: 427
    Spherical Harmonics?: true
    Max angular momentum: 4

  Cached 100.0% of DFT collocation blocks in 4.248 [GiB].

  Minimum eigenvalue in the overlap matrix is 1.6190157138E-03.
  Reciprocal condition number of the overlap matrix is 2.6614035814E-04.
    Using symmetric orthogonalization.

  ==> Pre-Iterations <==

  SCF Guess: Superposition of Atomic Densities via on-the-fly atomic UHF (no occupation information).

   -------------------------
    Irrep   Nso     Nmo    
   -------------------------
     A        142     142 
   -------------------------
    Total     142     142
   -------------------------

  ==> Iterations <==

                           Total Energy        Delta E     RMS |[F,P]|

   @DF-RKS iter SAD:  -118.51396382447865   -1.18514e+02   0.00000e+00 
   @DF-RKS iter   1:  -118.82386512143066   -3.09901e-01   5.49479e-03 DIIS
   @DF-RKS iter   2:  -118.66215478835220    1.61710e-01   6.58775e-03 DIIS
   @DF-RKS iter   3:  -119.15525325927641   -4.93098e-01   3.75337e-04 DIIS
   @DF-RKS iter   4:  -119.15640105604434   -1.14780e-03   1.73906e-04 DIIS
   @DF-RKS iter   5:  -119.15667795935894   -2.76903e-04   4.60471e-05 DIIS
   @DF-RKS iter   6:  -119.15669807414307   -2.01148e-05   6.34895e-06 DIIS
   @DF-RKS iter   7:  -119.15669852078896   -4.46646e-07   1.18041e-06 DIIS
   @DF-RKS iter   8:  -119.15669853764857   -1.68596e-08   5.43860e-08 DIIS
   @DF-RKS iter   9:  -119.15669853768426   -3.56977e-11   6.97838e-09 DIIS
   @DF-RKS iter  10:  -119.15669853768486   -5.96856e-13   1.15904e-09 DIIS
   @DF-RKS iter  11:  -119.15669853768489   -2.84217e-14   1.55266e-10 DIIS
   @DF-RKS iter  12:  -119.15669853768487    1.42109e-14   5.62376e-11 DIIS
  Energy and wave function converged.


  ==> Post-Iterations <==

    Orbital Energies [Eh]
    ---------------------

    Doubly Occupied:                                                      

       1A    -10.171947     2A    -10.163866     3A    -10.163834  
       4A     -0.776733     5A     -0.676288     6A     -0.580870  
       7A     -0.453372     8A     -0.432706     9A     -0.393525  
      10A     -0.376426    11A     -0.333268    12A     -0.333224  
      13A     -0.324871  

    Virtual:                                                              

      14A      0.080529    15A      0.132249    16A      0.135609  
      17A      0.138519    18A      0.158655    19A      0.177127  
      20A      0.185154    21A      0.186889    22A      0.214839  
      23A      0.254503    24A      0.402568    25A      0.414096  
      26A      0.427521    27A      0.429271    28A      0.445809  
      29A      0.468226    30A      0.506775    31A      0.552907  
      32A      0.553421    33A      0.563198    34A      0.590694  
      35A      0.600874    36A      0.613158    37A      0.619547  
      38A      0.621730    39A      0.630686    40A      0.639668  
      41A      0.661353    42A      0.679895    43A      0.800395  
      44A      0.818140    45A      0.849306    46A      0.889435  
      47A      0.923055    48A      0.972248    49A      1.040356  
      50A      1.043903    51A      1.060431    52A      1.086878  
      53A      1.142539    54A      1.162728    55A      1.175956  
      56A      1.202729    57A      1.259965    58A      1.261642  
      59A      1.301748    60A      1.305674    61A      1.318927  
      62A      1.321397    63A      1.405103    64A      1.416999  
      65A      1.419182    66A      1.453234    67A      1.492497  
      68A      1.494037    69A      1.515974    70A      1.530888  
      71A      1.541116    72A      1.564147    73A      1.622111  
      74A      1.665944    75A      1.778897    76A      1.786202  
      77A      1.831249    78A      1.880396    79A      2.001027  
      80A      2.027785    81A      2.124474    82A      2.252824  
      83A      2.714287    84A      2.749852    85A      2.826951  
      86A      2.857416    87A      2.876722    88A      2.906693  
      89A      2.956279    90A      2.960405    91A      3.008366  
      92A      3.010546    93A      3.051096    94A      3.052220  
      95A      3.061941    96A      3.204114    97A      3.242994  
      98A      3.346648    99A      3.347800   100A      3.440085  
     101A      3.482878   102A      3.500723   103A      3.505361  
     104A      3.507390   105A      3.521265   106A      3.581595  
     107A      3.651398   108A      3.655431   109A      3.656705  
     110A      3.663997   111A      3.810248   112A      3.815252  
     113A      3.962764   114A      3.975782   115A      4.017807  
     116A      4.093882   117A      4.137116   118A      4.149616  
     119A      4.164742   120A      4.203871   121A      4.251640  
     122A      4.260572   123A      4.273864   124A      4.335136  
     125A      4.364925   126A      4.471136   127A      4.515523  
     128A      4.520188   129A      4.560276   130A      4.567330  
     131A      4.591617   132A      4.596400   133A      4.615145  
     134A      4.721735   135A      4.933855   136A      4.981322  
     137A      5.104908   138A      5.232611   139A      5.248575  
     140A      5.342419   141A      5.347505   142A      5.368303  

    Final Occupation by Irrep:
              A 
    DOCC [    13 ]

  @DF-RKS Final Energy:  -119.15669853768487

   => Energetics <=

    Nuclear Repulsion Energy =             82.5829998307716551
    One-Electron Energy =                -321.8821386814107086
    Two-Electron Energy =                 135.7671661437118189
    DFT Exchange-Correlation Energy =     -15.6247258307576402
    Empirical Dispersion Energy =           0.0000000000000000
    VV10 Nonlocal Energy =                  0.0000000000000000
    Total Energy =                       -119.1566985376848749

Computation Completed


Properties will be evaluated at   0.000000,   0.000000,   0.000000 [a0]

Properties computed using the SCF density matrix

  Nuclear Dipole Moment: [e a0]
     X:    -0.0000      Y:     0.0000      Z:     0.4642

  Electronic Dipole Moment: [e a0]
     X:    -0.0002      Y:    -0.0000      Z:    -0.4874

  Dipole Moment: [e a0]
     X:    -0.0003      Y:    -0.0000      Z:    -0.0232     Total:     0.0232

  Dipole Moment: [D]
     X:    -0.0006      Y:    -0.0000      Z:    -0.0590     Total:     0.0590


*** tstop() called on n035 at Thu Nov 11 15:20:12 2021
Module time:
	user time   =      91.98 seconds =       1.53 minutes
	system time =       1.00 seconds =       0.02 minutes
	total time  =         24 seconds =       0.40 minutes
Total time:
	user time   =      91.98 seconds =       1.53 minutes
	system time =       1.00 seconds =       0.02 minutes
	total time  =         24 seconds =       0.40 minutes
Grab this energy -119.15669853768487
    Psi4 stopped on: Thursday, 11 November 2021 03:20PM
    Psi4 wall time for execution: 0:00:23.99

*** Psi4 exiting successfully. Buy a developer a beer!
