
    -----------------------------------------------------------------------
          Psi4: An Open-Source Ab Initio Electronic Structure Package
                               Psi4 1.4a2.dev629 

                         Git: Rev {master} 2938fc2 dirty


    D. G. A. Smith, L. A. Burns, A. C. Simmonett, R. M. Parrish,
    M. C. Schieber, R. Galvelis, P. Kraus, H. Kruse, R. Di Remigio,
    A. Alenaizan, A. M. James, S. Lehtola, J. P. Misiewicz, M. Scheurer,
    R. A. Shaw, J. B. Schriber, Y. Xie, Z. L. Glick, D. A. Sirianni,
    J. S. O'Brien, J. M. Waldrop, A. Kumar, E. G. Hohenstein,
    B. P. Pritchard, B. R. Brooks, H. F. Schaefer III, A. Yu. Sokolov,
    K. Patkowski, A. E. DePrince III, U. Bozkaya, R. A. King,
    F. A. Evangelista, J. M. Turney, T. D. Crawford, C. D. Sherrill,
    J. Chem. Phys. 152(18) 184108 (2020). https://doi.org/10.1063/5.0006002

                            Additional Code Authors
    E. T. Seidl, C. L. Janssen, E. F. Valeev, M. L. Leininger,
    J. F. Gonthier, R. M. Richard, H. R. McAlexander, M. Saitow, X. Wang,
    P. Verma, and M. H. Lechner

             Previous Authors, Complete List of Code Contributors,
                       and Citations for Specific Modules
    https://github.com/psi4/psi4/blob/master/codemeta.json
    https://github.com/psi4/psi4/graphs/contributors
    http://psicode.org/psi4manual/master/introduction.html#citing-psifour

    -----------------------------------------------------------------------


    Psi4 started on: Monday, 01 November 2021 04:06PM

    Process ID: 5484
    Host:       n046
    PSIDATADIR: /opt/psi/4/master/share/psi4
    Memory:     500.0 MiB
    Threads:    1
    
  ==> Input File <==

--------------------------------------------------------------------------
import os
memory 14 GB 
 
molecule {
 C   -2.1923360370    0.4744981870   -0.0010770397
 O    0.0000000001   -1.0393176822   -0.0000000003
 C    2.1923360364    0.4744981866    0.0010770390
 H   -3.8208426426   -0.7847637652   -0.0031251765
 H   -2.2785412178    1.6842177101   -1.6800808993
 H   -2.2753732106    1.6897751842    1.6840228987
 H    2.2785412074    1.6842177320    1.6800808907
 H    2.2753732013    1.6897752025   -1.6840228872
 H    3.8208426427   -0.7847637751    0.0031251747
units bohr
}

basis {

assign 6-31g_2dfp_

[ 6-31g_2dfp_ ]

spherical

!----------------------------------------------------------------------
! Basis Set Exchange
! Version v0.8.13
! https://www.basissetexchange.org
!----------------------------------------------------------------------
!   Basis set: 6-31G(2df,p)
! Description: 6-31G(2df,p)
!        Role: orbital
!     Version: 0  (Data from the original Basis Set Exchange)
!----------------------------------------------------------------------


****
H     0
S    3   1.00
     18.7311370              0.03349460
      2.8253937              0.23472695
      0.6401217              0.81375733
S    1   1.00
      0.1612778              1.00000000
P    1   1.00
      1.5000000              1.0000000
P    1   1.00
      0.3750000              1.0000000
****
B     0
S    6   1.00
   2068.8823000              0.0018663
    310.6495700              0.0142515
     70.6830330              0.0695516
     19.8610800              0.2325729
      6.2993048              0.4670787
      2.1270270              0.3634314
SP   3   1.00
      4.7279710             -0.1303938              0.0745976
      1.1903377             -0.1307889              0.3078467
      0.3594117              1.1309444              0.7434568
SP   1   1.00
      0.1267512              1.0000000              1.0000000
D    1   1.00
      0.8020000              1.0000000
D    1   1.00
      0.2005000              1.0000000
F    1   1.00
      0.5000000              1.0000000
****
C     0
S    6   1.00
   3047.5249000              0.0018347
    457.3695100              0.0140373
    103.9486900              0.0688426
     29.2101550              0.2321844
      9.2866630              0.4679413
      3.1639270              0.3623120
SP   3   1.00
      7.8682724             -0.1193324              0.0689991
      1.8812885             -0.1608542              0.3164240
      0.5442493              1.1434564              0.7443083
SP   1   1.00
      0.1687144              1.0000000              1.0000000
D    1   1.00
      1.2520000              1.0000000
D    1   1.00
      0.3130000              1.0000000
F    1   1.00
      0.8000000              1.0000000
****
N     0
S    6   1.00
   4173.5110000              0.0018348
    627.4579000              0.0139950
    142.9021000              0.0685870
     40.2343300              0.2322410
     12.8202100              0.4690700
      4.3904370              0.3604550
SP   3   1.00
     11.6263580             -0.1149610              0.0675800
      2.7162800             -0.1691180              0.3239070
      0.7722180              1.1458520              0.7408950
SP   1   1.00
      0.2120313              1.0000000              1.0000000
D    1   1.00
      1.8260000              1.0000000
D    1   1.00
      0.4565000              1.0000000
F    1   1.00
      1.0000000              1.0000000
****
O     0
S    6   1.00
   5484.6717000              0.0018311
    825.2349500              0.0139501
    188.0469600              0.0684451
     52.9645000              0.2327143
     16.8975700              0.4701930
      5.7996353              0.3585209
SP   3   1.00
     15.5396160             -0.1107775              0.0708743
      3.5999336             -0.1480263              0.3397528
      1.0137618              1.1307670              0.7271586
SP   1   1.00
      0.2700058              1.0000000              1.0000000
D    1   1.00
      2.5840000              1.0000000
D    1   1.00
      0.6460000              1.0000000
F    1   1.00
      1.4000000              1.0000000
****
F     0
S    6   1.00
   7001.7130900              0.0018196169
   1051.3660900              0.0139160796
    239.2856900              0.0684053245
     67.3974453              0.233185760
     21.5199573              0.471267439
      7.40310130             0.356618546
SP   3   1.00
     20.8479528             -0.108506975            0.0716287243
      4.80830834            -0.146451658            0.3459121030
      1.34406986             1.128688580            0.7224699570
SP   1   1.00
      0.358151393            1.0000000              1.0000000
D    1   1.00
      3.5000000              1.0000000
D    1   1.00
      0.8750000              1.0000000
F    1   1.00
      1.8500000              1.0000000
****
Al     0
S    6   1.00
  13983.1000000              0.00194267
   2098.7500000              0.0148599
    477.7050000              0.0728494
    134.3600000              0.2468300
     42.8709000              0.4872580
     14.5189000              0.3234960
SP   6   1.00
    239.6680000             -0.00292619             0.00460285
     57.4419000             -0.0374080              0.0331990
     18.2859000             -0.1144870              0.1362820
      6.5991400              0.1156350              0.3304760
      2.4904900              0.6125950              0.4491460
      0.9445400              0.3937990              0.2657040
SP   3   1.00
      1.2779000             -0.2276060             -0.0175130
      0.3975900              0.00144583             0.2445330
      0.1600950              1.0927900              0.8049340
SP   1   1.00
      0.0556577              1.0000000              1.0000000
D    1   1.00
      0.6500000              1.0000000
D    1   1.00
      0.1625000              1.0000000
F    1   1.00
      0.2500000              1.0000000
****
Si     0
S    6   1.00
  16115.9000000              0.00195948
   2425.5800000              0.01492880
    553.8670000              0.07284780
    156.3400000              0.24613000
     50.0683000              0.48591400
     17.0178000              0.32500200
SP   6   1.00
    292.7180000             -0.00278094             0.00443826
     69.8731000             -0.03571460             0.03266790
     22.3363000             -0.11498500             0.13472100
      8.1503900              0.09356340             0.32867800
      3.1345800              0.60301700             0.44964000
      1.2254300              0.41895900             0.26137200
SP   3   1.00
      1.7273800             -0.24463000            -0.01779510
      0.5729220              0.00431572             0.25353900
      0.2221920              1.09818000             0.80066900
SP   1   1.00
      0.0778369              1.00000000             1.00000000
D    1   1.00
      0.9000000              1.0000000
D    1   1.00
      0.2250000              1.0000000
F    1   1.00
      0.3200000              1.0000000
****
P     0
S    6   1.00
  19413.3000000              0.0018516
   2909.4200000              0.0142062
    661.3640000              0.0699995
    185.7590000              0.2400790
     59.1943000              0.4847620
     20.0310000              0.3352000
SP   6   1.00
    339.4780000             -0.00278217             0.00456462
     81.0101000             -0.0360499              0.03369360
     25.8780000             -0.1166310              0.13975500
      9.4522100              0.0968328              0.33936200
      3.6656600              0.6144180              0.45092100
      1.4674600              0.4037980              0.23858600
SP   3   1.00
      2.1562300             -0.2529230             -0.01776530
      0.7489970              0.0328517              0.27405800
      0.2831450              1.0812500              0.78542100
SP   1   1.00
      0.0998317              1.0000000              1.00000000
D    1   1.00
      1.1000000              1.0000000
D    1   1.00
      0.2750000              1.0000000
F    1   1.00
      0.4500000              1.0000000
****
S     0
S    6   1.00
  21917.1000000              0.0018690
   3301.4900000              0.0142300
    754.1460000              0.0696960
    212.7110000              0.2384870
     67.9896000              0.4833070
     23.0515000              0.3380740
SP   6   1.00
    423.7350000             -0.0023767              0.0040610
    100.7100000             -0.0316930              0.0306810
     32.1599000             -0.1133170              0.1304520
     11.8079000              0.0560900              0.3272050
      4.6311000              0.5922550              0.4528510
      1.8702500              0.4550060              0.2560420
SP   3   1.00
      2.6158400             -0.2503740             -0.0145110
      0.9221670              0.0669570              0.3102630
      0.3412870              1.0545100              0.7544830
SP   1   1.00
      0.1171670              1.0000000              1.0000000
D    1   1.00
      1.3000000              1.0000000
D    1   1.00
      0.3250000              1.0000000
F    1   1.00
      0.5500000              1.0000000
****
Cl     0
S    6   1.00
  25180.1000000              0.0018330
   3780.3500000              0.0140340
    860.4740000              0.0690970
    242.1450000              0.2374520
     77.3349000              0.4830340
     26.2470000              0.3398560
SP   6   1.00
    491.7650000             -0.0022974              0.0039894
    116.9840000             -0.0307140              0.0303180
     37.4153000             -0.1125280              0.1298800
     13.7834000              0.0450160              0.3279510
      5.4521500              0.5893530              0.4535270
      2.2258800              0.4652060              0.2521540
SP   3   1.00
      3.1864900             -0.2518300             -0.0142990
      1.1442700              0.0615890              0.3235720
      0.4203770              1.0601800              0.7435070
SP   1   1.00
      0.1426570              1.0000000              1.0000000
D    1   1.00
      1.5000000              1.0000000
D    1   1.00
      0.3750000              1.0000000
F    1   1.00
      0.7000000              1.0000000
****
}


set {
reference rhf                          
freeze_core true
e_convergence 10                       
d_convergence 10                      
dft_spherical_points 1202
dft_radial_points 99
}

e = energy('b3lyp')

print_out('Grab this energy {0}'.format(e))
--------------------------------------------------------------------------

  Memory set to  13.039 GiB by Python driver.

Scratch directory: /tmp/

*** tstart() called on n046
*** at Mon Nov  1 16:06:19 2021

   => Loading Basis Set <=

    Name: ANONYMOUSCFD2411B
    Role: ORBITAL
    Keyword: BASIS
    atoms 1, 3 entry C          line    48 inputblock 6-31g_2dfp_ 
    atoms 2    entry O          line    90 inputblock 6-31g_2dfp_ 
    atoms 4-9  entry H          line    15 inputblock 6-31g_2dfp_ 


         ---------------------------------------------------------
                                   SCF
               by Justin Turney, Rob Parrish, Andy Simmonett
                          and Daniel G. A. Smith
                              RKS Reference
                        1 Threads,  13351 MiB Core
         ---------------------------------------------------------

  ==> Geometry <==

    Molecular point group: c1
    Full point group: C1

    Geometry (in Bohr), charge = 0, multiplicity = 1:

       Center              X                  Y                   Z               Mass       
    ------------   -----------------  -----------------  -----------------  -----------------
         C           -2.192336036449     0.474864401852    -0.001077039437    12.000000000000
         O            0.000000000651    -1.038951467348    -0.000000000037    15.994914619570
         C            2.192336036951     0.474864401452     0.001077039263    12.000000000000
         H           -3.820842642049    -0.784397550348    -0.003125176237     1.007825032230
         H           -2.278541217249     1.684583924952    -1.680080899037     1.007825032230
         H           -2.275373210049     1.690141399052     1.684022898963     1.007825032230
         H            2.278541207951     1.684583946852     1.680080890963     1.007825032230
         H            2.275373201851     1.690141417352    -1.684022886937     1.007825032230
         H            3.820842643251    -0.784397560248     0.003125174963     1.007825032230

  Running in c1 symmetry.

  Rotational constants: A =      1.28629  B =      0.33995  C =      0.29939 [cm^-1]
  Rotational constants: A =  38561.99760  B =  10191.41357  C =   8975.50964 [MHz]
  Nuclear repulsion =   84.078296936062017

  Charge       = 0
  Multiplicity = 1
  Electrons    = 26
  Nalpha       = 13
  Nbeta        = 13

  ==> Algorithm <==

  SCF Algorithm Type is DF.
  DIIS enabled.
  MOM disabled.
  Fractional occupation disabled.
  Guess Type is SAD.
  Energy threshold   = 1.00e-10
  Density threshold  = 1.00e-10
  Integral threshold = 0.00e+00

  ==> Primary Basis <==

  Basis Set: ANONYMOUSCFD2411B
    Blend: 6-31G_2DFP_
    Number of shells: 48
    Number of basis function: 126
    Number of Cartesian functions: 141
    Spherical Harmonics?: true
    Max angular momentum: 3

  ==> DFT Potential <==

   => Composite Functional: B3LYP <= 

    B3LYP Hyb-GGA Exchange-Correlation Functional

    P. J. Stephens, F. J. Devlin, C. F. Chabalowski, and M. J. Frisch, J. Phys. Chem. 98, 11623 (1994)

    Deriv               =              1
    GGA                 =           TRUE
    Meta                =          FALSE

    Exchange Hybrid     =           TRUE
    MP2 Hybrid          =          FALSE

   => Exchange Functionals <=

    0.0800   Slater exchange
    0.7200         Becke 88

   => Exact (HF) Exchange <=

    0.2000               HF 

   => Correlation Functionals <=

    0.1900   Vosko, Wilk & Nusair (VWN5_RPA)
    0.8100   Lee, Yang & Parr

   => Molecular Quadrature <=

    Radial Scheme          =       TREUTLER
    Pruning Scheme         =           NONE
    Nuclear Scheme         =       TREUTLER

    BS radius alpha        =              1
    Pruning alpha          =              1
    Radial Points          =             99
    Spherical Points       =           1202
    Total Points           =        1007994
    Total Blocks           =           6768
    Max Points             =            256
    Max Functions          =            126
    Weights Tolerance      =       1.00E-15

   => Loading Basis Set <=

    Name: (ANONYMOUSCFD2411B AUX)
    Role: JKFIT
    Keyword: DF_BASIS_SCF
    atoms 1, 3 entry C          line   198 file /opt/psi/4/master/share/psi4/basis/def2-universal-jkfit.gbs 
    atoms 2    entry O          line   318 file /opt/psi/4/master/share/psi4/basis/def2-universal-jkfit.gbs 
    atoms 4-9  entry H          line    18 file /opt/psi/4/master/share/psi4/basis/def2-universal-jkfit.gbs 

  ==> Integral Setup <==

  DFHelper Memory: AOs need 0.044 GiB; user supplied 6.680 GiB. Using in-core AOs.

  ==> MemDFJK: Density-Fitted J/K Matrices <==

    J tasked:                   Yes
    K tasked:                   Yes
    wK tasked:                   No
    OpenMP threads:               1
    Memory [MiB]:              6840
    Algorithm:                 Core
    Schwarz Cutoff:           1E-12
    Mask sparsity (%):       0.6551
    Fitting Condition:        1E-10

   => Auxiliary Basis Set <=

  Basis Set: (ANONYMOUSCFD2411B AUX)
    Blend: DEF2-UNIVERSAL-JKFIT
    Number of shells: 111
    Number of basis function: 335
    Number of Cartesian functions: 391
    Spherical Harmonics?: true
    Max angular momentum: 4

  Cached 100.0% of DFT collocation blocks in 3.099 [GiB].

  Minimum eigenvalue in the overlap matrix is 3.4699393340E-03.
  Reciprocal condition number of the overlap matrix is 6.2943929344E-04.
    Using symmetric orthogonalization.

  ==> Pre-Iterations <==

  SCF Guess: Superposition of Atomic Densities via on-the-fly atomic UHF (no occupation information).

   -------------------------
    Irrep   Nso     Nmo    
   -------------------------
     A        126     126 
   -------------------------
    Total     126     126
   -------------------------

  ==> Iterations <==

                           Total Energy        Delta E     RMS |[F,P]|

   @DF-RKS iter SAD:  -154.47955732733175   -1.54480e+02   0.00000e+00 
   @DF-RKS iter   1:  -154.84479790355007   -3.65241e-01   4.84750e-03 DIIS
   @DF-RKS iter   2:  -154.76668314250051    7.81148e-02   5.89137e-03 DIIS
   @DF-RKS iter   3:  -155.03269041385940   -2.66007e-01   9.35787e-04 DIIS
   @DF-RKS iter   4:  -155.03758257298020   -4.89216e-03   2.50944e-04 DIIS
   @DF-RKS iter   5:  -155.03795907760895   -3.76505e-04   4.07286e-05 DIIS
   @DF-RKS iter   6:  -155.03796974424429   -1.06666e-05   4.89563e-06 DIIS
   @DF-RKS iter   7:  -155.03796995430224   -2.10058e-07   1.08016e-06 DIIS
   @DF-RKS iter   8:  -155.03796996483547   -1.05332e-08   4.14560e-08 DIIS
   @DF-RKS iter   9:  -155.03796996485164   -1.61720e-11   7.54169e-09 DIIS
   @DF-RKS iter  10:  -155.03796996485207   -4.26326e-13   1.35853e-09 DIIS
   @DF-RKS iter  11:  -155.03796996485198    8.52651e-14   9.82125e-11 DIIS
  Energy and wave function converged.


  ==> Post-Iterations <==

    Orbital Energies [Eh]
    ---------------------

    Doubly Occupied:                                                      

       1A    -19.142743     2A    -10.218731     3A    -10.218711  
       4A     -1.029776     5A     -0.717004     6A     -0.636625  
       7A     -0.472487     8A     -0.468946     9A     -0.468117  
      10A     -0.392110    11A     -0.373237    12A     -0.319204  
      13A     -0.254858  

    Virtual:                                                              

      14A      0.081324    15A      0.133496    16A      0.138531  
      17A      0.142711    18A      0.151743    19A      0.176081  
      20A      0.183586    21A      0.237342    22A      0.403007  
      23A      0.447264    24A      0.460798    25A      0.468254  
      26A      0.468682    27A      0.510941    28A      0.519621  
      29A      0.556474    30A      0.580721    31A      0.599876  
      32A      0.602164    33A      0.614790    34A      0.616507  
      35A      0.630657    36A      0.701167    37A      0.792549  
      38A      0.821455    39A      0.822513    40A      0.897942  
      41A      0.964342    42A      0.978225    43A      0.995017  
      44A      1.023729    45A      1.042001    46A      1.084450  
      47A      1.094764    48A      1.131883    49A      1.223260  
      50A      1.230875    51A      1.283986    52A      1.313497  
      53A      1.323080    54A      1.359518    55A      1.387474  
      56A      1.396438    57A      1.421022    58A      1.471213  
      59A      1.509988    60A      1.681149    61A      1.689496  
      62A      1.708129    63A      1.778137    64A      1.793385  
      65A      1.894817    66A      1.927551    67A      1.993864  
      68A      2.014362    69A      2.047050    70A      2.080246  
      71A      2.257137    72A      2.377215    73A      2.898615  
      74A      2.903064    75A      2.944202    76A      2.950088  
      77A      2.958388    78A      3.038062    79A      3.040944  
      80A      3.107654    81A      3.113195    82A      3.175990  
      83A      3.223098    84A      3.225168    85A      3.244219  
      86A      3.287042    87A      3.368510    88A      3.459937  
      89A      3.517644    90A      3.603516    91A      3.621691  
      92A      3.645459    93A      3.664762    94A      3.774356  
      95A      3.826394    96A      3.839296    97A      4.077594  
      98A      4.111174    99A      4.171851   100A      4.218009  
     101A      4.235611   102A      4.239271   103A      4.275107  
     104A      4.310164   105A      4.359216   106A      4.395150  
     107A      4.424414   108A      4.518525   109A      4.780855  
     110A      4.937537   111A      5.054625   112A      5.152753  
     113A      5.198879   114A      5.201035   115A      5.345286  
     116A      5.414397   117A      5.561376   118A      5.746498  
     119A      5.816674   120A      5.910057   121A      6.215129  
     122A      7.070387   123A      7.173305   124A      7.265193  
     125A      7.471488   126A      7.528266  

    Final Occupation by Irrep:
              A 
    DOCC [    13 ]

  @DF-RKS Final Energy:  -155.03796996485198

   => Energetics <=

    Nuclear Repulsion Energy =             84.0782969360620172
    One-Electron Energy =                -376.1877180148268849
    Two-Electron Energy =                 154.6325699988321389
    DFT Exchange-Correlation Energy =     -17.5611188849192814
    Empirical Dispersion Energy =           0.0000000000000000
    VV10 Nonlocal Energy =                  0.0000000000000000
    Total Energy =                       -155.0379699648519818

Computation Completed


Properties will be evaluated at   0.000000,   0.000000,   0.000000 [a0]

Properties computed using the SCF density matrix

  Nuclear Dipole Moment: [e a0]
     X:    -0.0000      Y:     2.5674      Z:     0.0000

  Electronic Dipole Moment: [e a0]
     X:     0.0000      Y:    -2.1064      Z:    -0.0000

  Dipole Moment: [e a0]
     X:    -0.0000      Y:     0.4610      Z:    -0.0000     Total:     0.4610

  Dipole Moment: [D]
     X:    -0.0000      Y:     1.1719      Z:    -0.0000     Total:     1.1719


*** tstop() called on n046 at Mon Nov  1 16:07:05 2021
Module time:
	user time   =      45.31 seconds =       0.76 minutes
	system time =       0.85 seconds =       0.01 minutes
	total time  =         46 seconds =       0.77 minutes
Total time:
	user time   =      45.31 seconds =       0.76 minutes
	system time =       0.85 seconds =       0.01 minutes
	total time  =         46 seconds =       0.77 minutes
Grab this energy -155.03796996485198
    Psi4 stopped on: Monday, 01 November 2021 04:07PM
    Psi4 wall time for execution: 0:00:46.20

*** Psi4 exiting successfully. Buy a developer a beer!
