
    -----------------------------------------------------------------------
          Psi4: An Open-Source Ab Initio Electronic Structure Package
                               Psi4 1.4a2.dev629 

                         Git: Rev {master} 2938fc2 dirty


    D. G. A. Smith, L. A. Burns, A. C. Simmonett, R. M. Parrish,
    M. C. Schieber, R. Galvelis, P. Kraus, H. Kruse, R. Di Remigio,
    A. Alenaizan, A. M. James, S. Lehtola, J. P. Misiewicz, M. Scheurer,
    R. A. Shaw, J. B. Schriber, Y. Xie, Z. L. Glick, D. A. Sirianni,
    J. S. O'Brien, J. M. Waldrop, A. Kumar, E. G. Hohenstein,
    B. P. Pritchard, B. R. Brooks, H. F. Schaefer III, A. Yu. Sokolov,
    K. Patkowski, A. E. DePrince III, U. Bozkaya, R. A. King,
    F. A. Evangelista, J. M. Turney, T. D. Crawford, C. D. Sherrill,
    J. Chem. Phys. 152(18) 184108 (2020). https://doi.org/10.1063/5.0006002

                            Additional Code Authors
    E. T. Seidl, C. L. Janssen, E. F. Valeev, M. L. Leininger,
    J. F. Gonthier, R. M. Richard, H. R. McAlexander, M. Saitow, X. Wang,
    P. Verma, and M. H. Lechner

             Previous Authors, Complete List of Code Contributors,
                       and Citations for Specific Modules
    https://github.com/psi4/psi4/blob/master/codemeta.json
    https://github.com/psi4/psi4/graphs/contributors
    http://psicode.org/psi4manual/master/introduction.html#citing-psifour

    -----------------------------------------------------------------------


    Psi4 started on: Monday, 01 November 2021 04:00PM

    Process ID: 17803
    Host:       n078
    PSIDATADIR: /opt/psi/4/master/share/psi4
    Memory:     500.0 MiB
    Threads:    1
    
  ==> Input File <==

--------------------------------------------------------------------------
import os
memory 14 GB 
 
molecule {
 C   -2.1926519454    0.4765670594    0.0000000000
 O   -0.0000000001   -1.0409566793    0.0000000000
 C    2.1926519460    0.4765670593    0.0000000000
 H   -3.8219354903   -0.7888435119    0.0000000000
 H   -2.2758853883    1.6884116336   -1.6856831256
 H   -2.2758853883    1.6884116336    1.6856831256
 H    2.2758853781    1.6884116536    1.6856831155
 H    2.2758853781    1.6884116536   -1.6856831155
 H    3.8219354902   -0.7888435220    0.0000000000
units bohr
}

basis {

assign 6-31g_2dfp_

[ 6-31g_2dfp_ ]

spherical

!----------------------------------------------------------------------
! Basis Set Exchange
! Version v0.8.13
! https://www.basissetexchange.org
!----------------------------------------------------------------------
!   Basis set: 6-31G(2df,p)
! Description: 6-31G(2df,p)
!        Role: orbital
!     Version: 0  (Data from the original Basis Set Exchange)
!----------------------------------------------------------------------


****
H     0
S    3   1.00
     18.7311370              0.03349460
      2.8253937              0.23472695
      0.6401217              0.81375733
S    1   1.00
      0.1612778              1.00000000
P    1   1.00
      1.5000000              1.0000000
P    1   1.00
      0.3750000              1.0000000
****
B     0
S    6   1.00
   2068.8823000              0.0018663
    310.6495700              0.0142515
     70.6830330              0.0695516
     19.8610800              0.2325729
      6.2993048              0.4670787
      2.1270270              0.3634314
SP   3   1.00
      4.7279710             -0.1303938              0.0745976
      1.1903377             -0.1307889              0.3078467
      0.3594117              1.1309444              0.7434568
SP   1   1.00
      0.1267512              1.0000000              1.0000000
D    1   1.00
      0.8020000              1.0000000
D    1   1.00
      0.2005000              1.0000000
F    1   1.00
      0.5000000              1.0000000
****
C     0
S    6   1.00
   3047.5249000              0.0018347
    457.3695100              0.0140373
    103.9486900              0.0688426
     29.2101550              0.2321844
      9.2866630              0.4679413
      3.1639270              0.3623120
SP   3   1.00
      7.8682724             -0.1193324              0.0689991
      1.8812885             -0.1608542              0.3164240
      0.5442493              1.1434564              0.7443083
SP   1   1.00
      0.1687144              1.0000000              1.0000000
D    1   1.00
      1.2520000              1.0000000
D    1   1.00
      0.3130000              1.0000000
F    1   1.00
      0.8000000              1.0000000
****
N     0
S    6   1.00
   4173.5110000              0.0018348
    627.4579000              0.0139950
    142.9021000              0.0685870
     40.2343300              0.2322410
     12.8202100              0.4690700
      4.3904370              0.3604550
SP   3   1.00
     11.6263580             -0.1149610              0.0675800
      2.7162800             -0.1691180              0.3239070
      0.7722180              1.1458520              0.7408950
SP   1   1.00
      0.2120313              1.0000000              1.0000000
D    1   1.00
      1.8260000              1.0000000
D    1   1.00
      0.4565000              1.0000000
F    1   1.00
      1.0000000              1.0000000
****
O     0
S    6   1.00
   5484.6717000              0.0018311
    825.2349500              0.0139501
    188.0469600              0.0684451
     52.9645000              0.2327143
     16.8975700              0.4701930
      5.7996353              0.3585209
SP   3   1.00
     15.5396160             -0.1107775              0.0708743
      3.5999336             -0.1480263              0.3397528
      1.0137618              1.1307670              0.7271586
SP   1   1.00
      0.2700058              1.0000000              1.0000000
D    1   1.00
      2.5840000              1.0000000
D    1   1.00
      0.6460000              1.0000000
F    1   1.00
      1.4000000              1.0000000
****
F     0
S    6   1.00
   7001.7130900              0.0018196169
   1051.3660900              0.0139160796
    239.2856900              0.0684053245
     67.3974453              0.233185760
     21.5199573              0.471267439
      7.40310130             0.356618546
SP   3   1.00
     20.8479528             -0.108506975            0.0716287243
      4.80830834            -0.146451658            0.3459121030
      1.34406986             1.128688580            0.7224699570
SP   1   1.00
      0.358151393            1.0000000              1.0000000
D    1   1.00
      3.5000000              1.0000000
D    1   1.00
      0.8750000              1.0000000
F    1   1.00
      1.8500000              1.0000000
****
Al     0
S    6   1.00
  13983.1000000              0.00194267
   2098.7500000              0.0148599
    477.7050000              0.0728494
    134.3600000              0.2468300
     42.8709000              0.4872580
     14.5189000              0.3234960
SP   6   1.00
    239.6680000             -0.00292619             0.00460285
     57.4419000             -0.0374080              0.0331990
     18.2859000             -0.1144870              0.1362820
      6.5991400              0.1156350              0.3304760
      2.4904900              0.6125950              0.4491460
      0.9445400              0.3937990              0.2657040
SP   3   1.00
      1.2779000             -0.2276060             -0.0175130
      0.3975900              0.00144583             0.2445330
      0.1600950              1.0927900              0.8049340
SP   1   1.00
      0.0556577              1.0000000              1.0000000
D    1   1.00
      0.6500000              1.0000000
D    1   1.00
      0.1625000              1.0000000
F    1   1.00
      0.2500000              1.0000000
****
Si     0
S    6   1.00
  16115.9000000              0.00195948
   2425.5800000              0.01492880
    553.8670000              0.07284780
    156.3400000              0.24613000
     50.0683000              0.48591400
     17.0178000              0.32500200
SP   6   1.00
    292.7180000             -0.00278094             0.00443826
     69.8731000             -0.03571460             0.03266790
     22.3363000             -0.11498500             0.13472100
      8.1503900              0.09356340             0.32867800
      3.1345800              0.60301700             0.44964000
      1.2254300              0.41895900             0.26137200
SP   3   1.00
      1.7273800             -0.24463000            -0.01779510
      0.5729220              0.00431572             0.25353900
      0.2221920              1.09818000             0.80066900
SP   1   1.00
      0.0778369              1.00000000             1.00000000
D    1   1.00
      0.9000000              1.0000000
D    1   1.00
      0.2250000              1.0000000
F    1   1.00
      0.3200000              1.0000000
****
P     0
S    6   1.00
  19413.3000000              0.0018516
   2909.4200000              0.0142062
    661.3640000              0.0699995
    185.7590000              0.2400790
     59.1943000              0.4847620
     20.0310000              0.3352000
SP   6   1.00
    339.4780000             -0.00278217             0.00456462
     81.0101000             -0.0360499              0.03369360
     25.8780000             -0.1166310              0.13975500
      9.4522100              0.0968328              0.33936200
      3.6656600              0.6144180              0.45092100
      1.4674600              0.4037980              0.23858600
SP   3   1.00
      2.1562300             -0.2529230             -0.01776530
      0.7489970              0.0328517              0.27405800
      0.2831450              1.0812500              0.78542100
SP   1   1.00
      0.0998317              1.0000000              1.00000000
D    1   1.00
      1.1000000              1.0000000
D    1   1.00
      0.2750000              1.0000000
F    1   1.00
      0.4500000              1.0000000
****
S     0
S    6   1.00
  21917.1000000              0.0018690
   3301.4900000              0.0142300
    754.1460000              0.0696960
    212.7110000              0.2384870
     67.9896000              0.4833070
     23.0515000              0.3380740
SP   6   1.00
    423.7350000             -0.0023767              0.0040610
    100.7100000             -0.0316930              0.0306810
     32.1599000             -0.1133170              0.1304520
     11.8079000              0.0560900              0.3272050
      4.6311000              0.5922550              0.4528510
      1.8702500              0.4550060              0.2560420
SP   3   1.00
      2.6158400             -0.2503740             -0.0145110
      0.9221670              0.0669570              0.3102630
      0.3412870              1.0545100              0.7544830
SP   1   1.00
      0.1171670              1.0000000              1.0000000
D    1   1.00
      1.3000000              1.0000000
D    1   1.00
      0.3250000              1.0000000
F    1   1.00
      0.5500000              1.0000000
****
Cl     0
S    6   1.00
  25180.1000000              0.0018330
   3780.3500000              0.0140340
    860.4740000              0.0690970
    242.1450000              0.2374520
     77.3349000              0.4830340
     26.2470000              0.3398560
SP   6   1.00
    491.7650000             -0.0022974              0.0039894
    116.9840000             -0.0307140              0.0303180
     37.4153000             -0.1125280              0.1298800
     13.7834000              0.0450160              0.3279510
      5.4521500              0.5893530              0.4535270
      2.2258800              0.4652060              0.2521540
SP   3   1.00
      3.1864900             -0.2518300             -0.0142990
      1.1442700              0.0615890              0.3235720
      0.4203770              1.0601800              0.7435070
SP   1   1.00
      0.1426570              1.0000000              1.0000000
D    1   1.00
      1.5000000              1.0000000
D    1   1.00
      0.3750000              1.0000000
F    1   1.00
      0.7000000              1.0000000
****
}


set {
reference rhf                          
freeze_core true
e_convergence 10                       
d_convergence 10                      
dft_spherical_points 1202
dft_radial_points 99
}

e = energy('b3lyp')

print_out('Grab this energy {0}'.format(e))
--------------------------------------------------------------------------

  Memory set to  13.039 GiB by Python driver.

Scratch directory: /tmp/

*** tstart() called on n078
*** at Mon Nov  1 16:00:47 2021

   => Loading Basis Set <=

    Name: ANONYMOUS14FB86EE
    Role: ORBITAL
    Keyword: BASIS
    atoms 1, 3 entry C          line    48 inputblock 6-31g_2dfp_ 
    atoms 2    entry O          line    90 inputblock 6-31g_2dfp_ 
    atoms 4-9  entry H          line    15 inputblock 6-31g_2dfp_ 


         ---------------------------------------------------------
                                   SCF
               by Justin Turney, Rob Parrish, Andy Simmonett
                          and Daniel G. A. Smith
                              RKS Reference
                        1 Threads,  13351 MiB Core
         ---------------------------------------------------------

  ==> Geometry <==

    Molecular point group: cs
    Full point group: Cs

    Geometry (in Bohr), charge = 0, multiplicity = 1:

       Center              X                  Y                   Z               Mass       
    ------------   -----------------  -----------------  -----------------  -----------------
         C           -2.192651945073     0.476478926413     0.000000000000    12.000000000000
         O            0.000000000227    -1.041044812287     0.000000000000    15.994914619570
         C            2.192651946327     0.476478926313     0.000000000000    12.000000000000
         H           -3.821935489973    -0.788931644887     0.000000000000     1.007825032230
         H           -2.275885387973     1.688323500613    -1.685683125600     1.007825032230
         H           -2.275885387973     1.688323500613     1.685683125600     1.007825032230
         H            2.275885378427     1.688323520613     1.685683115500     1.007825032230
         H            2.275885378427     1.688323520613    -1.685683115500     1.007825032230
         H            3.821935490527    -0.788931654987     0.000000000000     1.007825032230

  Running in cs symmetry.

  Rotational constants: A =      1.28127  B =      0.33980  C =      0.29915 [cm^-1]
  Rotational constants: A =  38411.63639  B =  10186.83255  C =   8968.18184 [MHz]
  Nuclear repulsion =   84.006246168286381

  Charge       = 0
  Multiplicity = 1
  Electrons    = 26
  Nalpha       = 13
  Nbeta        = 13

  ==> Algorithm <==

  SCF Algorithm Type is DF.
  DIIS enabled.
  MOM disabled.
  Fractional occupation disabled.
  Guess Type is SAD.
  Energy threshold   = 1.00e-10
  Density threshold  = 1.00e-10
  Integral threshold = 0.00e+00

  ==> Primary Basis <==

  Basis Set: ANONYMOUS14FB86EE
    Blend: 6-31G_2DFP_
    Number of shells: 48
    Number of basis function: 126
    Number of Cartesian functions: 141
    Spherical Harmonics?: true
    Max angular momentum: 3

  ==> DFT Potential <==

   => Composite Functional: B3LYP <= 

    B3LYP Hyb-GGA Exchange-Correlation Functional

    P. J. Stephens, F. J. Devlin, C. F. Chabalowski, and M. J. Frisch, J. Phys. Chem. 98, 11623 (1994)

    Deriv               =              1
    GGA                 =           TRUE
    Meta                =          FALSE

    Exchange Hybrid     =           TRUE
    MP2 Hybrid          =          FALSE

   => Exchange Functionals <=

    0.0800   Slater exchange
    0.7200         Becke 88

   => Exact (HF) Exchange <=

    0.2000               HF 

   => Correlation Functionals <=

    0.1900   Vosko, Wilk & Nusair (VWN5_RPA)
    0.8100   Lee, Yang & Parr

   => Molecular Quadrature <=

    Radial Scheme          =       TREUTLER
    Pruning Scheme         =           NONE
    Nuclear Scheme         =       TREUTLER

    BS radius alpha        =              1
    Pruning alpha          =              1
    Radial Points          =             99
    Spherical Points       =           1202
    Total Points           =        1008034
    Total Blocks           =           6719
    Max Points             =            256
    Max Functions          =            126
    Weights Tolerance      =       1.00E-15

   => Loading Basis Set <=

    Name: (ANONYMOUS14FB86EE AUX)
    Role: JKFIT
    Keyword: DF_BASIS_SCF
    atoms 1, 3 entry C          line   198 file /opt/psi/4/master/share/psi4/basis/def2-universal-jkfit.gbs 
    atoms 2    entry O          line   318 file /opt/psi/4/master/share/psi4/basis/def2-universal-jkfit.gbs 
    atoms 4-9  entry H          line    18 file /opt/psi/4/master/share/psi4/basis/def2-universal-jkfit.gbs 

  ==> Integral Setup <==

  DFHelper Memory: AOs need 0.044 GiB; user supplied 6.680 GiB. Using in-core AOs.

  ==> MemDFJK: Density-Fitted J/K Matrices <==

    J tasked:                   Yes
    K tasked:                   Yes
    wK tasked:                   No
    OpenMP threads:               1
    Memory [MiB]:              6840
    Algorithm:                 Core
    Schwarz Cutoff:           1E-12
    Mask sparsity (%):       0.6551
    Fitting Condition:        1E-10

   => Auxiliary Basis Set <=

  Basis Set: (ANONYMOUS14FB86EE AUX)
    Blend: DEF2-UNIVERSAL-JKFIT
    Number of shells: 111
    Number of basis function: 335
    Number of Cartesian functions: 391
    Spherical Harmonics?: true
    Max angular momentum: 4

  Cached 100.0% of DFT collocation blocks in 3.099 [GiB].

  Minimum eigenvalue in the overlap matrix is 3.3579410647E-03.
  Reciprocal condition number of the overlap matrix is 6.5654081110E-04.
    Using symmetric orthogonalization.

  ==> Pre-Iterations <==

  SCF Guess: Superposition of Atomic Densities via on-the-fly atomic UHF (no occupation information).

   -------------------------
    Irrep   Nso     Nmo    
   -------------------------
     A'        79      79 
     A"        47      47 
   -------------------------
    Total     126     126
   -------------------------

  ==> Iterations <==

                           Total Energy        Delta E     RMS |[F,P]|

   @DF-RKS iter SAD:  -154.47356894675019   -1.54474e+02   0.00000e+00 
   @DF-RKS iter   1:  -154.84539026420197   -3.71821e-01   6.63298e-03 DIIS
   @DF-RKS iter   2:  -154.76651706391701    7.88732e-02   8.07732e-03 DIIS
   @DF-RKS iter   3:  -155.03269637712395   -2.66179e-01   1.28217e-03 DIIS
   @DF-RKS iter   4:  -155.03758605352408   -4.88968e-03   3.44889e-04 DIIS
   @DF-RKS iter   5:  -155.03796497421231   -3.78921e-04   5.59511e-05 DIIS
   @DF-RKS iter   6:  -155.03797570115441   -1.07269e-05   6.71903e-06 DIIS
   @DF-RKS iter   7:  -155.03797591207595   -2.10922e-07   1.47967e-06 DIIS
   @DF-RKS iter   8:  -155.03797592262032   -1.05444e-08   5.71926e-08 DIIS
   @DF-RKS iter   9:  -155.03797592263655   -1.62288e-11   1.04304e-08 DIIS
   @DF-RKS iter  10:  -155.03797592263680   -2.55795e-13   1.88462e-09 DIIS
   @DF-RKS iter  11:  -155.03797592263692   -1.13687e-13   1.35378e-10 DIIS
   @DF-RKS iter  12:  -155.03797592263703   -1.13687e-13   9.38301e-12 DIIS
  Energy and wave function converged.


  ==> Post-Iterations <==

    Orbital Energies [Eh]
    ---------------------

    Doubly Occupied:                                                      

       1Ap   -19.142814     2Ap   -10.219257     3Ap   -10.219237  
       4Ap    -1.029194     5Ap    -0.716348     6Ap    -0.636175  
       7Ap    -0.471812     8Ap    -0.468420     1App   -0.467956  
       2App   -0.392083     9Ap    -0.372605    10Ap    -0.319321  
       3App   -0.254940  

    Virtual:                                                              

      11Ap     0.080933    12Ap     0.133239    13Ap     0.138317  
      14Ap     0.141893     4App    0.151318    15Ap     0.175509  
       5App    0.183288    16Ap     0.236653    17Ap     0.402919  
       6App    0.446908    18Ap     0.460550    19Ap     0.468446  
       7App    0.468538    20Ap     0.510733     8App    0.519312  
      21Ap     0.555978     9App    0.580487    22Ap     0.599007  
      23Ap     0.601299    10App    0.614359    24Ap     0.615581  
      25Ap     0.629655    11App    0.701186    26Ap     0.791990  
      12App    0.820228    27Ap     0.822330    13App    0.896862  
      14App    0.964856    28Ap     0.977876    29Ap     0.994790  
      15App    1.023261    30Ap     1.041326    16App    1.083733  
      31Ap     1.092921    32Ap     1.132596    33Ap     1.221899  
      34Ap     1.230223    17App    1.283987    35Ap     1.313730  
      36Ap     1.321879    18App    1.358222    37Ap     1.385870  
      38Ap     1.395471    19App    1.420482    20App    1.470312  
      39Ap     1.508110    40Ap     1.680225    41Ap     1.688602  
      42Ap     1.705941    43Ap     1.776418    21App    1.790923  
      22App    1.893939    44Ap     1.925846    45Ap     1.990675  
      46Ap     2.014536    23App    2.045549    24App    2.078960  
      47Ap     2.255199    48Ap     2.375191    49Ap     2.896680  
      25App    2.902477    26App    2.943234    27App    2.948028  
      28App    2.957209    50Ap     3.037455    29App    3.041944  
      51Ap     3.106476    52Ap     3.112607    53Ap     3.174182  
      54Ap     3.223484    30App    3.226602    31App    3.242792  
      55Ap     3.288266    32App    3.370488    56Ap     3.460552  
      57Ap     3.515980    58Ap     3.606535    33App    3.620502  
      34App    3.645138    59Ap     3.662248    60Ap     3.772334  
      61Ap     3.824595    62Ap     3.837918    35App    4.072925  
      63Ap     4.105566    64Ap     4.167496    36App    4.213614  
      65Ap     4.233396    37App    4.237356    66Ap     4.273304  
      67Ap     4.306475    38App    4.359086    68Ap     4.392242  
      39App    4.422882    40App    4.516387    69Ap     4.780497  
      70Ap     4.937347    41App    5.051530    42App    5.148194  
      71Ap     5.192373    72Ap     5.194504    73Ap     5.343847  
      43App    5.410128    74Ap     5.559001    44App    5.743365  
      45App    5.813115    75Ap     5.907316    76Ap     6.210503  
      77Ap     7.069796    46App    7.172720    47App    7.264291  
      78Ap     7.469570    79Ap     7.526025  

    Final Occupation by Irrep:
             Ap   App 
    DOCC [    10,    3 ]

  @DF-RKS Final Energy:  -155.03797592263703

   => Energetics <=

    Nuclear Repulsion Energy =             84.0062461682863812
    One-Electron Energy =                -376.0509572510151202
    Two-Electron Energy =                 154.5641663284660865
    DFT Exchange-Correlation Energy =     -17.5574311683743787
    Empirical Dispersion Energy =           0.0000000000000000
    VV10 Nonlocal Energy =                  0.0000000000000000
    Total Energy =                       -155.0379759226370311

Computation Completed


Properties will be evaluated at   0.000000,   0.000000,   0.000000 [a0]

Properties computed using the SCF density matrix

  Nuclear Dipole Moment: [e a0]
     X:    -0.0000      Y:     2.5648      Z:     0.0000

  Electronic Dipole Moment: [e a0]
     X:     0.0000      Y:    -2.1027      Z:     0.0000

  Dipole Moment: [e a0]
     X:    -0.0000      Y:     0.4622      Z:     0.0000     Total:     0.4622

  Dipole Moment: [D]
     X:    -0.0000      Y:     1.1747      Z:     0.0000     Total:     1.1747


*** tstop() called on n078 at Mon Nov  1 16:01:29 2021
Module time:
	user time   =      41.60 seconds =       0.69 minutes
	system time =       0.79 seconds =       0.01 minutes
	total time  =         42 seconds =       0.70 minutes
Total time:
	user time   =      41.60 seconds =       0.69 minutes
	system time =       0.79 seconds =       0.01 minutes
	total time  =         42 seconds =       0.70 minutes
Grab this energy -155.03797592263703
    Psi4 stopped on: Monday, 01 November 2021 04:01PM
    Psi4 wall time for execution: 0:00:42.44

*** Psi4 exiting successfully. Buy a developer a beer!
