
 Primary working directories    : /tmp/984874.427.gen6.q
 Secondary working directories  : /tmp/984874.427.gen6.q
 Wavefunction directory         : /home/vulcan/mel64643/wfu/
 Main file repository           : /tmp/984874.427.gen6.q/

 ARCHNAME  : Linux/x86_64
 FC        : /opt/intel/compilers_and_libraries_2016.1.150/linux/bin/intel64/ifort
 FCVERSION : 16.0.1
 BLASLIB   : -mkl
 id        : ccgc

 Nodes     nprocs
 n081         1
 ga_uses_ma=false, calling ma_init with nominal heap.
 GA-space will be limited to   8.0 MW (determined by -G option)

 Using customized tuning parameters: mindgm=10; mindgv=16; mindgc=4; mindgr=1; noblas=0; mincuda=1000; minvec=7
 default implementation of scratch files=df  

 ***,Optimization of formic acid
 memory,1000,m
 gthresh,energy=1.0d-12,orbital=1.0d-10,oneint=1.0d-16,twoint=1.0d-16,optgrad=1.0d-6,compress=1.0d-13
 geomtyp=xyz
 
 
 
 bohr
 geometry = {
  C   -3.5011500835   -0.8253045812   -0.0000000000
  O   -3.1004285712    1.6290611957    0.0000000000
  O   -1.8822062272   -2.4721048480   -0.0000000000
  H   -5.5171248874   -1.2825586005   -0.0000000000
  H   -1.2466895499    1.9514953345    0.0000000000
  C    3.5002557498    0.8293410360    0.0000000000
  O    3.0995342374   -1.6250247409   -0.0000000000
  O    1.8813118934    2.4761413028    0.0000000000
  H    5.5207022225    1.2664127813   -0.0000000000
  H    1.2457952162   -1.9474588797   -0.0000000000
 }
 
 basis=VTZ
 {rhf;maxit,200}
 {ccsd(t);maxit,200}

 Variables initialized (661), CPU time= 0.01 sec
 Commands  initialized (458), CPU time= 0.00 sec, 486 directives.
 Default parameters read. Elapsed time= 0.04 sec

 Checking input...
 Passed
1


                                         ***  PROGRAM SYSTEM MOLPRO  ***
                         Copyright, University College Cardiff Consultants Limited, 2008

                                    Version 2010.1 linked May 16 2016 07:17:05


 **********************************************************************************************************************************
 LABEL *   Optimization of formic acid                                                   
 Linux-4.4.3/n081(x86_64) 64 bit mpp version                                             DATE: 24-Jan-24          TIME: 17:05:29  
 **********************************************************************************************************************************

 SHA1:             9e8077add272b0f3cad6f7df79ec5211205f459d
 **********************************************************************************************************************************

 THRESHOLDS:

 ZERO    =  1.00D-12  ONEINT  =  1.00D-16  TWOINT  =  1.00D-16  PREFAC  =  1.00D-14  LOCALI  =  1.00D-09  EORDER  =  1.00D-04
 ENERGY  =  1.00D-12  ETEST   =  0.00D+00  EDENS   =  0.00D+00  THRDEDEF=  1.00D-06  GRADIENT=  1.00D-02  STEP    =  1.00D-03
 ORBITAL =  1.00D-10  CIVEC   =  1.00D-05  COEFF   =  1.00D-04  PRINTCI =  5.00D-02  PUNCHCI =  9.90D+01  OPTGRAD =  1.00D-06
 OPTENERG=  1.00D-06  OPTSTEP =  3.00D-04  THRGRAD =  1.00D-10  COMPRESS=  1.00D-13  VARMIN  =  1.00D-07  VARMAX  =  1.00D-03
 THRDOUB =  0.00D+00  THRDIV  =  1.00D-05  THRRED  =  1.00D-07  THRPSP  =  1.00D+00  THRDC   =  1.00D-10  THRCS   =  1.00D-10
 THRNRM  =  1.00D-08  THREQ   =  0.00D+00  THRDE   =  1.00D+00  THRREF  =  1.00D-05  SPARFAC =  1.00D+00  THRDLP  =  1.00D-07
 THRDIA  =  1.00D-10  THRDLS  =  1.00D-07  THRGPS  =  0.00D+00  THRKEX  =  0.00D+00  THRDIS  =  2.00D-01  THRVAR  =  1.00D-10
 THRLOC  =  1.00D-06  THRGAP  =  1.00D-06  THRLOCT = -1.00D+00  THRGAPT = -1.00D+00  THRORB  =  1.00D-06  THRMLTP =  0.00D+00
 THRCPQCI=  1.00D-10  KEXTA   =  0.00D+00  THRCOARS=  0.00D+00  SYMTOL  =  1.00D-06  GRADTOL =  1.00D-06  THROVL  =  1.00D-08
 THRORTH =  1.00D-08  GRID    =  1.00D-06  GRIDMAX =  1.00D-03  DTMAX   =  0.00D+00

 SETTING GEOMTYP        =    XYZ
 ZUNIT=BOHR
 

 Variable memory set to 1000000000 words,  buffer space   230000 words

 SETTING BASIS          =    VTZ


 Recomputing integrals since basis changed


 Using spherical harmonics

 Library entry C      S cc-pVTZ              selected for orbital group  1
 Library entry C      P cc-pVTZ              selected for orbital group  1
 Library entry C      D cc-pVTZ              selected for orbital group  1
 Library entry C      F cc-pVTZ              selected for orbital group  1
 Library entry O      S cc-pVTZ              selected for orbital group  2
 Library entry O      P cc-pVTZ              selected for orbital group  2
 Library entry O      D cc-pVTZ              selected for orbital group  2
 Library entry O      F cc-pVTZ              selected for orbital group  2
 Library entry H      S cc-pVTZ              selected for orbital group  3
 Library entry H      P cc-pVTZ              selected for orbital group  3
 Library entry H      D cc-pVTZ              selected for orbital group  3

1PROGRAM * SEWARD (Integral evaluation for generally contracted gaussian basis sets)     Author: Roland Lindh, 1990

 Geometry written to block  1 of record 700


 Point group  Cs  



 ATOMIC COORDINATES

 NR  ATOM    CHARGE       X              Y              Z

   1  C       6.00   -3.501150083   -0.825304581    0.000000000
   2  O       8.00   -3.100428571    1.629061196    0.000000000
   3  O       8.00   -1.882206227   -2.472104848    0.000000000
   4  H       1.00   -5.517124887   -1.282558601    0.000000000
   5  H       1.00   -1.246689550    1.951495334    0.000000000
   6  C       6.00    3.500255750    0.829341036    0.000000000
   7  O       8.00    3.099534237   -1.625024741    0.000000000
   8  O       8.00    1.881311893    2.476141303    0.000000000
   9  H       1.00    5.520702222    1.266412781    0.000000000
  10  H       1.00    1.245795216   -1.947458880    0.000000000

 Bond lengths in Bohr (Angstrom)

 1-2  2.486863305  1-3  2.309313822  1-4  2.067180604  2-5  1.881571719  6-7  2.486863305
     ( 1.315991383)     ( 1.222036243)     ( 1.093904862)     ( 0.995684871)     ( 1.315991383)

  6- 8  2.309313822   6- 9  2.067180606   7-10  1.881571719
       ( 1.222036243)       ( 1.093904864)       ( 0.995684871)

 Bond angles

  1-2-5  109.13994963   2-1-3  126.21591402   2-1-4  112.05214497   3-1-4  121.73194101

  6- 7-10  109.13994963   7- 6- 8  126.21591402   7- 6- 9  111.47918717   8- 6- 9  122.30489881

 NUCLEAR CHARGE:                   48
 NUMBER OF PRIMITIVE AOS:         350
 NUMBER OF SYMMETRY AOS:          316
 NUMBER OF CONTRACTIONS:          236   ( 160A'  +  76A"  )
 NUMBER OF CORE ORBITALS:           6   (   6A'  +   0A"  )
 NUMBER OF VALENCE ORBITALS:       28   (  22A'  +   6A"  )


 NUCLEAR REPULSION ENERGY  235.55892735


 Eigenvalues of metric

         1 0.132E-02 0.141E-02 0.159E-02 0.159E-02 0.224E-02 0.268E-02 0.353E-02 0.361E-02
         2 0.289E-01 0.290E-01 0.387E-01 0.392E-01 0.431E-01 0.439E-01 0.715E-01 0.758E-01


 Contracted 2-electron integrals neglected if value below      1.0D-16
 AO integral compression algorithm  1   Integral accuracy      1.0D-16

     1240.990 MB (compressed) written to integral file ( 72.2%)

     Node minimum: 1240.990 MB, node maximum: 1240.990 MB


 NUMBER OF SORTED TWO-ELECTRON INTEGRALS:  200296481.     BUFFER LENGTH:  32768
 NUMBER OF SEGMENTS:  13  SEGMENT LENGTH:   15999503      RECORD LENGTH: 524288

 Memory used in sort:      16.56 MW

 SORT1 READ   214786171. AND WROTE   182054114. INTEGRALS IN    528 RECORDS. CPU TIME:     2.46 SEC, REAL TIME:     3.55 SEC
 SORT2 READ   182054114. AND WROTE   200296481. INTEGRALS IN   4734 RECORDS. CPU TIME:     1.60 SEC, REAL TIME:     2.24 SEC

 FILE SIZES:   FILE 1:  1207.6 MBYTE,  FILE 4:  2214.6 MBYTE,   TOTAL:   3422.2 MBYTE

 OPERATOR DM      FOR CENTER  0  COORDINATES:    0.000000    0.000000    0.000000


 **********************************************************************************************************************************
 DATASETS  * FILE   NREC   LENGTH (MB)   RECORD NAMES
              1      19     1207.97       500      610      700      900      950      970     1000      129      960     1100   
                                          VAR    BASINP    GEOM    SYMINP    ZMAT    AOBASIS   BASIS     P2S    ABASIS      S 
                                         1400     1410     1200     1210     1080     1600     1650     1300     1700   
                                           T        V       H0       H01     AOSYM     SMH    MOLCAS    ERIS     OPER   

 PROGRAMS   *        TOTAL       INT
 CPU TIMES  *        17.81     17.76
 REAL TIME  *        20.37 SEC
 DISK USED  *         4.66 GB      
 GA USED    *         0.01 MB       (max)       0.00 MB       (current)
 **********************************************************************************************************************************

1PROGRAM * RHF-SCF (CLOSED SHELL)       Authors: W. Meyer, H.-J. Werner


 NUMBER OF ELECTRONS:      24+   24-
 CONVERGENCE THRESHOLDS:    1.00E-10 (Density)    1.00E-13 (Energy)
 MAX. NUMBER OF ITERATIONS:      200
 INTERPOLATION TYPE:            DIIS
 INTERPOLATION STEPS:              2 (START)      1 (STEP)
 LEVEL SHIFTS:                  0.00 (CLOSED)  0.00 (OPEN) 



 Orbital guess generated from atomic densities. Full valence occupancy:   28   6

 Molecular orbital dump at record        2100.2

 Initial alpha occupancy:  20   4
 Initial beta  occupancy:  20   4
 Wave function symmetry:    1

 ITERATION    DDIFF          GRAD             ENERGY        2-EL.EN.            DIPOLE MOMENTS         DIIS
    1      0.000D+00      0.000D+00      -377.56168432    747.302644   -0.00081    0.00106    0.00000    0
    2      0.000D+00      0.668D-02      -377.64934886    744.244301    0.00029   -0.00312    0.00000    1
    3      0.108D-01      0.436D-02      -377.69888583    746.569215   -0.00016   -0.00137    0.00000    2
    4      0.424D-02      0.581D-03      -377.70042545    746.252792   -0.00005   -0.00157    0.00000    3
    5      0.800D-03      0.255D-03      -377.70070264    746.291733   -0.00005   -0.00153    0.00000    4
    6      0.333D-03      0.739D-04      -377.70075050    746.336019   -0.00002   -0.00155    0.00000    5
    7      0.128D-03      0.320D-04      -377.70076164    746.318479   -0.00001   -0.00155    0.00000    6
    8      0.705D-04      0.103D-04      -377.70076295    746.324289   -0.00000   -0.00154    0.00000    7
    9      0.270D-04      0.330D-05      -377.70076306    746.322804   -0.00000   -0.00155    0.00000    8
   10      0.802D-05      0.992D-06      -377.70076308    746.323003   -0.00000   -0.00154    0.00000    7
   11      0.268D-05      0.295D-06      -377.70076308    746.322952    0.00000   -0.00155    0.00000    8
   12      0.819D-06      0.514D-07      -377.70076308    746.322955   -0.00000   -0.00154    0.00000    8
   13      0.130D-06      0.187D-07      -377.70076308    746.322953    0.00000   -0.00155    0.00000    8
   14      0.292D-07      0.877D-08      -377.70076308    746.322954   -0.00000   -0.00154    0.00000    8
   15      0.153D-07      0.177D-08      -377.70076308    746.322954   -0.00000   -0.00155    0.00000    8
   16      0.349D-08      0.743D-09      -377.70076308    746.322954   -0.00000   -0.00155    0.00000    8
   17      0.109D-08      0.211D-09      -377.70076308    746.322954   -0.00000   -0.00155    0.00000    8
   18      0.349D-09      0.671D-10      -377.70076308    746.322954   -0.00000   -0.00155    0.00000    8
   19      0.110D-09      0.242D-10      -377.70076308    746.322954   -0.00000   -0.00155    0.00000    8
   20      0.438D-10      0.865D-11      -377.70076308    746.322954   -0.00000   -0.00155    0.00000    0

 Final occupancy:  20   4

 !RHF STATE 1.1 Energy               -377.700763077641
 Nuclear energy                       235.55892735
 One-electron energy                 -986.42116729
 Two-electron energy                  373.16147686
 Virial quotient                       -1.00167176
 !RHF STATE 1.1 Dipole moment          -0.00000003    -0.00154502     0.00000000
 Dipole moment /Debye                  -0.00000007    -0.00392679     0.00000000

 Orbital energies:

         1.1          2.1          3.1          4.1          5.1          6.1          7.1          8.1          9.1         10.1
    -20.613996   -20.613753   -20.573524   -20.573262   -11.406190   -11.406128    -1.482941    -1.470172    -1.384718    -1.370719

        11.1         12.1         13.1         14.1         15.1         16.1         17.1         18.1         19.1         20.1
     -0.916875    -0.881112    -0.766655    -0.731317    -0.722581    -0.692718    -0.619861    -0.579051    -0.495881    -0.473081

        21.1         22.1
      0.163921     0.164777

         1.2          2.2          3.2          4.2          5.2          6.2
     -0.643305    -0.633075    -0.504762    -0.493429     0.147023     0.154165


 **********************************************************************************************************************************
 DATASETS  * FILE   NREC   LENGTH (MB)   RECORD NAMES
              1      19     1207.97       500      610      700      900      950      970     1000      129      960     1100   
                                          VAR    BASINP    GEOM    SYMINP    ZMAT    AOBASIS   BASIS     P2S    ABASIS      S 
                                         1400     1410     1200     1210     1080     1600     1650     1300     1700   
                                           T        V       H0       H01     AOSYM     SMH    MOLCAS    ERIS     OPER   

              2       3        1.08       700     1000     2100   
                                         GEOM     BASIS     RHF  

 PROGRAMS   *        TOTAL       RHF       INT
 CPU TIMES  *        39.12     21.31     17.76
 REAL TIME  *        43.87 SEC
 DISK USED  *         4.66 GB      
 GA USED    *         0.01 MB       (max)       0.00 MB       (current)
 **********************************************************************************************************************************


1PROGRAM * CCSD (Closed-shell coupled cluster)     Authors: C. Hampel, H.-J. Werner, 1991, M. Deegan, P.J. Knowles, 1992


 Convergence thresholds:  THRVAR = 1.00D-08  THRDEN = 1.00D-12

 CCSD(T)     terms to be evaluated (factor= 1.000)


 Number of core orbitals:           6 (   6   0 )
 Number of closed-shell orbitals:  18 (  14   4 )
 Number of external orbitals:     212 ( 140  72 )

 Molecular orbitals read from record     2100.2  Type=RHF/CANONICAL (state 1.1)

 Number of N-1 electron functions:              18
 Number of N-2 electron functions:             171
 Number of singly external CSFs:              2248
 Number of doubly external CSFs:           3757972
 Total number of CSFs:                     3760221

 Length of J-op  integral file:               0.00 MB
 Length of K-op  integral file:               2.20 MB
 Length of 3-ext integral record:             0.00 MB

 Memory could be reduced to 109.30 Mwords without degradation in triples

 Integral transformation finished. Total CPU:   6.68 sec, npass=  1  Memory used:  37.15 MW

 Reference energy:                   -377.70076308

 MP2 singlet pair energy:              -0.77630780
 MP2 triplet pair energy:              -0.49235901
 MP2 correlation energy:               -1.26866681
 MP2 total energy:                   -378.96942988

 SCS-MP2 correlation energy:           -1.23792608   (PS=  1.200000  PT=  0.333333)
 SCS-MP2 total energy:               -378.93868915

 ITER.      SQ.NORM     CORR.ENERGY   TOTAL ENERGY   ENERGY CHANGE        DEN1      VAR(S)    VAR(P)  DIIS     TIME
   1      1.30951663    -1.27604296  -378.97680604    -0.00737616     0.02989479  0.10D-01  0.65D-02  1  1    18.47
   2      1.33262264    -1.27536182  -378.97612489     0.00068115    -0.02909799  0.23D-03  0.93D-03  2  2    30.47
   3      1.34381507    -1.27593911  -378.97670219    -0.00057729    -0.00515046  0.24D-03  0.46D-04  3  3    42.50
   4      1.34908347    -1.27568854  -378.97645162     0.00025057    -0.00196098  0.24D-04  0.88D-05  4  4    54.54
   5      1.35148831    -1.27563732  -378.97640040     0.00005122    -0.00054322  0.25D-05  0.83D-06  5  5    66.58
   6      1.35207271    -1.27558784  -378.97635092     0.00004948    -0.00005475  0.14D-06  0.80D-07  6  6    78.68
   7      1.35216429    -1.27558296  -378.97634604     0.00000488    -0.00000880  0.12D-07  0.12D-07  6  2    90.76
   8      1.35216029    -1.27558420  -378.97634727    -0.00000123     0.00000753  0.27D-08  0.13D-08  6  3   102.81
   9      1.35216956    -1.27558282  -378.97634590     0.00000138    -0.00000278  0.24D-09  0.13D-09  6  1   114.86
  10      1.35216892    -1.27558293  -378.97634601    -0.00000011     0.00000021  0.58D-10  0.25D-10  6  5   126.92
  11      1.35216911    -1.27558296  -378.97634604    -0.00000003     0.00000005  0.13D-10  0.44D-11  6  4   138.95
  12      1.35216884    -1.27558298  -378.97634606    -0.00000002     0.00000010  0.28D-11  0.73D-12  6  6   150.99
  13      1.35216864    -1.27558301  -378.97634609    -0.00000003     0.00000009  0.64D-12  0.16D-12  6  2   163.06
  14      1.35216856    -1.27558302  -378.97634609    -0.00000000     0.00000001  0.86D-13  0.41D-13  6  3   175.10
  15      1.35216852    -1.27558302  -378.97634609    -0.00000000     0.00000000  0.11D-13  0.47D-14  6  1   187.17
  16      1.35216851    -1.27558302  -378.97634610    -0.00000000     0.00000000  0.18D-14  0.88D-15  6  4   199.22
  17      1.35216851    -1.27558302  -378.97634610    -0.00000000    -0.00000000  0.29D-15  0.16D-15  6  5   211.26
  18      1.35216851    -1.27558302  -378.97634610    -0.00000000     0.00000000  0.42D-16  0.21D-16  6  6   223.32
  19      1.35216851    -1.27558302  -378.97634610    -0.00000000    -0.00000000  0.76D-17  0.43D-17  6  2   235.36
  20      1.35216851    -1.27558302  -378.97634610     0.00000000    -0.00000000  0.11D-17  0.60D-18  6  3   247.43
  21      1.35216851    -1.27558302  -378.97634610    -0.00000000     0.00000000  0.18D-18  0.87D-19  6  1   259.48
  22      1.35216851    -1.27558302  -378.97634610     0.00000000    -0.00000000  0.29D-19  0.13D-19  6  4   271.53
  23      1.35216851    -1.27558302  -378.97634610     0.00000000     0.00000000  0.55D-20  0.24D-20  6  2   283.60
  24      1.35216851    -1.27558302  -378.97634610     0.00000000    -0.00000000  0.16D-20  0.36D-21  6  5   295.58

 Norm of t1 vector:      0.14435461      S-energy:     0.00000000      T1 diagnostic:  0.01701235
                                                                       D1 diagnostic:  0.06091443

 Singles amplitudes (print threshold =  0.500E-01):

         I         SYM. A    A   T(IA)

        15         2         1      0.05363417
        16         2         2      0.05564921


 Total CPU time for triples:    337.18 sec


 RESULTS
 =======

  Reference energy                   -377.700763077641
  CCSD singlet pair energy             -0.840672921468
  CCSD triplet pair energy             -0.434910096339
  CCSD correlation energy              -1.275583017790

  Triples (T) contribution             -0.054455959074
  Total correlation energy             -1.330038976864

  CCSD total energy                  -378.976346095431
  CCSD[T] energy                     -379.034216270757
  CCSD-T energy                      -379.029429383816
 !CCSD(T) total energy               -379.030802054505

 Timing summary (sec):

 STEP                 CPU(USER)    SYS     CPU(TOT)    WALL
 Transformation          6.82      0.58      7.40      7.61
 CCSD iterations       288.77      7.32    296.09    296.32
 Triples               337.18      6.70    343.88    343.92

 Program statistics:

 Available memory in ccsd:               999998604
 Min. memory needed in ccsd:               9310224
 Max. memory used in ccsd:                12787052
 Max. memory used in cckext:              12250851 (24 integral passes)



 **********************************************************************************************************************************
 DATASETS  * FILE   NREC   LENGTH (MB)   RECORD NAMES
              1      20     1621.66       500      610      700      900      950      970     1000      129      960     1100   
                                          VAR    BASINP    GEOM    SYMINP    ZMAT    AOBASIS   BASIS     P2S    ABASIS      S 
                                         1400     1410     1200     1210     1080     1600     1650     1300     1700     1380   
                                           T        V       H0       H01     AOSYM     SMH    MOLCAS    ERIS     OPER     JKOP   

              2       3        1.08       700     1000     2100   
                                         GEOM     BASIS     RHF  

 PROGRAMS   *        TOTAL   CCSD(T)       RHF       INT
 CPU TIMES  *       671.90    632.79     21.31     17.76
 REAL TIME  *       691.80 SEC
 DISK USED  *         4.66 GB      
 GA USED    *         0.01 MB       (max)       0.00 MB       (current)
 **********************************************************************************************************************************

        CCSD(T)         RHF-SCF 
   -379.03080205   -377.70076308
 **********************************************************************************************************************************
 Variable memory released
