
 Primary working directories    : /tmp/1059987.448.gen6.q
 Secondary working directories  : /tmp/1059987.448.gen6.q
 Wavefunction directory         : /home/vulcan/jj04645/wfu/
 Main file repository           : /tmp/1059987.448.gen6.q/

 ARCHNAME  : Linux/x86_64
 FC        : /opt/intel/compilers_and_libraries_2016.1.150/linux/bin/intel64/ifort
 FCVERSION : 16.0.1
 BLASLIB   : -mkl
 id        : ccgc

 Nodes     nprocs
 n080         1
 ga_uses_ma=false, calling ma_init with nominal heap.
 GA-space will be limited to   8.0 MW (determined by -G option)

 Using customized tuning parameters: mindgm=10; mindgv=16; mindgc=4; mindgr=1; noblas=0; mincuda=1000; minvec=7
 default implementation of scratch files=df  

 ***,Optimization of 1_4_cyclohexadiene
 memory,1000,m
 gthresh,energy=1.0d-12,orbital=1.0d-10,oneint=1.0d-16,twoint=1.0d-16,optgrad=1.0d-6,compress=1.0d-13
 geomtyp=xyz
 
 bohr
 geometry = {
  H    4.1050991724   -0.0027907734   -1.6502687022
  C    2.8410808448   -0.0019314577    0.0000000000
  C   -1.2635016981    2.3682158076   -0.0000000000
  C   -1.2667205065   -2.3664956815   -0.0000000000
  C   -2.8410808448    0.0019314577   -0.0000000000
  C    1.2635016981   -2.3682158076   -0.0000000000
  C    1.2667205065    2.3664956815    0.0000000000
  H   -2.2719194126    4.1541023067   -0.0000000000
  H    2.2649218677    4.1581125259    0.0000000000
  H   -4.1050991724    0.0027907734   -1.6502687022
  H    2.2719194126   -4.1541023067   -0.0000000000
  H   -2.2649218677   -4.1581125259   -0.0000000000
  H    4.1050991724   -0.0027907734    1.6502687022
  H   -4.1050991724    0.0027907734    1.6502687022
 }
 
 basis=VDZ
 {rhf;maxit,200}
 {ccsd(t);maxit,200}

 Variables initialized (661), CPU time= 0.00 sec
 Commands  initialized (458), CPU time= 0.00 sec, 486 directives.
 Default parameters read. Elapsed time= 0.04 sec

 Checking input...
 Passed
1


                                         ***  PROGRAM SYSTEM MOLPRO  ***
                         Copyright, University College Cardiff Consultants Limited, 2008

                                    Version 2010.1 linked May 16 2016 07:17:05


 **********************************************************************************************************************************
 LABEL *   Optimization of 1_4_cyclohexadiene                                            
 Linux-4.4.3/n080(x86_64) 64 bit mpp version                                             DATE: 06-May-24          TIME: 15:13:06  
 **********************************************************************************************************************************

 SHA1:             9e8077add272b0f3cad6f7df79ec5211205f459d
 **********************************************************************************************************************************

 THRESHOLDS:

 ZERO    =  1.00D-12  ONEINT  =  1.00D-16  TWOINT  =  1.00D-16  PREFAC  =  1.00D-14  LOCALI  =  1.00D-09  EORDER  =  1.00D-04
 ENERGY  =  1.00D-12  ETEST   =  0.00D+00  EDENS   =  0.00D+00  THRDEDEF=  1.00D-06  GRADIENT=  1.00D-02  STEP    =  1.00D-03
 ORBITAL =  1.00D-10  CIVEC   =  1.00D-05  COEFF   =  1.00D-04  PRINTCI =  5.00D-02  PUNCHCI =  9.90D+01  OPTGRAD =  1.00D-06
 OPTENERG=  1.00D-06  OPTSTEP =  3.00D-04  THRGRAD =  1.00D-10  COMPRESS=  1.00D-13  VARMIN  =  1.00D-07  VARMAX  =  1.00D-03
 THRDOUB =  0.00D+00  THRDIV  =  1.00D-05  THRRED  =  1.00D-07  THRPSP  =  1.00D+00  THRDC   =  1.00D-10  THRCS   =  1.00D-10
 THRNRM  =  1.00D-08  THREQ   =  0.00D+00  THRDE   =  1.00D+00  THRREF  =  1.00D-05  SPARFAC =  1.00D+00  THRDLP  =  1.00D-07
 THRDIA  =  1.00D-10  THRDLS  =  1.00D-07  THRGPS  =  0.00D+00  THRKEX  =  0.00D+00  THRDIS  =  2.00D-01  THRVAR  =  1.00D-10
 THRLOC  =  1.00D-06  THRGAP  =  1.00D-06  THRLOCT = -1.00D+00  THRGAPT = -1.00D+00  THRORB  =  1.00D-06  THRMLTP =  0.00D+00
 THRCPQCI=  1.00D-10  KEXTA   =  0.00D+00  THRCOARS=  0.00D+00  SYMTOL  =  1.00D-06  GRADTOL =  1.00D-06  THROVL  =  1.00D-08
 THRORTH =  1.00D-08  GRID    =  1.00D-06  GRIDMAX =  1.00D-03  DTMAX   =  0.00D+00

 SETTING GEOMTYP        =    XYZ
 ZUNIT=BOHR
 

 Variable memory set to 1000000000 words,  buffer space   230000 words

 SETTING BASIS          =    VDZ


 Recomputing integrals since basis changed


 Using spherical harmonics

 Library entry H      S cc-pVDZ              selected for orbital group  1
 Library entry H      P cc-pVDZ              selected for orbital group  1
 Library entry C      S cc-pVDZ              selected for orbital group  2
 Library entry C      P cc-pVDZ              selected for orbital group  2
 Library entry C      D cc-pVDZ              selected for orbital group  2

1PROGRAM * SEWARD (Integral evaluation for generally contracted gaussian basis sets)     Author: Roland Lindh, 1990

 Geometry written to block  1 of record 700


 Point group  C2h 



 ATOMIC COORDINATES

 NR  ATOM    CHARGE       X              Y              Z

   1  H       1.00    4.105099172   -0.002790773   -1.650268702
   2  H       1.00   -4.105099172    0.002790773   -1.650268702
   3  H       1.00    4.105099172   -0.002790773    1.650268702
   4  H       1.00   -4.105099172    0.002790773    1.650268702
   5  C       6.00    2.841080845   -0.001931458    0.000000000
   6  C       6.00   -2.841080845    0.001931458    0.000000000
   7  C       6.00   -1.263501698    2.368215808    0.000000000
   8  C       6.00    1.263501698   -2.368215808    0.000000000
   9  C       6.00   -1.266720507   -2.366495682    0.000000000
  10  C       6.00    1.266720507    2.366495682    0.000000000
  11  H       1.00   -2.271919413    4.154102307    0.000000000
  12  H       1.00    2.271919413   -4.154102307    0.000000000
  13  H       1.00    2.264921868    4.158112526    0.000000000
  14  H       1.00   -2.264921868   -4.158112526    0.000000000

 Bond lengths in Bohr (Angstrom)

 1-5  2.078732753  2-6  2.078732753  3-5  2.078732753  4-6  2.078732753  5-8  2.843951052
     ( 1.100017997)     ( 1.100017997)     ( 1.100017997)     ( 1.100017997)     ( 1.504954080)

  5-10  2.843951052   6- 7  2.843951052   6- 9  2.843951052   7-10  2.530222789   7-11  2.050925858
       ( 1.504954080)       ( 1.504954080)       ( 1.504954080)       ( 1.338936234)       ( 1.085303221)

  8- 9  2.530222789   8-12  2.050925858   9-14  2.050925858  10-13  2.050925858
       ( 1.338936234)       ( 1.085303221)       ( 1.085303221)       ( 1.085303221)

 Bond angles

  1- 5- 3  105.09958672   1- 5- 8  109.69187838   1- 5-10  109.69187816   2- 6- 4  105.09958672

  2- 6- 7  109.69187838   2- 6- 9  109.69187816   3- 5- 8  109.69187838   3- 5-10  109.69187816

  4- 6- 7  109.69187838   4- 6- 9  109.69187816   5- 8- 9  123.65205889   5- 8-12  116.85733342

  5-10- 7  123.65205889   5-10-13  117.26247711   6- 7-10  123.65205889   6- 7-11  116.85733342

  6- 9- 8  123.65205889   6- 9-14  117.26247711   7- 6- 9  112.69588222   7-10-13  119.08546400

  8- 5-10  112.69588222   8- 9-14  119.08546400   9- 8-12  119.49060769  10- 7-11  119.49060769

 NUCLEAR CHARGE:                   44
 NUMBER OF PRIMITIVE AOS:         218
 NUMBER OF SYMMETRY AOS:          212
 NUMBER OF CONTRACTIONS:          124   (  43Ag  +  19Au  +  43Bu  +  19Bg  )
 NUMBER OF CORE ORBITALS:           6   (   3Ag  +   0Au  +   3Bu  +   0Bg  )
 NUMBER OF VALENCE ORBITALS:       32   (  12Ag  +   4Au  +  12Bu  +   4Bg  )


 NUCLEAR REPULSION ENERGY  217.70929779


 Eigenvalues of metric

         1 0.169E-02 0.345E-02 0.432E-02 0.143E-01 0.183E-01 0.273E-01 0.312E-01 0.393E-01
         2 0.358E-01 0.384E-01 0.990E-01 0.112E+00 0.200E+00 0.243E+00 0.350E+00 0.423E+00
         3 0.670E-03 0.315E-02 0.562E-02 0.164E-01 0.257E-01 0.259E-01 0.320E-01 0.360E-01
         4 0.227E-01 0.369E-01 0.771E-01 0.147E+00 0.170E+00 0.308E+00 0.351E+00 0.358E+00


 Contracted 2-electron integrals neglected if value below      1.0D-16
 AO integral compression algorithm  1   Integral accuracy      1.0D-16

     77.857 MB (compressed) written to integral file (100.0%)

     Node minimum: 77.857 MB, node maximum: 77.857 MB


 NUMBER OF SORTED TWO-ELECTRON INTEGRALS:    7884547.     BUFFER LENGTH:  32768
 NUMBER OF SEGMENTS:   1  SEGMENT LENGTH:    7884547      RECORD LENGTH: 524288

 Memory used in sort:       8.44 MW

 SORT1 READ     9486160. AND WROTE     7884547. INTEGRALS IN     23 RECORDS. CPU TIME:     0.15 SEC, REAL TIME:     0.20 SEC
 SORT2 READ     7884547. AND WROTE     7884547. INTEGRALS IN    297 RECORDS. CPU TIME:     0.13 SEC, REAL TIME:     0.16 SEC

 FILE SIZES:   FILE 1:    67.6 MBYTE,  FILE 4:    96.5 MBYTE,   TOTAL:    164.1 MBYTE

 OPERATOR DM      FOR CENTER  0  COORDINATES:    0.000000    0.000000    0.000000


 **********************************************************************************************************************************
 DATASETS  * FILE   NREC   LENGTH (MB)   RECORD NAMES
              1      19       67.63       500      610      700      900      950      970     1000      129      960     1100   
                                          VAR    BASINP    GEOM    SYMINP    ZMAT    AOBASIS   BASIS     P2S    ABASIS      S 
                                         1400     1410     1200     1210     1080     1600     1650     1300     1700   
                                           T        V       H0       H01     AOSYM     SMH    MOLCAS    ERIS     OPER   

 PROGRAMS   *        TOTAL       INT
 CPU TIMES  *         1.69      1.66
 REAL TIME  *         2.00 SEC
 DISK USED  *       242.87 MB      
 GA USED    *         0.00 MB       (max)       0.00 MB       (current)
 **********************************************************************************************************************************

1PROGRAM * RHF-SCF (CLOSED SHELL)       Authors: W. Meyer, H.-J. Werner


 NUMBER OF ELECTRONS:      22+   22-
 CONVERGENCE THRESHOLDS:    1.00E-10 (Density)    1.00E-13 (Energy)
 MAX. NUMBER OF ITERATIONS:      200
 INTERPOLATION TYPE:            DIIS
 INTERPOLATION STEPS:              2 (START)      1 (STEP)
 LEVEL SHIFTS:                  0.00 (CLOSED)  0.00 (OPEN) 



 Orbital guess generated from atomic densities. Full valence occupancy:   15   4  15   4

 Molecular orbital dump at record        2100.2

 Initial alpha occupancy:   9   2   9   2
 Initial beta  occupancy:   9   2   9   2
 Wave function symmetry:    1

 ITERATION    DDIFF          GRAD             ENERGY        2-EL.EN.            DIPOLE MOMENTS         DIIS
    1      0.000D+00      0.000D+00      -231.78143513    590.392405    0.00000    0.00000    0.00000    0
    2      0.000D+00      0.837D-02      -231.84381634    585.529135    0.00000    0.00000    0.00000    1
    3      0.167D-01      0.329D-02      -231.85138714    587.856649    0.00000    0.00000    0.00000    2
    4      0.624D-02      0.112D-02      -231.85263230    587.246107    0.00000    0.00000    0.00000    3
    5      0.230D-02      0.114D-03      -231.85265058    587.251454    0.00000    0.00000    0.00000    4
    6      0.426D-03      0.247D-04      -231.85265118    587.248160    0.00000    0.00000    0.00000    5
    7      0.591D-04      0.814D-05      -231.85265124    587.249235    0.00000    0.00000    0.00000    6
    8      0.234D-04      0.157D-05      -231.85265124    587.249121    0.00000    0.00000    0.00000    7
    9      0.542D-05      0.323D-06      -231.85265124    587.249158    0.00000    0.00000    0.00000    6
   10      0.121D-05      0.686D-07      -231.85265124    587.249152    0.00000    0.00000    0.00000    6
   11      0.256D-06      0.174D-07      -231.85265124    587.249154    0.00000    0.00000    0.00000    6
   12      0.357D-07      0.580D-08      -231.85265124    587.249153    0.00000    0.00000    0.00000    7
   13      0.122D-07      0.191D-08      -231.85265124    587.249153    0.00000    0.00000    0.00000    7
   14      0.486D-08      0.724D-09      -231.85265124    587.249153    0.00000    0.00000    0.00000    6
   15      0.240D-08      0.243D-09      -231.85265124    587.249153    0.00000    0.00000    0.00000    7
   16      0.830D-09      0.762D-10      -231.85265124    587.249153    0.00000    0.00000    0.00000    7
   17      0.238D-09      0.164D-10      -231.85265124    587.249153    0.00000    0.00000    0.00000    8
   18      0.601D-10      0.171D-11      -231.85265124    587.249153    0.00000    0.00000    0.00000    8
   19      0.410D-11      0.581D-12      -231.85265124    587.249153    0.00000    0.00000    0.00000    0

 Final occupancy:   9   2   9   2

 !RHF STATE 1.1 Energy               -231.852651244785
 Nuclear energy                       217.70929779
 One-electron energy                 -743.18652566
 Two-electron energy                  293.62457663
 Virial quotient                       -1.00121979
 !RHF STATE 1.1 Dipole moment           0.00000000     0.00000000     0.00000000
 Dipole moment /Debye                   0.00000000     0.00000000     0.00000000

 Orbital energies:

         1.1          2.1          3.1          4.1          5.1          6.1          7.1          8.1          9.1         10.1
    -11.234404   -11.229329   -11.227756    -1.122140    -0.861453    -0.784707    -0.678319    -0.490645    -0.445900     0.180594

        11.1
      0.245511

         1.2          2.2          3.2          4.2
     -0.594693    -0.329681     0.174419     0.256707

         1.3          2.3          3.3          4.3          5.3          6.3          7.3          8.3          9.3         10.3
    -11.234406   -11.229384   -11.227724    -1.008497    -1.004521    -0.654279    -0.597681    -0.561621    -0.531699     0.217349

        11.3
      0.223593

         1.4          2.4          3.4          4.4
     -0.560994    -0.358851     0.193002     0.279216


 **********************************************************************************************************************************
 DATASETS  * FILE   NREC   LENGTH (MB)   RECORD NAMES
              1      19       67.63       500      610      700      900      950      970     1000      129      960     1100   
                                          VAR    BASINP    GEOM    SYMINP    ZMAT    AOBASIS   BASIS     P2S    ABASIS      S 
                                         1400     1410     1200     1210     1080     1600     1650     1300     1700   
                                           T        V       H0       H01     AOSYM     SMH    MOLCAS    ERIS     OPER   

              2       3        0.59       700     1000     2100   
                                         GEOM     BASIS     RHF  

 PROGRAMS   *        TOTAL       RHF       INT
 CPU TIMES  *         2.08      0.39      1.66
 REAL TIME  *         2.49 SEC
 DISK USED  *       242.87 MB      
 GA USED    *         0.00 MB       (max)       0.00 MB       (current)
 **********************************************************************************************************************************


1PROGRAM * CCSD (Closed-shell coupled cluster)     Authors: C. Hampel, H.-J. Werner, 1991, M. Deegan, P.J. Knowles, 1992


 Convergence thresholds:  THRVAR = 1.00D-08  THRDEN = 1.00D-12

 CCSD(T)     terms to be evaluated (factor= 1.000)


 Number of core orbitals:           6 (   3   0   3   0 )
 Number of closed-shell orbitals:  16 (   6   2   6   2 )
 Number of external orbitals:     102 (  34  17  34  17 )

 Molecular orbitals read from record     2100.2  Type=RHF/CANONICAL (state 1.1)

 Number of N-1 electron functions:              16
 Number of N-2 electron functions:             136
 Number of singly external CSFs:               476
 Number of doubly external CSFs:            342992
 Total number of CSFs:                      343469

 Length of J-op  integral file:               0.00 MB
 Length of K-op  integral file:               0.33 MB
 Length of 3-ext integral record:             0.00 MB

 Memory could be reduced to 6.21 Mwords without degradation in triples

 Integral transformation finished. Total CPU:   0.16 sec, npass=  1  Memory used:   1.93 MW

 Reference energy:                   -231.85265124

 MP2 singlet pair energy:              -0.50652857
 MP2 triplet pair energy:              -0.29380812
 MP2 correlation energy:               -0.80033669
 MP2 total energy:                   -232.65298793

 SCS-MP2 correlation energy:           -0.79064822   (PS=  1.200000  PT=  0.333333)
 SCS-MP2 total energy:               -232.64329947

 ITER.      SQ.NORM     CORR.ENERGY   TOTAL ENERGY   ENERGY CHANGE        DEN1      VAR(S)    VAR(P)  DIIS     TIME
   1      1.31843369    -0.85480016  -232.70745140    -0.05446347    -0.03134937  0.31D-02  0.54D-02  1  1     0.51
   2      1.34667612    -0.86063525  -232.71328649    -0.00583509    -0.02423250  0.69D-04  0.70D-03  2  2     0.89
   3      1.35507822    -0.86094828  -232.71359953    -0.00031303    -0.00387317  0.20D-04  0.69D-04  3  3     1.26
   4      1.35862489    -0.86106945  -232.71372069    -0.00012116    -0.00107932  0.10D-05  0.68D-05  4  4     1.64
   5      1.35946078    -0.86108132  -232.71373257    -0.00001188    -0.00017838  0.50D-07  0.66D-06  5  5     2.00
   6      1.35961868    -0.86107365  -232.71372490     0.00000767    -0.00002590  0.49D-08  0.36D-07  6  6     2.38
   7      1.35963415    -0.86107432  -232.71372556    -0.00000066     0.00000108  0.16D-08  0.32D-08  6  2     2.75
   8      1.35963884    -0.86107418  -232.71372542     0.00000014    -0.00000094  0.56D-10  0.35D-09  6  1     3.13
   9      1.35963889    -0.86107425  -232.71372549    -0.00000007     0.00000044  0.18D-10  0.53D-10  6  3     3.50
  10      1.35963882    -0.86107429  -232.71372553    -0.00000004     0.00000017  0.80D-12  0.83D-11  6  4     3.87
  11      1.35963825    -0.86107432  -232.71372556    -0.00000003     0.00000022  0.86D-13  0.12D-11  6  6     4.24
  12      1.35963815    -0.86107433  -232.71372557    -0.00000001     0.00000005  0.20D-13  0.99D-13  6  5     4.61
  13      1.35963814    -0.86107433  -232.71372557     0.00000000    -0.00000000  0.76D-14  0.15D-13  6  2     4.98
  14      1.35963816    -0.86107432  -232.71372557     0.00000000    -0.00000001  0.55D-15  0.13D-14  6  1     5.35
  15      1.35963817    -0.86107432  -232.71372557     0.00000000    -0.00000000  0.17D-15  0.15D-15  6  3     5.73
  16      1.35963817    -0.86107432  -232.71372557     0.00000000    -0.00000000  0.19D-16  0.24D-16  6  4     6.09
  17      1.35963817    -0.86107432  -232.71372557    -0.00000000     0.00000000  0.34D-17  0.39D-17  6  6     6.46
  18      1.35963817    -0.86107432  -232.71372557    -0.00000000     0.00000000  0.23D-18  0.66D-18  6  5     6.83
  19      1.35963817    -0.86107432  -232.71372557     0.00000000     0.00000000  0.29D-19  0.15D-18  6  2     7.21
  20      1.35963817    -0.86107432  -232.71372557     0.00000000    -0.00000000  0.69D-21  0.26D-19  6  1     7.58
  21      1.35963817    -0.86107432  -232.71372557     0.00000000    -0.00000000  0.15D-21  0.18D-20  6  4     7.95
  22      1.35963817    -0.86107432  -232.71372557     0.00000000    -0.00000000  0.17D-22  0.86D-22  6  3     8.32

 Norm of t1 vector:      0.07885773      S-energy:    -0.00000000      T1 diagnostic:  0.00985722
                                                                       D1 diagnostic:  0.02884107

 Doubles amplitudes (print threshold =  0.500E-01):

         I         J         SYM. A    SYM. B    A         B      T(IJ, AB)

         8         8         4         4         1         1     -0.05805101
        16        16         2         2         1         1     -0.07473219
        16         8         2         4         1         1     -0.06097231


 Total CPU time for triples:      6.15 sec


 RESULTS
 =======

  Reference energy                   -231.852651244784
  CCSD singlet pair energy             -0.593760746169
  CCSD triplet pair energy             -0.267313576854
  CCSD correlation energy              -0.861074323024

  Triples (T) contribution             -0.032248602562
  Total correlation energy             -0.893322925585

  CCSD total energy                  -232.713725567808
  CCSD[T] energy                     -232.746708451700
  CCSD-T energy                      -232.745654916378
 !CCSD(T) total energy               -232.745974170370

 Timing summary (sec):

 STEP                 CPU(USER)    SYS     CPU(TOT)    WALL
 Transformation          0.17      0.05      0.22      0.21
 CCSD iterations         8.15      0.45      8.60      8.65
 Triples                 6.15      0.20      6.35      6.35

 Program statistics:

 Available memory in ccsd:               999998876
 Min. memory needed in ccsd:                930659
 Max. memory used in ccsd:                 1237935
 Max. memory used in cckext:               1232601 (22 integral passes)



 **********************************************************************************************************************************
 DATASETS  * FILE   NREC   LENGTH (MB)   RECORD NAMES
              1      20       91.95       500      610      700      900      950      970     1000      129      960     1100   
                                          VAR    BASINP    GEOM    SYMINP    ZMAT    AOBASIS   BASIS     P2S    ABASIS      S 
                                         1400     1410     1200     1210     1080     1600     1650     1300     1700     1380   
                                           T        V       H0       H01     AOSYM     SMH    MOLCAS    ERIS     OPER     JKOP   

              2       3        0.59       700     1000     2100   
                                         GEOM     BASIS     RHF  

 PROGRAMS   *        TOTAL   CCSD(T)       RHF       INT
 CPU TIMES  *        16.57     14.47      0.39      1.66
 REAL TIME  *        17.76 SEC
 DISK USED  *       242.87 MB      
 GA USED    *         0.00 MB       (max)       0.00 MB       (current)
 **********************************************************************************************************************************

        CCSD(T)         RHF-SCF 
   -232.74597417   -231.85265124
 **********************************************************************************************************************************
 Variable memory released
