
 Primary working directories    : /tmp/1047041.1419.gen4.q
 Secondary working directories  : /tmp/1047041.1419.gen4.q
 Wavefunction directory         : /home/vulcan/mel64643/wfu/
 Main file repository           : /tmp/1047041.1419.gen4.q/

 ARCHNAME  : Linux/x86_64
 FC        : /opt/intel/compilers_and_libraries_2016.1.150/linux/bin/intel64/ifort
 FCVERSION : 16.0.1
 BLASLIB   : -mkl
 id        : ccgc

 Nodes     nprocs
 n054         1
 ga_uses_ma=false, calling ma_init with nominal heap.
 GA-space will be limited to   8.0 MW (determined by -G option)

 Using customized tuning parameters: mindgm=10; mindgv=16; mindgc=4; mindgr=1; noblas=0; mincuda=1000; minvec=7
 default implementation of scratch files=df  

 ***,Optimization of ben_hcn
 memory,1000,m
 gthresh,energy=1.0d-12,orbital=1.0d-10,oneint=1.0d-16,twoint=1.0d-16,optgrad=1.0d-6,compress=1.0d-13
 geomtyp=xyz
 
 
 
 bohr
 geometry = {
  C   -1.8873426621    1.3688421467    2.2849540098
  C   -1.8565425154    2.6895128511   -0.0048946324
  C   -1.8758900223    1.3669770128   -2.2937768785
  C   -1.9166551458   -1.2761744453   -2.2927034980
  C   -1.9474409167   -2.5966624413   -0.0029853706
  C   -1.9280868089   -1.2743287792    2.2858050108
  H   -1.8619490209    2.3931559126    4.0581760172
  H   -1.8061523907    4.7368767192   -0.0056140276
  H   -1.8591921459    2.3901488227   -4.0677556603
  H   -1.9297821993   -2.3007077657   -4.0659006040
  H   -1.9855231183   -4.6442422447   -0.0022387792
  H   -1.9323942270   -2.2977062839    4.0597178251
  N    6.6244488977   -0.1933316716    0.0172836208
  C    4.4345702539   -0.0733809720    0.0146576848
  H    2.4147332689    0.0375446867    0.0123757962
 }
 
 basis=aug-cc-pvdz, H=cc-pvdz
 {rhf;maxit,200}
 {ccsd(t)}

 Variables initialized (661), CPU time= 0.00 sec
 Commands  initialized (458), CPU time= 0.01 sec, 486 directives.
 Default parameters read. Elapsed time= 0.05 sec

 Checking input...
 Passed
1


                                         ***  PROGRAM SYSTEM MOLPRO  ***
                         Copyright, University College Cardiff Consultants Limited, 2008

                                    Version 2010.1 linked May 16 2016 07:17:05


 **********************************************************************************************************************************
 LABEL *   Optimization of ben_hcn                                                       
 Linux-4.4.3/n054(x86_64) 64 bit mpp version                                             DATE: 10-Mar-24          TIME: 00:38:22  
 **********************************************************************************************************************************

 SHA1:             9e8077add272b0f3cad6f7df79ec5211205f459d
 **********************************************************************************************************************************

 THRESHOLDS:

 ZERO    =  1.00D-12  ONEINT  =  1.00D-16  TWOINT  =  1.00D-16  PREFAC  =  1.00D-14  LOCALI  =  1.00D-09  EORDER  =  1.00D-04
 ENERGY  =  1.00D-12  ETEST   =  0.00D+00  EDENS   =  0.00D+00  THRDEDEF=  1.00D-06  GRADIENT=  1.00D-02  STEP    =  1.00D-03
 ORBITAL =  1.00D-10  CIVEC   =  1.00D-05  COEFF   =  1.00D-04  PRINTCI =  5.00D-02  PUNCHCI =  9.90D+01  OPTGRAD =  1.00D-06
 OPTENERG=  1.00D-06  OPTSTEP =  3.00D-04  THRGRAD =  1.00D-10  COMPRESS=  1.00D-13  VARMIN  =  1.00D-07  VARMAX  =  1.00D-03
 THRDOUB =  0.00D+00  THRDIV  =  1.00D-05  THRRED  =  1.00D-07  THRPSP  =  1.00D+00  THRDC   =  1.00D-10  THRCS   =  1.00D-10
 THRNRM  =  1.00D-08  THREQ   =  0.00D+00  THRDE   =  1.00D+00  THRREF  =  1.00D-05  SPARFAC =  1.00D+00  THRDLP  =  1.00D-07
 THRDIA  =  1.00D-10  THRDLS  =  1.00D-07  THRGPS  =  0.00D+00  THRKEX  =  0.00D+00  THRDIS  =  2.00D-01  THRVAR  =  1.00D-10
 THRLOC  =  1.00D-06  THRGAP  =  1.00D-06  THRLOCT = -1.00D+00  THRGAPT = -1.00D+00  THRORB  =  1.00D-06  THRMLTP =  0.00D+00
 THRCPQCI=  1.00D-10  KEXTA   =  0.00D+00  THRCOARS=  0.00D+00  SYMTOL  =  1.00D-06  GRADTOL =  1.00D-06  THROVL  =  1.00D-08
 THRORTH =  1.00D-08  GRID    =  1.00D-06  GRIDMAX =  1.00D-03  DTMAX   =  0.00D+00

 SETTING GEOMTYP        =    XYZ
 ZUNIT=BOHR
 

 Variable memory set to 1000000000 words,  buffer space   230000 words

 SETTING BASIS          =    AUG-CC-PVDZ,H=CC-PVDZ


 Recomputing integrals since basis changed


 Using spherical harmonics

 Library entry C      S aug-cc-pVDZ          selected for orbital group  1
 Library entry C      P aug-cc-pVDZ          selected for orbital group  1
 Library entry C      D aug-cc-pVDZ          selected for orbital group  1
 Library entry H      S cc-pVDZ              selected for orbital group  2
 Library entry H      P cc-pVDZ              selected for orbital group  2
 Library entry N      S aug-cc-pVDZ          selected for orbital group  3
 Library entry N      P aug-cc-pVDZ          selected for orbital group  3
 Library entry N      D aug-cc-pVDZ          selected for orbital group  3

1PROGRAM * SEWARD (Integral evaluation for generally contracted gaussian basis sets)     Author: Roland Lindh, 1990

 Geometry written to block  1 of record 700


 Point group  C1  



 ATOMIC COORDINATES

 NR  ATOM    CHARGE       X              Y              Z

   1  C       6.00   -1.887342662    1.368842147    2.284954010
   2  C       6.00   -1.856542515    2.689512851   -0.004894632
   3  C       6.00   -1.875890022    1.366977013   -2.293776879
   4  C       6.00   -1.916655146   -1.276174445   -2.292703498
   5  C       6.00   -1.947440917   -2.596662441   -0.002985371
   6  C       6.00   -1.928086809   -1.274328779    2.285805011
   7  H       1.00   -1.861949021    2.393155913    4.058176017
   8  H       1.00   -1.806152391    4.736876719   -0.005614028
   9  H       1.00   -1.859192146    2.390148823   -4.067755660
  10  H       1.00   -1.929782199   -2.300707766   -4.065900604
  11  H       1.00   -1.985523118   -4.644242245   -0.002238779
  12  H       1.00   -1.932394227   -2.297706284    4.059717825
  13  N       7.00    6.624448898   -0.193331672    0.017283621
  14  C       6.00    4.434570254   -0.073380972    0.014657685
  15  H       1.00    2.414733269    0.037544687    0.012375796

 Bond lengths in Bohr (Angstrom)

 1-2  2.643582146  1-6  2.643485077  1-7  2.047969681  2-3  2.643569047  2-8  2.047984006
     ( 1.398923422)     ( 1.398872055)     ( 1.083738880)     ( 1.398916490)     ( 1.083746461)

  3- 4  2.643466016   3- 9  2.047964865   4- 5  2.643377653   4-10  2.047942582   5- 6  2.643388414
       ( 1.398861968)       ( 1.083736332)       ( 1.398815209)       ( 1.083724540)       ( 1.398820903)

  5-11  2.047934047   6-12  2.047946958  13-14  2.193162908  14-15  2.022881893
       ( 1.083720023)       ( 1.083726856)       ( 1.160571826)       ( 1.070462994)

 Bond angles

  1- 2- 3  119.99732746   1- 2- 8  120.00104890   1- 6- 5  120.00109621   1- 6-12  119.99741118

  2-1-6  119.99836238   2-1-7  119.99827273   2-3-4  119.99907148   2-3-9  119.99946018

  3- 2- 8  120.00057237   3- 4- 5  120.00116458   3- 4-10  119.99749770   4- 3- 9  120.00146826

  4- 5- 6  120.00214305   4- 5-11  119.99944855   5- 4-10  120.00110788   5- 6-12  120.00030634

  6- 1- 7  120.00089636   6- 5-11  119.99840379  13-14-15  179.99091354

 NUCLEAR CHARGE:                   56
 NUMBER OF PRIMITIVE AOS:         345
 NUMBER OF SYMMETRY AOS:          329
 NUMBER OF CONTRACTIONS:          219   ( 219A   )
 NUMBER OF CORE ORBITALS:           8   (   8A   )
 NUMBER OF VALENCE ORBITALS:       39   (  39A   )


 NUCLEAR REPULSION ENERGY  303.39230096


 Eigenvalues of metric

         1 0.865E-05 0.186E-04 0.229E-04 0.534E-04 0.630E-04 0.630E-04 0.929E-04 0.929E-04


 Contracted 2-electron integrals neglected if value below      1.0D-16
 AO integral compression algorithm  1   Integral accuracy      1.0D-16

     2341.732 MB (compressed) written to integral file ( 91.3%)

     Node minimum: 2341.732 MB, node maximum: 2341.732 MB


 NUMBER OF SORTED TWO-ELECTRON INTEGRALS:  290176095.     BUFFER LENGTH:  32768
 NUMBER OF SEGMENTS:  19  SEGMENT LENGTH:   15999762      RECORD LENGTH: 524288

 Memory used in sort:      16.56 MW

 SORT1 READ   320642736. AND WROTE   287603782. INTEGRALS IN    832 RECORDS. CPU TIME:     3.31 SEC, REAL TIME:     5.80 SEC
 SORT2 READ   287603782. AND WROTE   290176095. INTEGRALS IN   8933 RECORDS. CPU TIME:     1.88 SEC, REAL TIME:     3.08 SEC

 FILE SIZES:   FILE 1:  2152.5 MBYTE,  FILE 4:  3489.7 MBYTE,   TOTAL:   5642.2 MBYTE

 OPERATOR DM      FOR CENTER  0  COORDINATES:    0.000000    0.000000    0.000000


 **********************************************************************************************************************************
 DATASETS  * FILE   NREC   LENGTH (MB)   RECORD NAMES
              1      19     2153.05       500      610      700      900      950      970     1000      129      960     1100   
                                          VAR    BASINP    GEOM    SYMINP    ZMAT    AOBASIS   BASIS     P2S    ABASIS      S 
                                         1400     1410     1200     1210     1080     1600     1650     1300     1700   
                                           T        V       H0       H01     AOSYM     SMH    MOLCAS    ERIS     OPER   

 PROGRAMS   *        TOTAL       INT
 CPU TIMES  *        18.38     18.34
 REAL TIME  *        23.38 SEC
 DISK USED  *         7.98 GB      
 GA USED    *         0.01 MB       (max)       0.00 MB       (current)
 **********************************************************************************************************************************

1PROGRAM * RHF-SCF (CLOSED SHELL)       Authors: W. Meyer, H.-J. Werner


 NUMBER OF ELECTRONS:      28+   28-    SPACE SYMMETRY=1    SPIN SYMMETRY: Singlet 
 CONVERGENCE THRESHOLDS:    1.00E-10 (Density)    1.00E-13 (Energy)
 MAX. NUMBER OF ITERATIONS:      200
 INTERPOLATION TYPE:            DIIS
 INTERPOLATION STEPS:              2 (START)      1 (STEP)
 LEVEL SHIFTS:                  0.00 (CLOSED)  0.00 (OPEN) 



 Orbital guess generated from atomic densities. Full valence occupancy:   47

 Molecular orbital dump at record        2100.2

 ITERATION    DDIFF          GRAD             ENERGY        2-EL.EN.            DIPOLE MOMENTS         DIIS
    1      0.000D+00      0.000D+00      -323.54137543    822.121414   -1.89894    0.09994   -0.00247    0
    2      0.000D+00      0.292D-02      -323.59781473    819.101030   -1.36883    0.04854   -0.00296    1
    3      0.781D-02      0.179D-02      -323.61441064    820.246208   -1.72971    0.07688   -0.00305    2
    4      0.260D-02      0.576D-03      -323.61674700    820.447887   -1.63896    0.06986   -0.00301    3
    5      0.963D-03      0.133D-03      -323.61687633    820.187907   -1.66291    0.07053   -0.00309    4
    6      0.223D-03      0.229D-04      -323.61688246    820.214769   -1.66426    0.07050   -0.00310    5
    7      0.845D-04      0.434D-05      -323.61688266    820.209887   -1.66461    0.07042   -0.00311    6
    8      0.108D-04      0.123D-05      -323.61688268    820.210879   -1.66492    0.07048   -0.00310    7
    9      0.345D-05      0.268D-06      -323.61688268    820.210912   -1.66489    0.07044   -0.00311    6
   10      0.815D-06      0.722D-07      -323.61688268    820.210890   -1.66489    0.07047   -0.00310    6
   11      0.186D-06      0.366D-07      -323.61688268    820.210906   -1.66489    0.07046   -0.00310    7
   12      0.851D-07      0.740D-08      -323.61688268    820.210900   -1.66489    0.07046   -0.00310    7
   13      0.249D-07      0.296D-08      -323.61688268    820.210903   -1.66489    0.07046   -0.00310    7
   14      0.808D-08      0.117D-08      -323.61688268    820.210902   -1.66489    0.07046   -0.00310    7
   15      0.419D-08      0.629D-09      -323.61688268    820.210902   -1.66489    0.07046   -0.00310    8
   16      0.240D-08      0.299D-09      -323.61688268    820.210902   -1.66489    0.07046   -0.00310    8
   17      0.183D-08      0.137D-09      -323.61688268    820.210902   -1.66489    0.07046   -0.00310    9
   18      0.586D-09      0.294D-10      -323.61688268    820.210902   -1.66489    0.07046   -0.00310    9
   19      0.202D-09      0.924D-11      -323.61688268    820.210902   -1.66489    0.07046   -0.00310    9
   20      0.116D-09      0.286D-11      -323.61688268    820.210902   -1.66489    0.07046   -0.00310    9
   21      0.152D-09      0.135D-11      -323.61688268    820.210902   -1.66489    0.07046   -0.00310    9
   22      0.792D-10      0.919D-12      -323.61688268    820.210902   -1.66489    0.07046   -0.00310    9
   23      0.110D-09      0.731D-12      -323.61688268    820.210902   -1.66489    0.07046   -0.00310    9
   24      0.782D-10      0.522D-12      -323.61688268    820.210902   -1.66489    0.07046   -0.00310    9
   25      0.516D-10      0.623D-12      -323.61688268    820.210902   -1.66489    0.07046   -0.00310    9
   26      0.508D-10      0.518D-12      -323.61688268    820.210902   -1.66489    0.07046   -0.00310    9
   27      0.271D-10      0.456D-12      -323.61688268    820.210902   -1.66489    0.07046   -0.00310    9
   28      0.233D-10      0.547D-12      -323.61688268    820.210902   -1.66489    0.07046   -0.00310    9
   29      0.167D-10      0.449D-12      -323.61688268    820.210902   -1.66489    0.07046   -0.00310    9
   30      0.177D-10      0.514D-12      -323.61688268    820.210902   -1.66489    0.07046   -0.00310    9
   31      0.190D-10      0.480D-12      -323.61688268    820.210902   -1.66489    0.07046   -0.00310    9
   32      0.153D-10      0.470D-12      -323.61688268    820.210902   -1.66489    0.07046   -0.00310    9
   33      0.142D-10      0.509D-12      -323.61688268    820.210902   -1.66489    0.07046   -0.00310    9
   34      0.191D-10      0.429D-12      -323.61688268    820.210902   -1.66489    0.07046   -0.00310    9
   35      0.138D-10      0.491D-12      -323.61688268    820.210902   -1.66489    0.07046   -0.00310    9
   36      0.146D-10      0.420D-12      -323.61688268    820.210902   -1.66489    0.07046   -0.00310    9
   37      0.136D-10      0.383D-12      -323.61688268    820.210902   -1.66489    0.07046   -0.00310    9
   38      0.118D-10      0.394D-12      -323.61688268    820.210902   -1.66489    0.07046   -0.00310    9
   39      0.121D-10      0.424D-12      -323.61688268    820.210902   -1.66489    0.07046   -0.00310    9
   40      0.137D-10      0.369D-12      -323.61688268    820.210902   -1.66489    0.07046   -0.00310    9
   41      0.176D-10      0.468D-12      -323.61688268    820.210902   -1.66489    0.07046   -0.00310    9
   42      0.158D-10      0.398D-12      -323.61688268    820.210902   -1.66489    0.07046   -0.00310    9
   43      0.121D-10      0.385D-12      -323.61688268    820.210902   -1.66489    0.07046   -0.00310    9
   44      0.149D-10      0.327D-12      -323.61688268    820.210902   -1.66489    0.07046   -0.00310    9
   45      0.680D-11      0.452D-12      -323.61688268    820.210902   -1.66489    0.07046   -0.00310    0

 Final occupancy:  28

 !RHF STATE 1.1 Energy               -323.616882677361
 Nuclear energy                       303.39230096
 One-electron energy                -1037.11463474
 Two-electron energy                  410.10545111
 Virial quotient                       -1.00171002
 !RHF STATE 1.1 Dipole moment          -1.66488641     0.07045673    -0.00310328
 Dipole moment /Debye                  -4.23144201     0.17907141    -0.00788723

 Orbital energies:

         1.1          2.1          3.1          4.1          5.1          6.1          7.1          8.1          9.1         10.1
    -15.591650   -11.283865   -11.266254   -11.265703   -11.265692   -11.264522   -11.264509   -11.263923    -1.218336    -1.173918

        11.1         12.1         13.1         14.1         15.1         16.1         17.1         18.1         19.1         20.1
     -1.037788    -1.037787    -0.845719    -0.845717    -0.789910    -0.729360    -0.664878    -0.639191    -0.608563    -0.608560

        21.1         22.1         23.1         24.1         25.1         26.1         27.1         28.1         29.1         30.1
     -0.565229    -0.520372    -0.514859    -0.514853    -0.475691    -0.475687    -0.359668    -0.359661     0.055869     0.060083


 **********************************************************************************************************************************
 DATASETS  * FILE   NREC   LENGTH (MB)   RECORD NAMES
              1      19     2153.05       500      610      700      900      950      970     1000      129      960     1100   
                                          VAR    BASINP    GEOM    SYMINP    ZMAT    AOBASIS   BASIS     P2S    ABASIS      S 
                                         1400     1410     1200     1210     1080     1600     1650     1300     1700   
                                           T        V       H0       H01     AOSYM     SMH    MOLCAS    ERIS     OPER   

              2       3        1.49       700     1000     2100   
                                         GEOM     BASIS     RHF  

 PROGRAMS   *        TOTAL       RHF       INT
 CPU TIMES  *       119.81    101.43     18.34
 REAL TIME  *       134.90 SEC
 DISK USED  *         7.98 GB      
 GA USED    *         0.01 MB       (max)       0.00 MB       (current)
 **********************************************************************************************************************************


1PROGRAM * CCSD (Closed-shell coupled cluster)     Authors: C. Hampel, H.-J. Werner, 1991, M. Deegan, P.J. Knowles, 1992


 Convergence thresholds:  THRVAR = 1.00D-08  THRDEN = 1.00D-12

 CCSD(T)     terms to be evaluated (factor= 1.000)


 Number of core orbitals:           8 (   8 )
 Number of closed-shell orbitals:  20 (  20 )
 Number of external orbitals:     191 ( 191 )

 Molecular orbitals read from record     2100.2  Type=RHF/CANONICAL (state 1.1)

 Number of N-1 electron functions:              20
 Number of N-2 electron functions:             210
 Number of singly external CSFs:              3820
 Number of doubly external CSFs:           7298110
 Total number of CSFs:                     7301931

 Length of J-op  integral file:               0.00 MB
 Length of K-op  integral file:               3.32 MB
 Length of 3-ext integral record:             0.00 MB

 Memory could be reduced to 174.82 Mwords without degradation in triples

 Integral transformation finished. Total CPU:  19.05 sec, npass=  1  Memory used: 128.13 MW

 Reference energy:                   -323.61688268

 MP2 singlet pair energy:              -0.67334382
 MP2 triplet pair energy:              -0.43519829
 MP2 correlation energy:               -1.10854211
 MP2 total energy:                   -324.72542479

 SCS-MP2 correlation energy:           -1.07880263   (PS=  1.200000  PT=  0.333333)
 SCS-MP2 total energy:               -324.69568531

 ITER.      SQ.NORM     CORR.ENERGY   TOTAL ENERGY   ENERGY CHANGE        DEN1      VAR(S)    VAR(P)  DIIS     TIME
   1      1.42873386    -1.14462425  -324.76150693    -0.03608214    -0.00288972  0.51D-02  0.99D-02  1  1    71.06
   2      1.46305639    -1.15049774  -324.76738042    -0.00587349    -0.03103151  0.83D-04  0.13D-02  2  2   123.52
   3      1.47634828    -1.15094545  -324.76782812    -0.00044771    -0.00655956  0.40D-04  0.12D-03  3  3   176.00
   4      1.48204060    -1.15119514  -324.76807782    -0.00024970    -0.00178587  0.22D-05  0.15D-04  4  4   228.50
   5      1.48356999    -1.15123084  -324.76811352    -0.00003570    -0.00036587  0.25D-06  0.14D-05  5  5   281.05
   6      1.48387617    -1.15122233  -324.76810500     0.00000852    -0.00005025  0.24D-07  0.91D-07  6  6   333.59
   7      1.48391096    -1.15122574  -324.76810841    -0.00000341    -0.00000225  0.34D-08  0.80D-08  6  2   386.13
   8      1.48391563    -1.15122609  -324.76810877    -0.00000036    -0.00000042  0.41D-09  0.83D-09  6  1   438.66
   9      1.48391586    -1.15122626  -324.76810894    -0.00000017     0.00000079  0.63D-10  0.78D-10  6  3   491.23
  10      1.48391623    -1.15122632  -324.76810900    -0.00000006     0.00000002  0.10D-10  0.99D-11  6  4   543.75
  11      1.48391596    -1.15122636  -324.76810903    -0.00000004     0.00000022  0.16D-11  0.14D-11  6  5   596.28
  12      1.48391579    -1.15122637  -324.76810904    -0.00000001     0.00000008  0.25D-12  0.27D-12  6  6   648.81
  13      1.48391566    -1.15122637  -324.76810905    -0.00000000     0.00000005  0.14D-13  0.52D-13  6  2   701.34
  14      1.48391559    -1.15122637  -324.76810905    -0.00000000     0.00000002  0.21D-14  0.94D-14  6  1   753.89
  15      1.48391557    -1.15122637  -324.76810905     0.00000000     0.00000001  0.46D-15  0.13D-14  6  3   806.44
  16      1.48391556    -1.15122637  -324.76810905    -0.00000000     0.00000000  0.98D-16  0.19D-15  6  4   858.99
  17      1.48391555    -1.15122637  -324.76810905    -0.00000000     0.00000000  0.19D-16  0.28D-16  6  5   911.54
  18      1.48391555    -1.15122637  -324.76810905    -0.00000000     0.00000000  0.36D-17  0.36D-17  6  6   964.11
  19      1.48391555    -1.15122637  -324.76810905    -0.00000000     0.00000000  0.82D-18  0.60D-18  6  2  1016.64
  20      1.48391555    -1.15122637  -324.76810905    -0.00000000     0.00000000  0.18D-18  0.13D-18  6  1  1069.21
  21      1.48391555    -1.15122637  -324.76810905    -0.00000000     0.00000000  0.66D-19  0.40D-19  6  3  1121.75
  22      1.48391555    -1.15122637  -324.76810905     0.00000000     0.00000000  0.31D-19  0.18D-19  6  4  1174.30

 Norm of t1 vector:      0.09773669      S-energy:     0.00000000      T1 diagnostic:  0.01092729
                                                                       D1 diagnostic:  0.02771750


 Total CPU time for triples:   1081.19 sec


 RESULTS
 =======

  Reference energy                   -323.616882677361
  CCSD singlet pair energy             -0.770021015437
  CCSD triplet pair energy             -0.381205356327
  CCSD correlation energy              -1.151226371764

  Triples (T) contribution             -0.054015748174
  Total correlation energy             -1.205242119938

  CCSD total energy                  -324.768109049125
  CCSD[T] energy                     -324.823457115257
  CCSD-T energy                      -324.821519318883
 !CCSD(T) total energy               -324.822124797299

 Timing summary (sec):

 STEP                 CPU(USER)    SYS     CPU(TOT)    WALL
 Transformation         19.60      1.10     20.70     20.70
 CCSD iterations      1154.73     14.40   1169.13   1169.17
 Triples              1081.19     15.91   1097.10   1097.09

 Program statistics:

 Available memory in ccsd:               999998300
 Min. memory needed in ccsd:              17709720
 Max. memory used in ccsd:                24415330
 Max. memory used in cckext:              20754978 (22 integral passes)



 **********************************************************************************************************************************
 DATASETS  * FILE   NREC   LENGTH (MB)   RECORD NAMES
              1      20     2835.22       500      610      700      900      950      970     1000      129      960     1100   
                                          VAR    BASINP    GEOM    SYMINP    ZMAT    AOBASIS   BASIS     P2S    ABASIS      S 
                                         1400     1410     1200     1210     1080     1600     1650     1300     1700     1380   
                                           T        V       H0       H01     AOSYM     SMH    MOLCAS    ERIS     OPER     JKOP   

              2       3        1.49       700     1000     2100   
                                         GEOM     BASIS     RHF  

 PROGRAMS   *        TOTAL   CCSD(T)       RHF       INT
 CPU TIMES  *      2375.34   2255.53    101.43     18.34
 REAL TIME  *      2421.99 SEC
 DISK USED  *         7.98 GB      
 GA USED    *         0.01 MB       (max)       0.00 MB       (current)
 **********************************************************************************************************************************

        CCSD(T)         RHF-SCF 
   -324.82212480   -323.61688268
 **********************************************************************************************************************************
 Variable memory released
