[Molden Format]                                                                 
[ATOMS] AU                                                                      
N        1    7        0.9201932090        0.0000000000       -0.0000000000     
F        2    9       -0.2260809931        1.1624933744       -2.0134975879     
F        3    9       -0.2260809931       -2.3249867487        0.0000000000     
F        4    9       -0.2260809931        1.1624933744        2.0134975879     
[Molden Format]                                                                 
[GTO]                                                                           
  1 0
s  10 1.00
   11420.0000000000       5.230000000000000E-004                                
   1712.00000000000       4.045000000000000E-003                                
   389.300000000000       2.077500000000000E-002                                
   110.000000000000       8.072699999999999E-002                                
   35.5700000000000       0.233074000000000                                     
   12.5400000000000       0.433501000000000                                     
   4.64400000000000       0.347472000000000                                     
   1.29300000000000       4.126200000000000E-002                                
  0.511800000000000      -8.508000000000000E-003                                
  0.178700000000000       2.384000000000000E-003                                
s  10 1.00
   11420.0000000000      -1.150000000000000E-004                                
   1712.00000000000      -8.950000000000000E-004                                
   389.300000000000      -4.624000000000000E-003                                
   110.000000000000      -1.852800000000000E-002                                
   35.5700000000000      -5.733900000000000E-002                                
   12.5400000000000      -0.132076000000000                                     
   4.64400000000000      -0.172510000000000                                     
   1.29300000000000       0.151814000000000                                     
  0.511800000000000       0.599944000000000                                     
  0.178700000000000       0.387462000000000                                     
s  10 1.00
   11420.0000000000       0.000000000000000E+000                                
   1712.00000000000       0.000000000000000E+000                                
   389.300000000000       0.000000000000000E+000                                
   110.000000000000       0.000000000000000E+000                                
   35.5700000000000       0.000000000000000E+000                                
   12.5400000000000       0.000000000000000E+000                                
   4.64400000000000       0.000000000000000E+000                                
   1.29300000000000        1.00000000000000                                     
  0.511800000000000       0.000000000000000E+000                                
  0.178700000000000       0.000000000000000E+000                                
s  10 1.00
   11420.0000000000       0.000000000000000E+000                                
   1712.00000000000       0.000000000000000E+000                                
   389.300000000000       0.000000000000000E+000                                
   110.000000000000       0.000000000000000E+000                                
   35.5700000000000       0.000000000000000E+000                                
   12.5400000000000       0.000000000000000E+000                                
   4.64400000000000       0.000000000000000E+000                                
   1.29300000000000       0.000000000000000E+000                                
  0.511800000000000       0.000000000000000E+000                                
  0.178700000000000        1.00000000000000                                     
p   5 1.00
   26.6300000000000       1.467000000000000E-002                                
   5.94800000000000       9.176400000000000E-002                                
   1.74200000000000       0.298683000000000                                     
  0.555000000000000       0.498487000000000                                     
  0.172500000000000       0.337023000000000                                     
p   5 1.00
   26.6300000000000       0.000000000000000E+000                                
   5.94800000000000       0.000000000000000E+000                                
   1.74200000000000       0.000000000000000E+000                                
  0.555000000000000        1.00000000000000                                     
  0.172500000000000       0.000000000000000E+000                                
p   5 1.00
   26.6300000000000       0.000000000000000E+000                                
   5.94800000000000       0.000000000000000E+000                                
   1.74200000000000       0.000000000000000E+000                                
  0.555000000000000       0.000000000000000E+000                                
  0.172500000000000        1.00000000000000                                     
d   2 1.00
   1.65400000000000        1.00000000000000                                     
  0.469000000000000       0.000000000000000E+000                                
d   2 1.00
   1.65400000000000       0.000000000000000E+000                                
  0.469000000000000        1.00000000000000                                     
f   1 1.00
   1.09300000000000        1.00000000000000                                     
 
  2 0
s  10 1.00
   19500.0000000000       5.070000000000000E-004                                
   2923.00000000000       3.923000000000000E-003                                
   664.500000000000       2.020000000000000E-002                                
   187.500000000000       7.901000000000000E-002                                
   60.6200000000000       0.230439000000000                                     
   21.4200000000000       0.432872000000000                                     
   7.95000000000000       0.349964000000000                                     
   2.25700000000000       4.323300000000000E-002                                
  0.881500000000000      -7.892000000000000E-003                                
  0.304100000000000       2.384000000000000E-003                                
s  10 1.00
   19500.0000000000      -1.170000000000000E-004                                
   2923.00000000000      -9.120000000000001E-004                                
   664.500000000000      -4.717000000000000E-003                                
   187.500000000000      -1.908600000000000E-002                                
   60.6200000000000      -5.965500000000000E-002                                
   21.4200000000000      -0.140010000000000                                     
   7.95000000000000      -0.176782000000000                                     
   2.25700000000000       0.171625000000000                                     
  0.881500000000000       0.605043000000000                                     
  0.304100000000000       0.369512000000000                                     
s  10 1.00
   19500.0000000000       0.000000000000000E+000                                
   2923.00000000000       0.000000000000000E+000                                
   664.500000000000       0.000000000000000E+000                                
   187.500000000000       0.000000000000000E+000                                
   60.6200000000000       0.000000000000000E+000                                
   21.4200000000000       0.000000000000000E+000                                
   7.95000000000000       0.000000000000000E+000                                
   2.25700000000000        1.00000000000000                                     
  0.881500000000000       0.000000000000000E+000                                
  0.304100000000000       0.000000000000000E+000                                
s  10 1.00
   19500.0000000000       0.000000000000000E+000                                
   2923.00000000000       0.000000000000000E+000                                
   664.500000000000       0.000000000000000E+000                                
   187.500000000000       0.000000000000000E+000                                
   60.6200000000000       0.000000000000000E+000                                
   21.4200000000000       0.000000000000000E+000                                
   7.95000000000000       0.000000000000000E+000                                
   2.25700000000000       0.000000000000000E+000                                
  0.881500000000000       0.000000000000000E+000                                
  0.304100000000000        1.00000000000000                                     
p   5 1.00
   43.8800000000000       1.666500000000000E-002                                
   9.92600000000000       0.104472000000000                                     
   2.93000000000000       0.317260000000000                                     
  0.913200000000000       0.487343000000000                                     
  0.267200000000000       0.334604000000000                                     
p   5 1.00
   43.8800000000000       0.000000000000000E+000                                
   9.92600000000000       0.000000000000000E+000                                
   2.93000000000000       0.000000000000000E+000                                
  0.913200000000000        1.00000000000000                                     
  0.267200000000000       0.000000000000000E+000                                
p   5 1.00
   43.8800000000000       0.000000000000000E+000                                
   9.92600000000000       0.000000000000000E+000                                
   2.93000000000000       0.000000000000000E+000                                
  0.913200000000000       0.000000000000000E+000                                
  0.267200000000000        1.00000000000000                                     
d   2 1.00
   3.10700000000000        1.00000000000000                                     
  0.855000000000000       0.000000000000000E+000                                
d   2 1.00
   3.10700000000000       0.000000000000000E+000                                
  0.855000000000000        1.00000000000000                                     
f   1 1.00
   1.91700000000000        1.00000000000000                                     
 
  3 0
s  10 1.00
   19500.0000000000       5.070000000000000E-004                                
   2923.00000000000       3.923000000000000E-003                                
   664.500000000000       2.020000000000000E-002                                
   187.500000000000       7.901000000000000E-002                                
   60.6200000000000       0.230439000000000                                     
   21.4200000000000       0.432872000000000                                     
   7.95000000000000       0.349964000000000                                     
   2.25700000000000       4.323300000000000E-002                                
  0.881500000000000      -7.892000000000000E-003                                
  0.304100000000000       2.384000000000000E-003                                
s  10 1.00
   19500.0000000000      -1.170000000000000E-004                                
   2923.00000000000      -9.120000000000001E-004                                
   664.500000000000      -4.717000000000000E-003                                
   187.500000000000      -1.908600000000000E-002                                
   60.6200000000000      -5.965500000000000E-002                                
   21.4200000000000      -0.140010000000000                                     
   7.95000000000000      -0.176782000000000                                     
   2.25700000000000       0.171625000000000                                     
  0.881500000000000       0.605043000000000                                     
  0.304100000000000       0.369512000000000                                     
s  10 1.00
   19500.0000000000       0.000000000000000E+000                                
   2923.00000000000       0.000000000000000E+000                                
   664.500000000000       0.000000000000000E+000                                
   187.500000000000       0.000000000000000E+000                                
   60.6200000000000       0.000000000000000E+000                                
   21.4200000000000       0.000000000000000E+000                                
   7.95000000000000       0.000000000000000E+000                                
   2.25700000000000        1.00000000000000                                     
  0.881500000000000       0.000000000000000E+000                                
  0.304100000000000       0.000000000000000E+000                                
s  10 1.00
   19500.0000000000       0.000000000000000E+000                                
   2923.00000000000       0.000000000000000E+000                                
   664.500000000000       0.000000000000000E+000                                
   187.500000000000       0.000000000000000E+000                                
   60.6200000000000       0.000000000000000E+000                                
   21.4200000000000       0.000000000000000E+000                                
   7.95000000000000       0.000000000000000E+000                                
   2.25700000000000       0.000000000000000E+000                                
  0.881500000000000       0.000000000000000E+000                                
  0.304100000000000        1.00000000000000                                     
p   5 1.00
   43.8800000000000       1.666500000000000E-002                                
   9.92600000000000       0.104472000000000                                     
   2.93000000000000       0.317260000000000                                     
  0.913200000000000       0.487343000000000                                     
  0.267200000000000       0.334604000000000                                     
p   5 1.00
   43.8800000000000       0.000000000000000E+000                                
   9.92600000000000       0.000000000000000E+000                                
   2.93000000000000       0.000000000000000E+000                                
  0.913200000000000        1.00000000000000                                     
  0.267200000000000       0.000000000000000E+000                                
p   5 1.00
   43.8800000000000       0.000000000000000E+000                                
   9.92600000000000       0.000000000000000E+000                                
   2.93000000000000       0.000000000000000E+000                                
  0.913200000000000       0.000000000000000E+000                                
  0.267200000000000        1.00000000000000                                     
d   2 1.00
   3.10700000000000        1.00000000000000                                     
  0.855000000000000       0.000000000000000E+000                                
d   2 1.00
   3.10700000000000       0.000000000000000E+000                                
  0.855000000000000        1.00000000000000                                     
f   1 1.00
   1.91700000000000        1.00000000000000                                     
 
  4 0
s  10 1.00
   19500.0000000000       5.070000000000000E-004                                
   2923.00000000000       3.923000000000000E-003                                
   664.500000000000       2.020000000000000E-002                                
   187.500000000000       7.901000000000000E-002                                
   60.6200000000000       0.230439000000000                                     
   21.4200000000000       0.432872000000000                                     
   7.95000000000000       0.349964000000000                                     
   2.25700000000000       4.323300000000000E-002                                
  0.881500000000000      -7.892000000000000E-003                                
  0.304100000000000       2.384000000000000E-003                                
s  10 1.00
   19500.0000000000      -1.170000000000000E-004                                
   2923.00000000000      -9.120000000000001E-004                                
   664.500000000000      -4.717000000000000E-003                                
   187.500000000000      -1.908600000000000E-002                                
   60.6200000000000      -5.965500000000000E-002                                
   21.4200000000000      -0.140010000000000                                     
   7.95000000000000      -0.176782000000000                                     
   2.25700000000000       0.171625000000000                                     
  0.881500000000000       0.605043000000000                                     
  0.304100000000000       0.369512000000000                                     
s  10 1.00
   19500.0000000000       0.000000000000000E+000                                
   2923.00000000000       0.000000000000000E+000                                
   664.500000000000       0.000000000000000E+000                                
   187.500000000000       0.000000000000000E+000                                
   60.6200000000000       0.000000000000000E+000                                
   21.4200000000000       0.000000000000000E+000                                
   7.95000000000000       0.000000000000000E+000                                
   2.25700000000000        1.00000000000000                                     
  0.881500000000000       0.000000000000000E+000                                
  0.304100000000000       0.000000000000000E+000                                
s  10 1.00
   19500.0000000000       0.000000000000000E+000                                
   2923.00000000000       0.000000000000000E+000                                
   664.500000000000       0.000000000000000E+000                                
   187.500000000000       0.000000000000000E+000                                
   60.6200000000000       0.000000000000000E+000                                
   21.4200000000000       0.000000000000000E+000                                
   7.95000000000000       0.000000000000000E+000                                
   2.25700000000000       0.000000000000000E+000                                
  0.881500000000000       0.000000000000000E+000                                
  0.304100000000000        1.00000000000000                                     
p   5 1.00
   43.8800000000000       1.666500000000000E-002                                
   9.92600000000000       0.104472000000000                                     
   2.93000000000000       0.317260000000000                                     
  0.913200000000000       0.487343000000000                                     
  0.267200000000000       0.334604000000000                                     
p   5 1.00
   43.8800000000000       0.000000000000000E+000                                
   9.92600000000000       0.000000000000000E+000                                
   2.93000000000000       0.000000000000000E+000                                
  0.913200000000000        1.00000000000000                                     
  0.267200000000000       0.000000000000000E+000                                
p   5 1.00
   43.8800000000000       0.000000000000000E+000                                
   9.92600000000000       0.000000000000000E+000                                
   2.93000000000000       0.000000000000000E+000                                
  0.913200000000000       0.000000000000000E+000                                
  0.267200000000000        1.00000000000000                                     
d   2 1.00
   3.10700000000000        1.00000000000000                                     
  0.855000000000000       0.000000000000000E+000                                
d   2 1.00
   3.10700000000000       0.000000000000000E+000                                
  0.855000000000000        1.00000000000000                                     
f   1 1.00
   1.91700000000000        1.00000000000000                                     
 
                                                                                
  3 0                                                                           
s  10 1.00                                                                      
   19500.0000000000       5.070000000000000E-004                                
   2923.00000000000       3.923000000000000E-003                                
   664.500000000000       2.020000000000000E-002                                
   187.500000000000       7.901000000000000E-002                                
   60.6200000000000       0.230439000000000                                     
   21.4200000000000       0.432872000000000                                     
   7.95000000000000       0.349964000000000                                     
   2.25700000000000       4.323300000000000E-002                                
  0.881500000000000      -7.892000000000000E-003                                
  0.304100000000000       2.384000000000000E-003                                
s  10 1.00                                                                      
   19500.0000000000      -1.170000000000000E-004                                
   2923.00000000000      -9.120000000000001E-004                                
   664.500000000000      -4.717000000000000E-003                                
   187.500000000000      -1.908600000000000E-002                                
   60.6200000000000      -5.965500000000000E-002                                
   21.4200000000000      -0.140010000000000                                     
   7.95000000000000      -0.176782000000000                                     
   2.25700000000000       0.171625000000000                                     
  0.881500000000000       0.605043000000000                                     
  0.304100000000000       0.369512000000000                                     
s  10 1.00                                                                      
   19500.0000000000       0.000000000000000E+000                                
   2923.00000000000       0.000000000000000E+000                                
   664.500000000000       0.000000000000000E+000                                
   187.500000000000       0.000000000000000E+000                                
   60.6200000000000       0.000000000000000E+000                                
   21.4200000000000       0.000000000000000E+000                                
   7.95000000000000       0.000000000000000E+000                                
   2.25700000000000        1.00000000000000                                     
  0.881500000000000       0.000000000000000E+000                                
  0.304100000000000       0.000000000000000E+000                                
s  10 1.00                                                                      
   19500.0000000000       0.000000000000000E+000                                
   2923.00000000000       0.000000000000000E+000                                
   664.500000000000       0.000000000000000E+000                                
   187.500000000000       0.000000000000000E+000                                
   60.6200000000000       0.000000000000000E+000                                
   21.4200000000000       0.000000000000000E+000                                
   7.95000000000000       0.000000000000000E+000                                
   2.25700000000000       0.000000000000000E+000                                
  0.881500000000000       0.000000000000000E+000                                
  0.304100000000000        1.00000000000000                                     
p   5 1.00                                                                      
   43.8800000000000       1.666500000000000E-002                                
   9.92600000000000       0.104472000000000                                     
   2.93000000000000       0.317260000000000                                     
  0.913200000000000       0.487343000000000                                     
  0.267200000000000       0.334604000000000                                     
p   5 1.00                                                                      
   43.8800000000000       0.000000000000000E+000                                
   9.92600000000000       0.000000000000000E+000                                
   2.93000000000000       0.000000000000000E+000                                
  0.913200000000000        1.00000000000000                                     
  0.267200000000000       0.000000000000000E+000                                
p   5 1.00                                                                      
   43.8800000000000       0.000000000000000E+000                                
   9.92600000000000       0.000000000000000E+000                                
   2.93000000000000       0.000000000000000E+000                                
  0.913200000000000       0.000000000000000E+000                                
  0.267200000000000        1.00000000000000                                     
d   2 1.00                                                                      
   3.10700000000000        1.00000000000000                                     
  0.855000000000000       0.000000000000000E+000                                
d   2 1.00                                                                      
   3.10700000000000       0.000000000000000E+000                                
  0.855000000000000        1.00000000000000                                     
f   1 1.00                                                                      
   1.91700000000000        1.00000000000000                                     
                                                                                
[MO]                                                                            
 Sym= A                                                                         
 Ene=  -26.3874458130515                                                        
 Spin= Alpha                                                                    
 Occup= 1.0                                                                     
  1        0.0000000000                                                         
  2        0.0000000000                                                         
  3       -0.0000000000                                                         
  4       -0.0000000000                                                         
  5        0.0000000000                                                         
  6        0.0004450040                                                         
  7        0.0000000000                                                         
  8       -0.0000000000                                                         
  9       -0.0009643531                                                         
 10        0.0000000000                                                         
 11        0.0000000000                                                         
 12        0.0002679853                                                         
 13        0.0000000000                                                         
 14       -0.0000000000                                                         
 15        0.0000465681                                                         
 16       -0.0000465681                                                         
 17        0.0000870766                                                         
 18        0.0000000000                                                         
 19        0.0000000000                                                         
 20       -0.0000000000                                                         
 21        0.0002067435                                                         
 22       -0.0002067435                                                         
 23        0.0004554689                                                         
 24        0.0000000000                                                         
 25        0.0000000000                                                         
 26        0.0000000000                                                         
 27        0.0000006833                                                         
 28        0.0000000000                                                         
 29       -0.0001535248                                                         
 30       -0.0000027334                                                         
 31        0.0000000000                                                         
 32        0.0001535248                                                         
 33        0.0000006833                                                         
 34        0.0000000000                                                         
 35        0.0000000000                                                         
 36       -0.4080224393                                                         
 37        0.0005648483                                                         
 38       -0.0002439316                                                         