
 Primary working directories    : /tmp/878919.658.gen6.q
 Secondary working directories  : /tmp/878919.658.gen6.q
 Wavefunction directory         : /home/vulcan/lo21740/wfu/
 Main file repository           : /tmp/878919.658.gen6.q/

 ARCHNAME  : Linux/x86_64
 FC        : /opt/intel/compilers_and_libraries_2016.1.150/linux/bin/intel64/ifort
 FCVERSION : 16.0.1
 BLASLIB   : -mkl
 id        : ccgc

 Nodes     nprocs
 n087         1
 ga_uses_ma=false, calling ma_init with nominal heap.
 GA-space will be limited to   8.0 MW (determined by -G option)

 Using customized tuning parameters: mindgm=10; mindgv=16; mindgc=4; mindgr=1; noblas=0; mincuda=1000; minvec=7
 default implementation of scratch files=df  

 ***,Optimization of formamide
 memory,1000,m
 gthresh,energy=1.0d-12,orbital=1.0d-10,oneint=1.0d-16,twoint=1.0d-16,optgrad=1.0d-6,compress=1.0d-13
 geomtyp=xyz
 
 bohr
 geometry = {
  C   -3.8263666884    0.0850830092    0.0000000000
  O   -2.7260025426    2.1341739076    0.0000000000
  N   -2.6871445373   -2.1846466803    0.0000000000
  H   -3.7482797478   -3.7632881107    0.0000000000
  H   -0.7546692195   -2.3130390895   -0.0000000000
  H   -5.9007346132   -0.0187422546   -0.0000000000
  C    3.8235447714   -0.0799267198   -0.0000000000
  O    2.7254954880   -2.1371797631   -0.0000000000
  N    2.6862620161    2.1881972251   -0.0000000000
  H    3.7485508840    3.7612741271    0.0000000000
  H    0.7569555242    2.3108797405   -0.0000000000
  H    5.9023886651    0.0172146085   -0.0000000000
 }
 
 basis=VDZ
 {rhf;maxit,200}
 {ccsd(t);maxit,200}

 Variables initialized (661), CPU time= 0.00 sec
 Commands  initialized (458), CPU time= 0.01 sec, 486 directives.
 Default parameters read. Elapsed time= 0.04 sec

 Checking input...
 Passed
1


                                         ***  PROGRAM SYSTEM MOLPRO  ***
                         Copyright, University College Cardiff Consultants Limited, 2008

                                    Version 2010.1 linked May 16 2016 07:17:05


 **********************************************************************************************************************************
 LABEL *   Optimization of formamide                                                     
 Linux-4.4.3/n087(x86_64) 64 bit mpp version                                             DATE: 22-May-23          TIME: 21:08:37  
 **********************************************************************************************************************************

 SHA1:             9e8077add272b0f3cad6f7df79ec5211205f459d
 **********************************************************************************************************************************

 THRESHOLDS:

 ZERO    =  1.00D-12  ONEINT  =  1.00D-16  TWOINT  =  1.00D-16  PREFAC  =  1.00D-14  LOCALI  =  1.00D-09  EORDER  =  1.00D-04
 ENERGY  =  1.00D-12  ETEST   =  0.00D+00  EDENS   =  0.00D+00  THRDEDEF=  1.00D-06  GRADIENT=  1.00D-02  STEP    =  1.00D-03
 ORBITAL =  1.00D-10  CIVEC   =  1.00D-05  COEFF   =  1.00D-04  PRINTCI =  5.00D-02  PUNCHCI =  9.90D+01  OPTGRAD =  1.00D-06
 OPTENERG=  1.00D-06  OPTSTEP =  3.00D-04  THRGRAD =  1.00D-10  COMPRESS=  1.00D-13  VARMIN  =  1.00D-07  VARMAX  =  1.00D-03
 THRDOUB =  0.00D+00  THRDIV  =  1.00D-05  THRRED  =  1.00D-07  THRPSP  =  1.00D+00  THRDC   =  1.00D-10  THRCS   =  1.00D-10
 THRNRM  =  1.00D-08  THREQ   =  0.00D+00  THRDE   =  1.00D+00  THRREF  =  1.00D-05  SPARFAC =  1.00D+00  THRDLP  =  1.00D-07
 THRDIA  =  1.00D-10  THRDLS  =  1.00D-07  THRGPS  =  0.00D+00  THRKEX  =  0.00D+00  THRDIS  =  2.00D-01  THRVAR  =  1.00D-10
 THRLOC  =  1.00D-06  THRGAP  =  1.00D-06  THRLOCT = -1.00D+00  THRGAPT = -1.00D+00  THRORB  =  1.00D-06  THRMLTP =  0.00D+00
 THRCPQCI=  1.00D-10  KEXTA   =  0.00D+00  THRCOARS=  0.00D+00  SYMTOL  =  1.00D-06  GRADTOL =  1.00D-06  THROVL  =  1.00D-08
 THRORTH =  1.00D-08  GRID    =  1.00D-06  GRIDMAX =  1.00D-03  DTMAX   =  0.00D+00

 SETTING GEOMTYP        =    XYZ
 ZUNIT=BOHR
 

 Variable memory set to 1000000000 words,  buffer space   230000 words

 SETTING BASIS          =    VDZ


 Recomputing integrals since basis changed


 Using spherical harmonics

 Library entry C      S cc-pVDZ              selected for orbital group  1
 Library entry C      P cc-pVDZ              selected for orbital group  1
 Library entry C      D cc-pVDZ              selected for orbital group  1
 Library entry O      S cc-pVDZ              selected for orbital group  2
 Library entry O      P cc-pVDZ              selected for orbital group  2
 Library entry O      D cc-pVDZ              selected for orbital group  2
 Library entry N      S cc-pVDZ              selected for orbital group  3
 Library entry N      P cc-pVDZ              selected for orbital group  3
 Library entry N      D cc-pVDZ              selected for orbital group  3
 Library entry H      S cc-pVDZ              selected for orbital group  4
 Library entry H      P cc-pVDZ              selected for orbital group  4

1PROGRAM * SEWARD (Integral evaluation for generally contracted gaussian basis sets)     Author: Roland Lindh, 1990

 Geometry written to block  1 of record 700


 Point group  Cs  



 ATOMIC COORDINATES

 NR  ATOM    CHARGE       X              Y              Z

   1  C       6.00   -3.826366688    0.085083009    0.000000000
   2  O       8.00   -2.726002543    2.134173908    0.000000000
   3  N       7.00   -2.687144537   -2.184646680    0.000000000
   4  H       1.00   -3.748279748   -3.763288111    0.000000000
   5  H       1.00   -0.754669219   -2.313039090    0.000000000
   6  H       1.00   -5.900734613   -0.018742255    0.000000000
   7  C       6.00    3.823544771   -0.079926720    0.000000000
   8  O       8.00    2.725495488   -2.137179763    0.000000000
   9  N       7.00    2.686262016    2.188197225    0.000000000
  10  H       1.00    3.748550884    3.761274127    0.000000000
  11  H       1.00    0.756955524    2.310879740    0.000000000
  12  H       1.00    5.902388665    0.017214608    0.000000000

 Bond lengths in Bohr (Angstrom)

 1-2  2.325849256  1-3  2.539586575  1-6  2.076964606  3-4  1.902134775  3-5  1.936735776
     ( 1.230786418)     ( 1.343891336)     ( 1.099082333)     ( 1.006566371)     ( 1.024876432)

  7- 8  2.331952468   7- 9  2.537281674   7-12  2.081112292   9-10  1.898164529   9-11  1.933203181
       ( 1.234016099)       ( 1.342671635)       ( 1.101277194)       ( 1.004465408)       ( 1.023007064)

 Bond angles

  1-3-4  119.43871638   1-3-5  120.45408644   2-1-3  125.11117259   2-1-6  121.10119874

  3- 1- 6  113.78762867   4- 3- 5  120.10719718   7- 9-10  119.33898926   7- 9-11  120.26858102

  8- 7- 9  125.27903323   8- 7-12  120.76626526   9- 7-12  113.95470151  10- 9-11  120.39242972

 NUCLEAR CHARGE:                   48
 NUMBER OF PRIMITIVE AOS:         204
 NUMBER OF SYMMETRY AOS:          198
 NUMBER OF CONTRACTIONS:          114   (  84A'  +  30A"  )
 NUMBER OF CORE ORBITALS:           6   (   6A'  +   0A"  )
 NUMBER OF VALENCE ORBITALS:       30   (  24A'  +   6A"  )


 NUCLEAR REPULSION ENERGY  230.40698853


 Eigenvalues of metric

         1 0.556E-02 0.570E-02 0.108E-01 0.113E-01 0.153E-01 0.154E-01 0.239E-01 0.242E-01
         2 0.105E+00 0.106E+00 0.169E+00 0.173E+00 0.192E+00 0.196E+00 0.401E+00 0.409E+00


 Contracted 2-electron integrals neglected if value below      1.0D-16
 AO integral compression algorithm  1   Integral accuracy      1.0D-16

     84.673 MB (compressed) written to integral file ( 86.2%)

     Node minimum: 84.673 MB, node maximum: 84.673 MB


 NUMBER OF SORTED TWO-ELECTRON INTEGRALS:   11462730.     BUFFER LENGTH:  32768
 NUMBER OF SEGMENTS:   1  SEGMENT LENGTH:   11462730      RECORD LENGTH: 524288

 Memory used in sort:      12.02 MW

 SORT1 READ    12320013. AND WROTE    11135721. INTEGRALS IN     32 RECORDS. CPU TIME:     0.14 SEC, REAL TIME:     0.21 SEC
 SORT2 READ    11135721. AND WROTE    11462730. INTEGRALS IN    323 RECORDS. CPU TIME:     0.11 SEC, REAL TIME:     0.16 SEC

 FILE SIZES:   FILE 1:    81.0 MBYTE,  FILE 4:   134.3 MBYTE,   TOTAL:    215.3 MBYTE

 OPERATOR DM      FOR CENTER  0  COORDINATES:    0.000000    0.000000    0.000000


 **********************************************************************************************************************************
 DATASETS  * FILE   NREC   LENGTH (MB)   RECORD NAMES
              1      19       81.13       500      610      700      900      950      970     1000      129      960     1100   
                                          VAR    BASINP    GEOM    SYMINP    ZMAT    AOBASIS   BASIS     P2S    ABASIS      S 
                                         1400     1410     1200     1210     1080     1600     1650     1300     1700   
                                           T        V       H0       H01     AOSYM     SMH    MOLCAS    ERIS     OPER   

 PROGRAMS   *        TOTAL       INT
 CPU TIMES  *         2.12      2.08
 REAL TIME  *         2.48 SEC
 DISK USED  *       300.82 MB      
 GA USED    *         0.00 MB       (max)       0.00 MB       (current)
 **********************************************************************************************************************************

1PROGRAM * RHF-SCF (CLOSED SHELL)       Authors: W. Meyer, H.-J. Werner


 NUMBER OF ELECTRONS:      24+   24-
 CONVERGENCE THRESHOLDS:    1.00E-10 (Density)    1.00E-13 (Energy)
 MAX. NUMBER OF ITERATIONS:      200
 INTERPOLATION TYPE:            DIIS
 INTERPOLATION STEPS:              2 (START)      1 (STEP)
 LEVEL SHIFTS:                  0.00 (CLOSED)  0.00 (OPEN) 



 Orbital guess generated from atomic densities. Full valence occupancy:   30   6

 Molecular orbital dump at record        2100.2

 Initial alpha occupancy:  20   4
 Initial beta  occupancy:  20   4
 Wave function symmetry:    1

 ITERATION    DDIFF          GRAD             ENERGY        2-EL.EN.            DIPOLE MOMENTS         DIIS
    1      0.000D+00      0.000D+00      -337.77878360    705.235151    0.00188    0.01545    0.00000    0
    2      0.000D+00      0.122D-01      -337.85732427    700.033878    0.00190    0.00553    0.00000    1
    3      0.242D-01      0.865D-02      -337.91326991    702.514128    0.00202    0.01143    0.00000    2
    4      0.931D-02      0.114D-02      -337.91537612    702.499114    0.00148    0.00996    0.00000    3
    5      0.205D-02      0.400D-03      -337.91564348    702.427756    0.00168    0.01083    0.00000    4
    6      0.737D-03      0.133D-03      -337.91571126    702.446790    0.00152    0.01043    0.00000    5
    7      0.341D-03      0.597D-04      -337.91572261    702.442284    0.00160    0.01079    0.00000    6
    8      0.173D-03      0.158D-04      -337.91572331    702.442747    0.00150    0.01042    0.00000    7
    9      0.439D-04      0.496D-05      -337.91572336    702.442518    0.00160    0.01080    0.00000    8
   10      0.104D-04      0.257D-05      -337.91572337    702.442484    0.00155    0.01062    0.00000    8
   11      0.576D-05      0.484D-06      -337.91572337    702.442553    0.00156    0.01064    0.00000    8
   12      0.123D-05      0.921D-07      -337.91572337    702.442525    0.00156    0.01064    0.00000    8
   13      0.250D-06      0.360D-07      -337.91572337    702.442531    0.00156    0.01064    0.00000    8
   14      0.783D-07      0.121D-07      -337.91572337    702.442534    0.00156    0.01064    0.00000    7
   15      0.328D-07      0.321D-08      -337.91572337    702.442533    0.00156    0.01064    0.00000    7
   16      0.615D-08      0.746D-09      -337.91572337    702.442533    0.00156    0.01064    0.00000    7
   17      0.163D-08      0.344D-09      -337.91572337    702.442533    0.00156    0.01064    0.00000    7
   18      0.747D-09      0.116D-09      -337.91572337    702.442533    0.00156    0.01064    0.00000    7
   19      0.310D-09      0.397D-10      -337.91572337    702.442533    0.00156    0.01064    0.00000    8
   20      0.980D-10      0.178D-10      -337.91572337    702.442533    0.00156    0.01064    0.00000    8
   21      0.374D-10      0.554D-11      -337.91572337    702.442533    0.00156    0.01064    0.00000    8
   22      0.112D-10      0.234D-11      -337.91572337    702.442533    0.00156    0.01064    0.00000    8
   23      0.570D-11      0.655D-12      -337.91572337    702.442533    0.00156    0.01064    0.00000    0

 Final occupancy:  20   4

 !RHF STATE 1.1 Energy               -337.915723372052
 Nuclear energy                       230.40698853
 One-electron energy                 -919.54397828
 Two-electron energy                  351.22126637
 Virial quotient                       -1.00148598
 !RHF STATE 1.1 Dipole moment           0.00155733     0.01063692     0.00000000
 Dipole moment /Debye                   0.00395809     0.02703459     0.00000000

 Orbital energies:

         1.1          2.1          3.1          4.1          5.1          6.1          7.1          8.1          9.1         10.1
    -20.525299   -20.525126   -15.577980   -15.577175   -11.359582   -11.359024    -1.377369    -1.372215    -1.208392    -1.201960

        11.1         12.1         13.1         14.1         15.1         16.1         17.1         18.1         19.1         20.1
     -0.851700    -0.826688    -0.740212    -0.731386    -0.695089    -0.633808    -0.609739    -0.583186    -0.443324    -0.418340

        21.1         22.1
      0.186085     0.187924

         1.2          2.2          3.2          4.2          5.2          6.2
     -0.564603    -0.557117    -0.410499    -0.400910     0.194229     0.201140


 **********************************************************************************************************************************
 DATASETS  * FILE   NREC   LENGTH (MB)   RECORD NAMES
              1      19       81.13       500      610      700      900      950      970     1000      129      960     1100   
                                          VAR    BASINP    GEOM    SYMINP    ZMAT    AOBASIS   BASIS     P2S    ABASIS      S 
                                         1400     1410     1200     1210     1080     1600     1650     1300     1700   
                                           T        V       H0       H01     AOSYM     SMH    MOLCAS    ERIS     OPER   

              2       3        0.62       700     1000     2100   
                                         GEOM     BASIS     RHF  

 PROGRAMS   *        TOTAL       RHF       INT
 CPU TIMES  *         3.54      1.42      2.08
 REAL TIME  *         4.08 SEC
 DISK USED  *       300.82 MB      
 GA USED    *         0.00 MB       (max)       0.00 MB       (current)
 **********************************************************************************************************************************


1PROGRAM * CCSD (Closed-shell coupled cluster)     Authors: C. Hampel, H.-J. Werner, 1991, M. Deegan, P.J. Knowles, 1992


 Convergence thresholds:  THRVAR = 1.00D-08  THRDEN = 1.00D-12

 CCSD(T)     terms to be evaluated (factor= 1.000)


 Number of core orbitals:           6 (   6   0 )
 Number of closed-shell orbitals:  18 (  14   4 )
 Number of external orbitals:      90 (  64  26 )

 Molecular orbitals read from record     2100.2  Type=RHF/CANONICAL (state 1.1)

 Number of N-1 electron functions:              18
 Number of N-2 electron functions:             171
 Number of singly external CSFs:              1000
 Number of doubly external CSFs:            693010
 Total number of CSFs:                      694011

 Length of J-op  integral file:               0.00 MB
 Length of K-op  integral file:               0.59 MB
 Length of 3-ext integral record:             0.00 MB

 Memory could be reduced to 9.94 Mwords without degradation in triples

 Integral transformation finished. Total CPU:   0.37 sec, npass=  1  Memory used:   5.91 MW

 Reference energy:                   -337.91572337

 MP2 singlet pair energy:              -0.58977374
 MP2 triplet pair energy:              -0.38321348
 MP2 correlation energy:               -0.97298721
 MP2 total energy:                   -338.88871058

 SCS-MP2 correlation energy:           -0.94617242   (PS=  1.200000  PT=  0.333333)
 SCS-MP2 total energy:               -338.86189579

 ITER.      SQ.NORM     CORR.ENERGY   TOTAL ENERGY   ENERGY CHANGE        DEN1      VAR(S)    VAR(P)  DIIS     TIME
   1      1.29785698    -1.00492934  -338.92065271    -0.03194213    -0.00222487  0.97D-02  0.55D-02  1  1     1.54
   2      1.32280705    -1.00756261  -338.92328599    -0.00263328    -0.02518676  0.23D-03  0.11D-02  2  2     2.74
   3      1.33551603    -1.00854400  -338.92426738    -0.00098139    -0.00561952  0.22D-03  0.47D-04  3  3     3.93
   4      1.34091466    -1.00831386  -338.92403723     0.00023014    -0.00170476  0.20D-04  0.81D-05  4  4     5.13
   5      1.34304802    -1.00824938  -338.92397275     0.00006448    -0.00043954  0.19D-05  0.11D-05  5  5     6.33
   6      1.34352099    -1.00821829  -338.92394166     0.00003109    -0.00004188  0.15D-06  0.13D-06  6  6     7.52
   7      1.34362730    -1.00820849  -338.92393186     0.00000980    -0.00000528  0.14D-07  0.15D-07  6  2     8.72
   8      1.34364535    -1.00820857  -338.92393194    -0.00000008     0.00000004  0.18D-08  0.17D-08  6  1     9.92
   9      1.34364681    -1.00820824  -338.92393162     0.00000032     0.00000151  0.27D-09  0.22D-09  6  4    11.11
  10      1.34364980    -1.00820820  -338.92393157     0.00000004    -0.00000040  0.73D-10  0.19D-10  6  3    12.31
  11      1.34364968    -1.00820827  -338.92393164    -0.00000007     0.00000017  0.14D-10  0.45D-11  6  5    13.50
  12      1.34364946    -1.00820829  -338.92393166    -0.00000002     0.00000008  0.28D-11  0.11D-11  6  6    14.69
  13      1.34364923    -1.00820832  -338.92393169    -0.00000003     0.00000009  0.39D-12  0.16D-12  6  2    15.89
  14      1.34364914    -1.00820832  -338.92393170    -0.00000001     0.00000002  0.59D-13  0.28D-13  6  1    17.09
  15      1.34364912    -1.00820832  -338.92393170    -0.00000000     0.00000000  0.11D-13  0.59D-14  6  4    18.29
  16      1.34364911    -1.00820833  -338.92393170    -0.00000000    -0.00000000  0.25D-14  0.10D-14  6  3    19.48
  17      1.34364911    -1.00820833  -338.92393170    -0.00000000    -0.00000000  0.73D-15  0.15D-15  6  5    20.67
  18      1.34364911    -1.00820833  -338.92393170    -0.00000000    -0.00000000  0.64D-16  0.48D-16  6  6    21.86
  19      1.34364911    -1.00820833  -338.92393170    -0.00000000     0.00000000  0.16D-16  0.66D-17  6  2    23.06
  20      1.34364911    -1.00820833  -338.92393170    -0.00000000     0.00000000  0.23D-17  0.11D-17  6  1    24.26
  21      1.34364911    -1.00820833  -338.92393170    -0.00000000     0.00000000  0.29D-18  0.22D-18  6  4    25.45
  22      1.34364911    -1.00820833  -338.92393170     0.00000000     0.00000000  0.78D-19  0.39D-19  6  3    26.64
  23      1.34364911    -1.00820833  -338.92393170    -0.00000000     0.00000000  0.17D-19  0.53D-20  6  5    27.84
  24      1.34364911    -1.00820833  -338.92393170     0.00000000    -0.00000000  0.27D-20  0.14D-20  6  6    29.03
  25      1.34364911    -1.00820833  -338.92393170     0.00000000    -0.00000000  0.59D-21  0.26D-21  6  4    30.23

 Norm of t1 vector:      0.14946115      S-energy:    -0.00000000      T1 diagnostic:  0.01761417
                                                                       D1 diagnostic:  0.06252307

 Singles amplitudes (print threshold =  0.500E-01):

         I         SYM. A    A   T(IA)

        15         2         1      0.05773412
        16         2         2     -0.05867449


 Total CPU time for triples:     16.44 sec


 RESULTS
 =======

  Reference energy                   -337.915723372052
  CCSD singlet pair energy             -0.668076793321
  CCSD triplet pair energy             -0.340131532664
  CCSD correlation energy              -1.008208325987

  Triples (T) contribution             -0.032288180295
  Total correlation energy             -1.040496506281

  CCSD total energy                  -338.923931698039
  CCSD[T] energy                     -338.959231783466
  CCSD-T energy                      -338.955237658906
 !CCSD(T) total energy               -338.956219878333

 Timing summary (sec):

 STEP                 CPU(USER)    SYS     CPU(TOT)    WALL
 Transformation          0.40      0.06      0.46      0.47
 CCSD iterations        29.83      0.97     30.80     30.85
 Triples                16.44      0.50     16.94     16.94

 Program statistics:

 Available memory in ccsd:               999998604
 Min. memory needed in ccsd:               1904590
 Max. memory used in ccsd:                 2522532
 Max. memory used in cckext:               2734922 (25 integral passes)



 **********************************************************************************************************************************
 DATASETS  * FILE   NREC   LENGTH (MB)   RECORD NAMES
              1      20      123.93       500      610      700      900      950      970     1000      129      960     1100   
                                          VAR    BASINP    GEOM    SYMINP    ZMAT    AOBASIS   BASIS     P2S    ABASIS      S 
                                         1400     1410     1200     1210     1080     1600     1650     1300     1700     1380   
                                           T        V       H0       H01     AOSYM     SMH    MOLCAS    ERIS     OPER     JKOP   

              2       3        0.62       700     1000     2100   
                                         GEOM     BASIS     RHF  

 PROGRAMS   *        TOTAL   CCSD(T)       RHF       INT
 CPU TIMES  *        50.22     46.68      1.42      2.08
 REAL TIME  *        52.37 SEC
 DISK USED  *       331.94 MB      
 GA USED    *         0.00 MB       (max)       0.00 MB       (current)
 **********************************************************************************************************************************

        CCSD(T)         RHF-SCF 
   -338.95621988   -337.91572337
 **********************************************************************************************************************************
 Variable memory released
