
 Primary working directories    : /tmp/1065196.632.gen4.q
 Secondary working directories  : /tmp/1065196.632.gen4.q
 Wavefunction directory         : /home/vulcan/jj04645/wfu/
 Main file repository           : /tmp/1065196.632.gen4.q/

 ARCHNAME  : Linux/x86_64
 FC        : /opt/intel/compilers_and_libraries_2016.1.150/linux/bin/intel64/ifort
 FCVERSION : 16.0.1
 BLASLIB   : -mkl
 id        : ccgc

 Nodes     nprocs
 n026         1
 ga_uses_ma=false, calling ma_init with nominal heap.
 GA-space will be limited to   8.0 MW (determined by -G option)

 Using customized tuning parameters: mindgm=10; mindgv=16; mindgc=4; mindgr=1; noblas=0; mincuda=1000; minvec=7
 default implementation of scratch files=df  

 ***,Optimization of t-butanol
 memory,1000,m
 gthresh,energy=1.0d-12,orbital=1.0d-10,oneint=1.0d-16,twoint=1.0d-16,optgrad=1.0d-6,compress=1.0d-13
 geomtyp=xyz
 
 bohr
 geometry = {
  C    0.0053168865   -0.0571666555    0.0004833791
  O   -0.0223344725    2.6555949128    0.0005535187
  C   -2.7672377646   -0.8324795467    0.0004776301
  C    1.3370544866   -1.0163792099   -2.3769043068
  C    1.3370789352   -1.0165018959    2.3778078650
  H    1.7101863557    3.2103431578    0.0005589243
  H   -2.9450480664   -2.8885773772    0.0004254908
  H   -3.7102685072   -0.0823356826   -1.6736148643
  H   -3.7102512906   -0.0824220772    1.6746185321
  H    1.3138224984   -3.0839005159   -2.4590611736
  H    3.3149652062   -0.3984913751   -2.3994112439
  H    0.4007255956   -0.2713653943   -4.0620223160
  H    1.3139394566   -3.0758694093    2.4595345194
  H    3.3071968140   -0.4010497287    2.4002376241
  H    0.4044664280   -0.2745180011    4.0563164208
 }
 
 basis=VDZ
 {rhf;maxit,200}
 {ccsd(t);maxit,200}

 Variables initialized (661), CPU time= 0.00 sec
 Commands  initialized (458), CPU time= 0.01 sec, 486 directives.
 Default parameters read. Elapsed time= 0.06 sec

 Checking input...
 Passed
1


                                         ***  PROGRAM SYSTEM MOLPRO  ***
                         Copyright, University College Cardiff Consultants Limited, 2008

                                    Version 2010.1 linked May 16 2016 07:17:05


 **********************************************************************************************************************************
 LABEL *   Optimization of t-butanol                                                     
 Linux-4.4.3/n026(x86_64) 64 bit mpp version                                             DATE: 20-May-24          TIME: 12:49:52  
 **********************************************************************************************************************************

 SHA1:             9e8077add272b0f3cad6f7df79ec5211205f459d
 **********************************************************************************************************************************

 THRESHOLDS:

 ZERO    =  1.00D-12  ONEINT  =  1.00D-16  TWOINT  =  1.00D-16  PREFAC  =  1.00D-14  LOCALI  =  1.00D-09  EORDER  =  1.00D-04
 ENERGY  =  1.00D-12  ETEST   =  0.00D+00  EDENS   =  0.00D+00  THRDEDEF=  1.00D-06  GRADIENT=  1.00D-02  STEP    =  1.00D-03
 ORBITAL =  1.00D-10  CIVEC   =  1.00D-05  COEFF   =  1.00D-04  PRINTCI =  5.00D-02  PUNCHCI =  9.90D+01  OPTGRAD =  1.00D-06
 OPTENERG=  1.00D-06  OPTSTEP =  3.00D-04  THRGRAD =  1.00D-10  COMPRESS=  1.00D-13  VARMIN  =  1.00D-07  VARMAX  =  1.00D-03
 THRDOUB =  0.00D+00  THRDIV  =  1.00D-05  THRRED  =  1.00D-07  THRPSP  =  1.00D+00  THRDC   =  1.00D-10  THRCS   =  1.00D-10
 THRNRM  =  1.00D-08  THREQ   =  0.00D+00  THRDE   =  1.00D+00  THRREF  =  1.00D-05  SPARFAC =  1.00D+00  THRDLP  =  1.00D-07
 THRDIA  =  1.00D-10  THRDLS  =  1.00D-07  THRGPS  =  0.00D+00  THRKEX  =  0.00D+00  THRDIS  =  2.00D-01  THRVAR  =  1.00D-10
 THRLOC  =  1.00D-06  THRGAP  =  1.00D-06  THRLOCT = -1.00D+00  THRGAPT = -1.00D+00  THRORB  =  1.00D-06  THRMLTP =  0.00D+00
 THRCPQCI=  1.00D-10  KEXTA   =  0.00D+00  THRCOARS=  0.00D+00  SYMTOL  =  1.00D-06  GRADTOL =  1.00D-06  THROVL  =  1.00D-08
 THRORTH =  1.00D-08  GRID    =  1.00D-06  GRIDMAX =  1.00D-03  DTMAX   =  0.00D+00

 SETTING GEOMTYP        =    XYZ
 ZUNIT=BOHR
 

 Variable memory set to 1000000000 words,  buffer space   230000 words

 SETTING BASIS          =    VDZ


 Recomputing integrals since basis changed


 Using spherical harmonics

 Library entry C      S cc-pVDZ              selected for orbital group  1
 Library entry C      P cc-pVDZ              selected for orbital group  1
 Library entry C      D cc-pVDZ              selected for orbital group  1
 Library entry O      S cc-pVDZ              selected for orbital group  2
 Library entry O      P cc-pVDZ              selected for orbital group  2
 Library entry O      D cc-pVDZ              selected for orbital group  2
 Library entry H      S cc-pVDZ              selected for orbital group  4
 Library entry H      P cc-pVDZ              selected for orbital group  4

1PROGRAM * SEWARD (Integral evaluation for generally contracted gaussian basis sets)     Author: Roland Lindh, 1990

 Geometry written to block  1 of record 700


 Point group  C1  



 ATOMIC COORDINATES

 NR  ATOM    CHARGE       X              Y              Z

   1  C       6.00    0.005316886   -0.057166656    0.000483379
   2  O       8.00   -0.022334473    2.655594913    0.000553519
   3  C       6.00   -2.767237765   -0.832479547    0.000477630
   4  C       6.00    1.337054487   -1.016379210   -2.376904307
   5  C       6.00    1.337078935   -1.016501896    2.377807865
   6  H       1.00    1.710186356    3.210343158    0.000558924
   7  H       1.00   -2.945048066   -2.888577377    0.000425491
   8  H       1.00   -3.710268507   -0.082335683   -1.673614864
   9  H       1.00   -3.710251291   -0.082422077    1.674618532
  10  H       1.00    1.313822498   -3.083900516   -2.459061174
  11  H       1.00    3.314965206   -0.398491375   -2.399411244
  12  H       1.00    0.400725596   -0.271365394   -4.062022316
  13  H       1.00    1.313939457   -3.075869409    2.459534519
  14  H       1.00    3.307196814   -0.401049729    2.400237624
  15  H       1.00    0.404466428   -0.274518001    4.056316421

 Bond lengths in Bohr (Angstrom)

 1-2  2.712902492  1-3  2.878918091  1-4  2.888872785  1-5  2.888872785  2-6  1.819168501
     ( 1.435606169)     ( 1.523457840)     ( 1.528725638)     ( 1.528725638)     ( 0.962662510)

  3- 7  2.063771982   3- 8  2.062670230   3- 9  2.062670230   4-10  2.069283409   4-11  2.072298905
       ( 1.092101098)       ( 1.091518075)       ( 1.091518075)       ( 1.095017619)       ( 1.096613351)

  4-12  2.066731739   5-13  2.061118443   5-14  2.064133940   5-15  2.058566773
       ( 1.093667334)       ( 1.090696905)       ( 1.092292637)       ( 1.089346620)

 Bond angles

  1-2-6  107.17091859   1-3-7  110.56564859   1-3-8  110.02067678   1-3-9  110.02067678

  1- 4-10  111.05427536   1- 4-11  110.48289385   1- 4-12  110.02622708   1- 5-13  111.05427535

  1- 5-14  110.48289386   1- 5-15  110.02622708   2- 1- 3  105.03903602   2- 1- 4  109.67835924

  2-1-5  109.67835924   3-1-4  110.76498582   3-1-5  110.76498582   4-1-5  110.75948303

  7- 3- 8  108.83916950   7- 3- 9  108.83916950   8- 3- 9  108.51019467  10- 4-11  107.95054620

 10- 4-12  108.82712327  11- 4-12  108.42572226  13- 5-14  107.95054620  13- 5-15  108.82712327

 14- 5-15  108.42572226

 NUCLEAR CHARGE:                   42
 NUMBER OF PRIMITIVE AOS:         205
 NUMBER OF SYMMETRY AOS:          200
 NUMBER OF CONTRACTIONS:          120   ( 120A   )
 NUMBER OF CORE ORBITALS:           5   (   5A   )
 NUMBER OF VALENCE ORBITALS:       30   (  30A   )


 NUCLEAR REPULSION ENERGY  199.65088479


 Eigenvalues of metric

         1 0.261E-02 0.488E-02 0.490E-02 0.835E-02 0.169E-01 0.191E-01 0.192E-01 0.240E-01


 Contracted 2-electron integrals neglected if value below      1.0D-16
 AO integral compression algorithm  1   Integral accuracy      1.0D-16

     220.201 MB (compressed) written to integral file ( 96.3%)

     Node minimum: 220.201 MB, node maximum: 220.201 MB


 NUMBER OF SORTED TWO-ELECTRON INTEGRALS:   26357430.     BUFFER LENGTH:  32768
 NUMBER OF SEGMENTS:   2  SEGMENT LENGTH:   15997996      RECORD LENGTH: 524288

 Memory used in sort:      16.56 MW

 SORT1 READ    28587749. AND WROTE    26317735. INTEGRALS IN     76 RECORDS. CPU TIME:     0.31 SEC, REAL TIME:     0.46 SEC
 SORT2 READ    26317735. AND WROTE    26357430. INTEGRALS IN    840 RECORDS. CPU TIME:     0.26 SEC, REAL TIME:     0.37 SEC

 FILE SIZES:   FILE 1:   205.7 MBYTE,  FILE 4:   318.8 MBYTE,   TOTAL:    524.5 MBYTE

 OPERATOR DM      FOR CENTER  0  COORDINATES:    0.000000    0.000000    0.000000


 **********************************************************************************************************************************
 DATASETS  * FILE   NREC   LENGTH (MB)   RECORD NAMES
              1      19      205.88       500      610      700      900      950      970     1000      129      960     1100   
                                          VAR    BASINP    GEOM    SYMINP    ZMAT    AOBASIS   BASIS     P2S    ABASIS      S 
                                         1400     1410     1200     1210     1080     1600     1650     1300     1700   
                                           T        V       H0       H01     AOSYM     SMH    MOLCAS    ERIS     OPER   

 PROGRAMS   *        TOTAL       INT
 CPU TIMES  *         3.53      3.47
 REAL TIME  *         4.06 SEC
 DISK USED  *       745.66 MB      
 GA USED    *         0.01 MB       (max)       0.00 MB       (current)
 **********************************************************************************************************************************

1PROGRAM * RHF-SCF (CLOSED SHELL)       Authors: W. Meyer, H.-J. Werner


 NUMBER OF ELECTRONS:      21+   21-    SPACE SYMMETRY=1    SPIN SYMMETRY: Singlet 
 CONVERGENCE THRESHOLDS:    1.00E-10 (Density)    1.00E-13 (Energy)
 MAX. NUMBER OF ITERATIONS:      200
 INTERPOLATION TYPE:            DIIS
 INTERPOLATION STEPS:              2 (START)      1 (STEP)
 LEVEL SHIFTS:                  0.00 (CLOSED)  0.00 (OPEN) 



 Orbital guess generated from atomic densities. Full valence occupancy:   35

 Molecular orbital dump at record        2100.2

 ITERATION    DDIFF          GRAD             ENERGY        2-EL.EN.            DIPOLE MOMENTS         DIIS
    1      0.000D+00      0.000D+00      -232.08676197    561.120403    0.88970   -0.62512   -0.00240    0
    2      0.000D+00      0.616D-02      -232.16304135    555.893329    0.40917   -0.32431    0.00141    1
    3      0.122D-01      0.265D-02      -232.17373006    557.893050    0.53035   -0.43041    0.00129    2
    4      0.389D-02      0.733D-03      -232.17503033    557.664917    0.50340   -0.39424    0.00164    3
    5      0.141D-02      0.192D-03      -232.17510743    557.601955    0.50270   -0.40645    0.00178    4
    6      0.307D-03      0.357D-04      -232.17511048    557.622051    0.50208   -0.40479    0.00181    5
    7      0.899D-04      0.659D-05      -232.17511062    557.616416    0.50201   -0.40496    0.00183    6
    8      0.185D-04      0.211D-05      -232.17511063    557.617997    0.50202   -0.40505    0.00183    7
    9      0.400D-05      0.681D-06      -232.17511063    557.617649    0.50198   -0.40506    0.00184    7
   10      0.155D-05      0.190D-06      -232.17511063    557.617703    0.50199   -0.40508    0.00184    7
   11      0.503D-06      0.390D-07      -232.17511063    557.617692    0.50199   -0.40509    0.00184    7
   12      0.123D-06      0.120D-07      -232.17511063    557.617700    0.50199   -0.40509    0.00184    7
   13      0.242D-07      0.519D-08      -232.17511063    557.617697    0.50199   -0.40509    0.00184    7
   14      0.102D-07      0.170D-08      -232.17511063    557.617697    0.50199   -0.40509    0.00184    8
   15      0.302D-08      0.442D-09      -232.17511063    557.617697    0.50199   -0.40509    0.00184    8
   16      0.106D-08      0.110D-09      -232.17511063    557.617697    0.50199   -0.40509    0.00184    7
   17      0.254D-09      0.303D-10      -232.17511063    557.617697    0.50199   -0.40509    0.00184    7
   18      0.791D-10      0.859D-11      -232.17511063    557.617697    0.50199   -0.40509    0.00184    8
   19      0.174D-10      0.234D-11      -232.17511063    557.617697    0.50199   -0.40509    0.00184    8
   20      0.642D-11      0.735D-12      -232.17511063    557.617697    0.50199   -0.40509    0.00184    0

 Final occupancy:  21

 !RHF STATE 1.1 Energy               -232.175110633039
 Nuclear energy                       199.65088479
 One-electron energy                 -710.63484409
 Two-electron energy                  278.80884867
 Virial quotient                       -1.00088981
 !RHF STATE 1.1 Dipole moment           0.50198875    -0.40508623     0.00183828
 Dipole moment /Debye                   1.27584457    -1.02955907     0.00467213

 Orbital energies:

         1.1          2.1          3.1          4.1          5.1          6.1          7.1          8.1          9.1         10.1
    -20.545137   -11.282097   -11.221172   -11.219743   -11.214403    -1.352183    -1.064278    -0.940065    -0.938032    -0.766716

        11.1         12.1         13.1         14.1         15.1         16.1         17.1         18.1         19.1         20.1
     -0.665527    -0.620777    -0.618192    -0.573416    -0.553975    -0.527821    -0.514498    -0.505320    -0.500213    -0.458149

        21.1         22.1         23.1
     -0.426859     0.166840     0.220198


 **********************************************************************************************************************************
 DATASETS  * FILE   NREC   LENGTH (MB)   RECORD NAMES
              1      19      205.88       500      610      700      900      950      970     1000      129      960     1100   
                                          VAR    BASINP    GEOM    SYMINP    ZMAT    AOBASIS   BASIS     P2S    ABASIS      S 
                                         1400     1410     1200     1210     1080     1600     1650     1300     1700   
                                           T        V       H0       H01     AOSYM     SMH    MOLCAS    ERIS     OPER   

              2       3        0.80       700     1000     2100   
                                         GEOM     BASIS     RHF  

 PROGRAMS   *        TOTAL       RHF       INT
 CPU TIMES  *         7.71      4.18      3.47
 REAL TIME  *         8.71 SEC
 DISK USED  *       745.66 MB      
 GA USED    *         0.01 MB       (max)       0.00 MB       (current)
 **********************************************************************************************************************************


1PROGRAM * CCSD (Closed-shell coupled cluster)     Authors: C. Hampel, H.-J. Werner, 1991, M. Deegan, P.J. Knowles, 1992


 Convergence thresholds:  THRVAR = 1.00D-08  THRDEN = 1.00D-12

 CCSD(T)     terms to be evaluated (factor= 1.000)


 Number of core orbitals:           5 (   5 )
 Number of closed-shell orbitals:  16 (  16 )
 Number of external orbitals:      99 (  99 )

 Molecular orbitals read from record     2100.2  Type=RHF/CANONICAL (state 1.1)

 Number of N-1 electron functions:              16
 Number of N-2 electron functions:             136
 Number of singly external CSFs:              1584
 Number of doubly external CSFs:           1255320
 Total number of CSFs:                     1256905

 Length of J-op  integral file:               0.00 MB
 Length of K-op  integral file:               1.03 MB
 Length of 3-ext integral record:             0.00 MB

 Memory could be reduced to 21.47 Mwords without degradation in triples

 Integral transformation finished. Total CPU:   1.70 sec, npass=  1  Memory used:  18.35 MW

 Reference energy:                   -232.17511063

 MP2 singlet pair energy:              -0.49759628
 MP2 triplet pair energy:              -0.27475269
 MP2 correlation energy:               -0.77234897
 MP2 total energy:                   -232.94745961

 SCS-MP2 correlation energy:           -0.76807277   (PS=  1.200000  PT=  0.333333)
 SCS-MP2 total energy:               -232.94318340

 ITER.      SQ.NORM     CORR.ENERGY   TOTAL ENERGY   ENERGY CHANGE        DEN1      VAR(S)    VAR(P)  DIIS     TIME
   1      1.27363287    -0.82954776  -233.00465840    -0.05719879    -0.03605934  0.25D-02  0.44D-02  1  1     7.12
   2      1.29481950    -0.83386868  -233.00897932    -0.00432092    -0.02220546  0.67D-04  0.42D-03  2  2    12.58
   3      1.29934608    -0.83407890  -233.00918953    -0.00021021    -0.00277712  0.25D-04  0.24D-04  3  3    18.02
   4      1.30061466    -0.83408476  -233.00919539    -0.00000586    -0.00060346  0.64D-06  0.21D-05  4  4    23.47
   5      1.30084639    -0.83409373  -233.00920436    -0.00000897    -0.00008114  0.19D-06  0.15D-06  5  5    28.93
   6      1.30088763    -0.83409046  -233.00920109     0.00000326    -0.00001322  0.26D-07  0.14D-07  6  6    34.39
   7      1.30089458    -0.83408924  -233.00919987     0.00000122    -0.00000072  0.38D-08  0.17D-08  6  1    39.85
   8      1.30089816    -0.83408925  -233.00919989    -0.00000001    -0.00000042  0.68D-09  0.22D-09  6  2    45.31
   9      1.30089874    -0.83408919  -233.00919982     0.00000006     0.00000057  0.64D-10  0.39D-10  6  4    50.78
  10      1.30089932    -0.83408918  -233.00919981     0.00000001    -0.00000001  0.51D-11  0.38D-11  6  3    56.26
  11      1.30089930    -0.83408918  -233.00919981    -0.00000000     0.00000005  0.79D-12  0.47D-12  6  5    61.73
  12      1.30089924    -0.83408918  -233.00919981    -0.00000000     0.00000003  0.14D-12  0.66D-13  6  6    67.19
  13      1.30089918    -0.83408918  -233.00919982    -0.00000000     0.00000003  0.11D-13  0.10D-13  6  2    72.65
  14      1.30089917    -0.83408918  -233.00919982    -0.00000000     0.00000001  0.17D-14  0.62D-15  6  1    78.13
  15      1.30089917    -0.83408918  -233.00919982    -0.00000000     0.00000000  0.22D-15  0.13D-15  6  4    83.58
  16      1.30089917    -0.83408918  -233.00919982     0.00000000    -0.00000000  0.35D-16  0.20D-16  6  3    89.05
  17      1.30089917    -0.83408918  -233.00919982     0.00000000    -0.00000000  0.34D-17  0.26D-17  6  5    94.51
  18      1.30089917    -0.83408918  -233.00919982    -0.00000000    -0.00000000  0.92D-18  0.35D-18  6  6    99.98
  19      1.30089917    -0.83408918  -233.00919982    -0.00000000    -0.00000000  0.23D-18  0.65D-19  6  2   105.44
  20      1.30089917    -0.83408918  -233.00919982    -0.00000000     0.00000000  0.34D-19  0.12D-19  6  1   110.90
  21      1.30089917    -0.83408918  -233.00919982    -0.00000000     0.00000000  0.44D-20  0.22D-20  6  4   116.36
  22      1.30089917    -0.83408918  -233.00919982     0.00000000    -0.00000000  0.78D-21  0.34D-21  6  3   121.81

 Norm of t1 vector:      0.06604792      S-energy:    -0.00000000      T1 diagnostic:  0.00825599
                                                                       D1 diagnostic:  0.02161404


 Total CPU time for triples:     78.43 sec


 RESULTS
 =======

  Reference energy                   -232.175110633039
  CCSD singlet pair energy             -0.581024763287
  CCSD triplet pair energy             -0.253064420397
  CCSD correlation energy              -0.834089183685

  Triples (T) contribution             -0.023260425442
  Total correlation energy             -0.857349609127

  CCSD total energy                  -233.009199816724
  CCSD[T] energy                     -233.033157076707
  CCSD-T energy                      -233.032124213565
 !CCSD(T) total energy               -233.032460242166

 Timing summary (sec):

 STEP                 CPU(USER)    SYS     CPU(TOT)    WALL
 Transformation          1.80      0.15      1.95      1.95
 CCSD iterations       120.02      2.00    122.02    122.13
 Triples                78.43      1.19     79.62     79.64

 Program statistics:

 Available memory in ccsd:               999998876
 Min. memory needed in ccsd:               3310297
 Max. memory used in ccsd:                 4412497
 Max. memory used in cckext:               4149679 (22 integral passes)



 **********************************************************************************************************************************
 DATASETS  * FILE   NREC   LENGTH (MB)   RECORD NAMES
              1      20      292.53       500      610      700      900      950      970     1000      129      960     1100   
                                          VAR    BASINP    GEOM    SYMINP    ZMAT    AOBASIS   BASIS     P2S    ABASIS      S 
                                         1400     1410     1200     1210     1080     1600     1650     1300     1700     1380   
                                           T        V       H0       H01     AOSYM     SMH    MOLCAS    ERIS     OPER     JKOP   

              2       3        0.80       700     1000     2100   
                                         GEOM     BASIS     RHF  

 PROGRAMS   *        TOTAL   CCSD(T)       RHF       INT
 CPU TIMES  *       207.98    200.26      4.18      3.47
 REAL TIME  *       212.48 SEC
 DISK USED  *       745.66 MB      
 GA USED    *         0.01 MB       (max)       0.00 MB       (current)
 **********************************************************************************************************************************

        CCSD(T)         RHF-SCF 
   -233.03246024   -232.17511063
 **********************************************************************************************************************************
 Variable memory released
