
 Primary working directories    : /tmp/879303.292.gen4.q
 Secondary working directories  : /tmp/879303.292.gen4.q
 Wavefunction directory         : /home/vulcan/lo21740/wfu/
 Main file repository           : /tmp/879303.292.gen4.q/

 ARCHNAME  : Linux/x86_64
 FC        : /opt/intel/compilers_and_libraries_2016.1.150/linux/bin/intel64/ifort
 FCVERSION : 16.0.1
 BLASLIB   : -mkl
 id        : ccgc

 Nodes     nprocs
 n033         1
 ga_uses_ma=false, calling ma_init with nominal heap.
 GA-space will be limited to   8.0 MW (determined by -G option)

 Using customized tuning parameters: mindgm=10; mindgv=16; mindgc=4; mindgr=1; noblas=0; mincuda=1000; minvec=7
 default implementation of scratch files=df  

 ***,Optimization of formamide
 memory,1000,m
 gthresh,energy=1.0d-12,orbital=1.0d-10,oneint=1.0d-16,twoint=1.0d-16,optgrad=1.0d-6,compress=1.0d-13
 geomtyp=xyz
 
 bohr
 geometry = {
  C   -3.8232517397    0.0877606928    0.0000000000
  O   -2.7328769900    2.1381849304    0.0000000000
  N   -2.6811955964   -2.1812287510    0.0000000000
  H   -3.7390940841   -3.7557218415   -0.0000000000
  H   -0.7524248775   -2.3040423658   -0.0000000000
  H   -5.9032741842   -0.0185439240    0.0000000000
  C    3.8250618456   -0.0846153678    0.0000000000
  O    2.7317400062   -2.1394908151    0.0000000000
  N    2.6792092853    2.1771684572   -0.0000000000
  H    3.7396710969    3.7568435574    0.0000000000
  H    0.7536820196    2.3057931037    0.0000000000
  H    5.9027532184    0.0178923236    0.0000000000
 }
 
 basis=AVDZ, H=VDZ
 {rhf;maxit,200}
 {ccsd(t);maxit,200}

 Variables initialized (661), CPU time= 0.00 sec
 Commands  initialized (458), CPU time= 0.01 sec, 486 directives.
 Default parameters read. Elapsed time= 0.05 sec

 Checking input...
 Passed
1


                                         ***  PROGRAM SYSTEM MOLPRO  ***
                         Copyright, University College Cardiff Consultants Limited, 2008

                                    Version 2010.1 linked May 16 2016 07:17:05


 **********************************************************************************************************************************
 LABEL *   Optimization of formamide                                                     
 Linux-4.4.3/n033(x86_64) 64 bit mpp version                                             DATE: 23-May-23          TIME: 15:24:23  
 **********************************************************************************************************************************

 SHA1:             9e8077add272b0f3cad6f7df79ec5211205f459d
 **********************************************************************************************************************************

 THRESHOLDS:

 ZERO    =  1.00D-12  ONEINT  =  1.00D-16  TWOINT  =  1.00D-16  PREFAC  =  1.00D-14  LOCALI  =  1.00D-09  EORDER  =  1.00D-04
 ENERGY  =  1.00D-12  ETEST   =  0.00D+00  EDENS   =  0.00D+00  THRDEDEF=  1.00D-06  GRADIENT=  1.00D-02  STEP    =  1.00D-03
 ORBITAL =  1.00D-10  CIVEC   =  1.00D-05  COEFF   =  1.00D-04  PRINTCI =  5.00D-02  PUNCHCI =  9.90D+01  OPTGRAD =  1.00D-06
 OPTENERG=  1.00D-06  OPTSTEP =  3.00D-04  THRGRAD =  1.00D-10  COMPRESS=  1.00D-13  VARMIN  =  1.00D-07  VARMAX  =  1.00D-03
 THRDOUB =  0.00D+00  THRDIV  =  1.00D-05  THRRED  =  1.00D-07  THRPSP  =  1.00D+00  THRDC   =  1.00D-10  THRCS   =  1.00D-10
 THRNRM  =  1.00D-08  THREQ   =  0.00D+00  THRDE   =  1.00D+00  THRREF  =  1.00D-05  SPARFAC =  1.00D+00  THRDLP  =  1.00D-07
 THRDIA  =  1.00D-10  THRDLS  =  1.00D-07  THRGPS  =  0.00D+00  THRKEX  =  0.00D+00  THRDIS  =  2.00D-01  THRVAR  =  1.00D-10
 THRLOC  =  1.00D-06  THRGAP  =  1.00D-06  THRLOCT = -1.00D+00  THRGAPT = -1.00D+00  THRORB  =  1.00D-06  THRMLTP =  0.00D+00
 THRCPQCI=  1.00D-10  KEXTA   =  0.00D+00  THRCOARS=  0.00D+00  SYMTOL  =  1.00D-06  GRADTOL =  1.00D-06  THROVL  =  1.00D-08
 THRORTH =  1.00D-08  GRID    =  1.00D-06  GRIDMAX =  1.00D-03  DTMAX   =  0.00D+00

 SETTING GEOMTYP        =    XYZ
 ZUNIT=BOHR
 

 Variable memory set to 1000000000 words,  buffer space   230000 words

 SETTING BASIS          =    AVDZ,H=VDZ


 Recomputing integrals since basis changed


 Using spherical harmonics

 Library entry C      S aug-cc-pVDZ          selected for orbital group  1
 Library entry C      P aug-cc-pVDZ          selected for orbital group  1
 Library entry C      D aug-cc-pVDZ          selected for orbital group  1
 Library entry O      S aug-cc-pVDZ          selected for orbital group  2
 Library entry O      P aug-cc-pVDZ          selected for orbital group  2
 Library entry O      D aug-cc-pVDZ          selected for orbital group  2
 Library entry N      S aug-cc-pVDZ          selected for orbital group  3
 Library entry N      P aug-cc-pVDZ          selected for orbital group  3
 Library entry N      D aug-cc-pVDZ          selected for orbital group  3
 Library entry H      S cc-pVDZ              selected for orbital group  4
 Library entry H      P cc-pVDZ              selected for orbital group  4

1PROGRAM * SEWARD (Integral evaluation for generally contracted gaussian basis sets)     Author: Roland Lindh, 1990

 Geometry written to block  1 of record 700


 Point group  Cs  



 ATOMIC COORDINATES

 NR  ATOM    CHARGE       X              Y              Z

   1  C       6.00   -3.823251740    0.087760693    0.000000000
   2  O       8.00   -2.732876990    2.138184930    0.000000000
   3  N       7.00   -2.681195596   -2.181228751    0.000000000
   4  H       1.00   -3.739094084   -3.755721842    0.000000000
   5  H       1.00   -0.752424877   -2.304042366    0.000000000
   6  H       1.00   -5.903274184   -0.018543924    0.000000000
   7  C       6.00    3.825061846   -0.084615368    0.000000000
   8  O       8.00    2.731740006   -2.139490815    0.000000000
   9  N       7.00    2.679209285    2.177168457    0.000000000
  10  H       1.00    3.739671097    3.756843557    0.000000000
  11  H       1.00    0.753682020    2.305793104    0.000000000
  12  H       1.00    5.902753218    0.017892324    0.000000000

 Bond lengths in Bohr (Angstrom)

 1-2  2.322317086  1-3  2.540197892  1-6  2.082737151  3-4  1.896886318  3-5  1.932676815
     ( 1.228917274)     ( 1.344214831)     ( 1.102137033)     ( 1.003789007)     ( 1.022728523)

  7- 8  2.327630930   7- 9  2.535477107   7-12  2.080218562   9-10  1.902617323   9-11  1.929818528
       ( 1.231729239)       ( 1.341716699)       ( 1.100804253)       ( 1.006821725)       ( 1.021215982)

 Bond angles

  1-3-4  119.38533399   1-3-5  120.36096286   2-1-3  125.27924643   2-1-6  120.92885022

  3- 1- 6  113.79190334   4- 3- 5  120.25370315   7- 9-10  119.25845381   7- 9-11  120.68909962

  8- 7- 9  125.11680248   8- 7-12  120.84029027   9- 7-12  114.04290725  10- 9-11  120.05244657

 NUCLEAR CHARGE:                   48
 NUMBER OF PRIMITIVE AOS:         264
 NUMBER OF SYMMETRY AOS:          252
 NUMBER OF CONTRACTIONS:          168   ( 120A'  +  48A"  )
 NUMBER OF CORE ORBITALS:           6   (   6A'  +   0A"  )
 NUMBER OF VALENCE ORBITALS:       30   (  24A'  +   6A"  )


 NUCLEAR REPULSION ENERGY  230.54253610


 Eigenvalues of metric

         1 0.416E-03 0.625E-03 0.114E-02 0.134E-02 0.161E-02 0.168E-02 0.365E-02 0.436E-02
         2 0.210E-01 0.256E-01 0.333E-01 0.380E-01 0.522E-01 0.591E-01 0.104E+00 0.140E+00


 Contracted 2-electron integrals neglected if value below      1.0D-16
 AO integral compression algorithm  1   Integral accuracy      1.0D-16

     435.683 MB (compressed) written to integral file ( 92.6%)

     Node minimum: 435.683 MB, node maximum: 435.683 MB


 NUMBER OF SORTED TWO-ELECTRON INTEGRALS:   52662786.     BUFFER LENGTH:  32768
 NUMBER OF SEGMENTS:   4  SEGMENT LENGTH:   15997996      RECORD LENGTH: 524288

 Memory used in sort:      16.56 MW

 SORT1 READ    58803681. AND WROTE    51996157. INTEGRALS IN    151 RECORDS. CPU TIME:     0.73 SEC, REAL TIME:     1.07 SEC
 SORT2 READ    51996157. AND WROTE    52662786. INTEGRALS IN   1662 RECORDS. CPU TIME:     0.49 SEC, REAL TIME:     0.74 SEC

 FILE SIZES:   FILE 1:   399.8 MBYTE,  FILE 4:   633.4 MBYTE,   TOTAL:   1033.1 MBYTE

 OPERATOR DM      FOR CENTER  0  COORDINATES:    0.000000    0.000000    0.000000


 **********************************************************************************************************************************
 DATASETS  * FILE   NREC   LENGTH (MB)   RECORD NAMES
              1      19      399.93       500      610      700      900      950      970     1000      129      960     1100   
                                          VAR    BASINP    GEOM    SYMINP    ZMAT    AOBASIS   BASIS     P2S    ABASIS      S 
                                         1400     1410     1200     1210     1080     1600     1650     1300     1700   
                                           T        V       H0       H01     AOSYM     SMH    MOLCAS    ERIS     OPER   

 PROGRAMS   *        TOTAL       INT
 CPU TIMES  *         6.55      6.50
 REAL TIME  *         7.55 SEC
 DISK USED  *         1.47 GB      
 GA USED    *         0.00 MB       (max)       0.00 MB       (current)
 **********************************************************************************************************************************

1PROGRAM * RHF-SCF (CLOSED SHELL)       Authors: W. Meyer, H.-J. Werner


 NUMBER OF ELECTRONS:      24+   24-
 CONVERGENCE THRESHOLDS:    1.00E-10 (Density)    1.00E-13 (Energy)
 MAX. NUMBER OF ITERATIONS:      200
 INTERPOLATION TYPE:            DIIS
 INTERPOLATION STEPS:              2 (START)      1 (STEP)
 LEVEL SHIFTS:                  0.00 (CLOSED)  0.00 (OPEN) 



 Orbital guess generated from atomic densities. Full valence occupancy:   30   6

 Molecular orbital dump at record        2100.2

 Initial alpha occupancy:  20   4
 Initial beta  occupancy:  20   4
 Wave function symmetry:    1

 ITERATION    DDIFF          GRAD             ENERGY        2-EL.EN.            DIPOLE MOMENTS         DIIS
    1      0.000D+00      0.000D+00      -337.80415796    704.737896    0.00789    0.02393    0.00000    0
    2      0.000D+00      0.834D-02      -337.88168891    699.137252    0.00537    0.00922    0.00000    1
    3      0.159D-01      0.607D-02      -337.93933216    701.872844    0.00635    0.01465    0.00000    2
    4      0.630D-02      0.802D-03      -337.94153800    701.776632    0.00587    0.01322    0.00000    3
    5      0.138D-02      0.276D-03      -337.94180414    701.710766    0.00601    0.01367    0.00000    4
    6      0.497D-03      0.904D-04      -337.94186483    701.736353    0.00588    0.01327    0.00000    5
    7      0.215D-03      0.401D-04      -337.94187568    701.727578    0.00595    0.01353    0.00000    6
    8      0.106D-03      0.119D-04      -337.94187661    701.732990    0.00587    0.01324    0.00000    7
    9      0.327D-04      0.388D-05      -337.94187668    701.730875    0.00594    0.01350    0.00000    8
   10      0.871D-05      0.156D-05      -337.94187669    701.730925    0.00590    0.01335    0.00000    7
   11      0.394D-05      0.637D-06      -337.94187669    701.731146    0.00591    0.01341    0.00000    8
   12      0.104D-05      0.185D-06      -337.94187669    701.731094    0.00591    0.01340    0.00000    9
   13      0.474D-06      0.277D-07      -337.94187669    701.731091    0.00591    0.01340    0.00000    8
   14      0.760D-07      0.107D-07      -337.94187669    701.731096    0.00591    0.01340    0.00000    7
   15      0.294D-07      0.369D-08      -337.94187669    701.731095    0.00591    0.01340    0.00000    8
   16      0.884D-08      0.669D-09      -337.94187669    701.731095    0.00591    0.01340    0.00000    8
   17      0.145D-08      0.201D-09      -337.94187669    701.731095    0.00591    0.01340    0.00000    7
   18      0.418D-09      0.562D-10      -337.94187669    701.731095    0.00591    0.01340    0.00000    7
   19      0.128D-09      0.185D-10      -337.94187669    701.731095    0.00591    0.01340    0.00000    7
   20      0.415D-10      0.692D-11      -337.94187669    701.731095    0.00591    0.01340    0.00000    8
   21      0.187D-10      0.290D-11      -337.94187669    701.731095    0.00591    0.01340    0.00000    8
   22      0.640D-11      0.104D-11      -337.94187669    701.731095    0.00591    0.01340    0.00000    8
   23      0.241D-11      0.512D-12      -337.94187669    701.731095    0.00591    0.01340    0.00000    8
   24      0.230D-11      0.133D-12      -337.94187669    701.731095    0.00591    0.01340    0.00000    8
   25      0.120D-11      0.768D-13      -337.94187669    701.731095    0.00591    0.01340    0.00000    9
   26      0.722D-12      0.680D-13      -337.94187669    701.731095    0.00591    0.01340    0.00000    0

 Final occupancy:  20   4

 !RHF STATE 1.1 Energy               -337.941876691709
 Nuclear energy                       230.54253610
 One-electron energy                 -919.34996022
 Two-electron energy                  350.86554743
 Virial quotient                       -1.00174125
 !RHF STATE 1.1 Dipole moment           0.00591043     0.01340325     0.00000000
 Dipole moment /Debye                   0.01502183     0.03406544     0.00000000

 Orbital energies:

         1.1          2.1          3.1          4.1          5.1          6.1          7.1          8.1          9.1         10.1
    -20.541131   -20.540539   -15.589874   -15.588926   -11.368335   -11.368266    -1.390080    -1.385058    -1.218861    -1.212655

        11.1         12.1         13.1         14.1         15.1         16.1         17.1         18.1         19.1         20.1
     -0.860769    -0.835567    -0.749854    -0.740873    -0.706048    -0.645558    -0.619174    -0.593971    -0.454252    -0.428970

        21.1         22.1
      0.068002     0.068868

         1.2          2.2          3.2          4.2          5.2          6.2
     -0.574083    -0.566035    -0.420551    -0.410003     0.094000     0.104188


 **********************************************************************************************************************************
 DATASETS  * FILE   NREC   LENGTH (MB)   RECORD NAMES
              1      19      399.93       500      610      700      900      950      970     1000      129      960     1100   
                                          VAR    BASINP    GEOM    SYMINP    ZMAT    AOBASIS   BASIS     P2S    ABASIS      S 
                                         1400     1410     1200     1210     1080     1600     1650     1300     1700   
                                           T        V       H0       H01     AOSYM     SMH    MOLCAS    ERIS     OPER   

              2       3        0.80       700     1000     2100   
                                         GEOM     BASIS     RHF  

 PROGRAMS   *        TOTAL       RHF       INT
 CPU TIMES  *        15.15      8.60      6.50
 REAL TIME  *        17.38 SEC
 DISK USED  *         1.47 GB      
 GA USED    *         0.00 MB       (max)       0.00 MB       (current)
 **********************************************************************************************************************************


1PROGRAM * CCSD (Closed-shell coupled cluster)     Authors: C. Hampel, H.-J. Werner, 1991, M. Deegan, P.J. Knowles, 1992


 Convergence thresholds:  THRVAR = 1.00D-08  THRDEN = 1.00D-12

 CCSD(T)     terms to be evaluated (factor= 1.000)


 Number of core orbitals:           6 (   6   0 )
 Number of closed-shell orbitals:  18 (  14   4 )
 Number of external orbitals:     144 ( 100  44 )

 Molecular orbitals read from record     2100.2  Type=RHF/CANONICAL (state 1.1)

 Number of N-1 electron functions:              18
 Number of N-2 electron functions:             171
 Number of singly external CSFs:              1576
 Number of doubly external CSFs:           1759312
 Total number of CSFs:                     1760889

 Length of J-op  integral file:               0.00 MB
 Length of K-op  integral file:               1.19 MB
 Length of 3-ext integral record:             0.00 MB

 Memory could be reduced to 36.48 Mwords without degradation in triples

 Integral transformation finished. Total CPU:   2.45 sec, npass=  1  Memory used:  15.90 MW

 Reference energy:                   -337.94187669

 MP2 singlet pair energy:              -0.61944123
 MP2 triplet pair energy:              -0.40469601
 MP2 correlation energy:               -1.02413724
 MP2 total energy:                   -338.96601393

 SCS-MP2 correlation energy:           -0.99514032   (PS=  1.200000  PT=  0.333333)
 SCS-MP2 total energy:               -338.93701701

 ITER.      SQ.NORM     CORR.ENERGY   TOTAL ENERGY   ENERGY CHANGE        DEN1      VAR(S)    VAR(P)  DIIS     TIME
   1      1.31854447    -1.05289509  -338.99477179    -0.02875786     0.00230574  0.10D-01  0.60D-02  1  1     8.94
   2      1.34395847    -1.05484881  -338.99672550    -0.00195372    -0.02584031  0.22D-03  0.11D-02  2  2    15.53
   3      1.35649575    -1.05573967  -338.99761636    -0.00089086    -0.00553395  0.22D-03  0.51D-04  3  3    22.16
   4      1.36166981    -1.05547709  -338.99735378     0.00026258    -0.00168067  0.21D-04  0.92D-05  4  4    28.75
   5      1.36377849    -1.05542107  -338.99729776     0.00005602    -0.00044016  0.26D-05  0.11D-05  5  5    35.37
   6      1.36428365    -1.05539186  -338.99726855     0.00002921    -0.00004726  0.24D-06  0.17D-06  6  6    41.99
   7      1.36441047    -1.05538002  -338.99725671     0.00001184    -0.00000761  0.32D-07  0.22D-07  6  2    48.61
   8      1.36443455    -1.05537988  -338.99725657     0.00000014    -0.00000002  0.57D-08  0.26D-08  6  1    55.23
   9      1.36443693    -1.05537959  -338.99725628     0.00000029     0.00000183  0.94D-09  0.46D-09  6  4    61.86
  10      1.36444104    -1.05537954  -338.99725623     0.00000006    -0.00000045  0.26D-09  0.47D-10  6  3    68.48
  11      1.36444127    -1.05537961  -338.99725631    -0.00000008     0.00000016  0.38D-10  0.11D-10  6  5    75.10
  12      1.36444108    -1.05537963  -338.99725632    -0.00000002     0.00000008  0.53D-11  0.26D-11  6  6    81.73
  13      1.36444079    -1.05537967  -338.99725636    -0.00000004     0.00000013  0.80D-12  0.36D-12  6  2    88.36
  14      1.36444063    -1.05537968  -338.99725637    -0.00000001     0.00000004  0.12D-12  0.70D-13  6  1    94.98
  15      1.36444056    -1.05537969  -338.99725638    -0.00000000     0.00000001  0.24D-13  0.14D-13  6  4   101.59
  16      1.36444053    -1.05537969  -338.99725638    -0.00000000     0.00000000  0.45D-14  0.24D-14  6  3   108.23
  17      1.36444052    -1.05537969  -338.99725638    -0.00000000    -0.00000000  0.12D-14  0.39D-15  6  5   114.86
  18      1.36444051    -1.05537969  -338.99725638    -0.00000000     0.00000000  0.18D-15  0.10D-15  6  6   121.50
  19      1.36444051    -1.05537969  -338.99725638    -0.00000000     0.00000000  0.47D-16  0.18D-16  6  2   128.12
  20      1.36444051    -1.05537969  -338.99725638    -0.00000000     0.00000000  0.88D-17  0.31D-17  6  1   134.74
  21      1.36444051    -1.05537969  -338.99725638    -0.00000000     0.00000000  0.17D-17  0.89D-18  6  4   141.37
  22      1.36444051    -1.05537969  -338.99725638     0.00000000     0.00000000  0.45D-18  0.23D-18  6  3   148.00
  23      1.36444051    -1.05537969  -338.99725638    -0.00000000    -0.00000000  0.12D-18  0.35D-19  6  5   154.62
  24      1.36444051    -1.05537969  -338.99725638     0.00000000    -0.00000000  0.21D-19  0.88D-20  6  6   161.24

 Norm of t1 vector:      0.14770112      S-energy:    -0.00000000      T1 diagnostic:  0.01740674
                                                                       D1 diagnostic:  0.05888391


 Total CPU time for triples:    143.92 sec


 RESULTS
 =======

  Reference energy                   -337.941876691710
  CCSD singlet pair energy             -0.696570625167
  CCSD triplet pair energy             -0.358809063492
  CCSD correlation energy              -1.055379688662

  Triples (T) contribution             -0.039228330618
  Total correlation energy             -1.094608019280

  CCSD total energy                  -338.997256380371
  CCSD[T] energy                     -339.039669563757
  CCSD-T energy                      -339.035390567474
 !CCSD(T) total energy               -339.036484710990

 Timing summary (sec):

 STEP                 CPU(USER)    SYS     CPU(TOT)    WALL
 Transformation          2.55      0.25      2.80      2.82
 CCSD iterations       158.70      3.39    162.09    162.14
 Triples               143.92      2.63    146.55    146.56

 Program statistics:

 Available memory in ccsd:               999998604
 Min. memory needed in ccsd:               4522204
 Max. memory used in ccsd:                 6130884
 Max. memory used in cckext:               6038575 (24 integral passes)



 **********************************************************************************************************************************
 DATASETS  * FILE   NREC   LENGTH (MB)   RECORD NAMES
              1      20      544.14       500      610      700      900      950      970     1000      129      960     1100   
                                          VAR    BASINP    GEOM    SYMINP    ZMAT    AOBASIS   BASIS     P2S    ABASIS      S 
                                         1400     1410     1200     1210     1080     1600     1650     1300     1700     1380   
                                           T        V       H0       H01     AOSYM     SMH    MOLCAS    ERIS     OPER     JKOP   

              2       3        0.80       700     1000     2100   
                                         GEOM     BASIS     RHF  

 PROGRAMS   *        TOTAL   CCSD(T)       RHF       INT
 CPU TIMES  *       320.34    305.19      8.60      6.50
 REAL TIME  *       328.96 SEC
 DISK USED  *         1.47 GB      
 GA USED    *         0.00 MB       (max)       0.00 MB       (current)
 **********************************************************************************************************************************

        CCSD(T)         RHF-SCF 
   -339.03648471   -337.94187669
 **********************************************************************************************************************************
 Variable memory released
