
 Primary working directories    : /tmp/917005.480.gen4.q
 Secondary working directories  : /tmp/917005.480.gen4.q
 Wavefunction directory         : /home/vulcan/lo21740/wfu/
 Main file repository           : /tmp/917005.480.gen4.q/

 ARCHNAME  : Linux/x86_64
 FC        : /opt/intel/compilers_and_libraries_2016.1.150/linux/bin/intel64/ifort
 FCVERSION : 16.0.1
 BLASLIB   : -mkl
 id        : ccgc

 Nodes     nprocs
 n033         1
 ga_uses_ma=false, calling ma_init with nominal heap.
 GA-space will be limited to   8.0 MW (determined by -G option)

 Using customized tuning parameters: mindgm=10; mindgv=16; mindgc=4; mindgr=1; noblas=0; mincuda=1000; minvec=7
 default implementation of scratch files=df  

 ***,Optimization of h2o_2
 memory,1000,m
 gthresh,energy=1.0d-12,orbital=1.0d-10,oneint=1.0d-16,twoint=1.0d-16,optgrad=1.0d-6,compress=1.0d-13
 geomtyp=xyz
 
 bohr
 geometry = {
  C    0.0026564721   -3.4217540127   -0.0026702989
  H   -0.9697894722   -2.7360290363   -1.6840940494
  H   -0.9697918913   -2.7335909098    1.6777556623
  H    1.9416419340   -2.7264932176   -0.0031731302
  H   -0.0060205704   -5.4815237364    0.0072431683
  C    0.0002553430    3.4217439321    0.0009863765
  H   -0.0056266339    5.4815468500   -0.0005074627
  H    0.9727047069    2.7335865667   -1.6794413553
  H    0.9727022878    2.7360246902    1.6824118870
  H   -1.9387321760    2.7264888739    0.0014892024
 }
 
 basis=VDZ
 {rhf;maxit,200}
 {ccsd(t);maxit,200}

 Variables initialized (661), CPU time= 0.00 sec
 Commands  initialized (458), CPU time= 0.00 sec, 486 directives.
 Default parameters read. Elapsed time= 0.06 sec

 Checking input...
 Passed
1


                                         ***  PROGRAM SYSTEM MOLPRO  ***
                         Copyright, University College Cardiff Consultants Limited, 2008

                                    Version 2010.1 linked May 16 2016 07:17:05


 **********************************************************************************************************************************
 LABEL *   Optimization of h2o_2                                                         
 Linux-4.4.3/n033(x86_64) 64 bit mpp version                                             DATE: 19-Jul-23          TIME: 16:19:57  
 **********************************************************************************************************************************

 SHA1:             9e8077add272b0f3cad6f7df79ec5211205f459d
 **********************************************************************************************************************************

 THRESHOLDS:

 ZERO    =  1.00D-12  ONEINT  =  1.00D-16  TWOINT  =  1.00D-16  PREFAC  =  1.00D-14  LOCALI  =  1.00D-09  EORDER  =  1.00D-04
 ENERGY  =  1.00D-12  ETEST   =  0.00D+00  EDENS   =  0.00D+00  THRDEDEF=  1.00D-06  GRADIENT=  1.00D-02  STEP    =  1.00D-03
 ORBITAL =  1.00D-10  CIVEC   =  1.00D-05  COEFF   =  1.00D-04  PRINTCI =  5.00D-02  PUNCHCI =  9.90D+01  OPTGRAD =  1.00D-06
 OPTENERG=  1.00D-06  OPTSTEP =  3.00D-04  THRGRAD =  1.00D-10  COMPRESS=  1.00D-13  VARMIN  =  1.00D-07  VARMAX  =  1.00D-03
 THRDOUB =  0.00D+00  THRDIV  =  1.00D-05  THRRED  =  1.00D-07  THRPSP  =  1.00D+00  THRDC   =  1.00D-10  THRCS   =  1.00D-10
 THRNRM  =  1.00D-08  THREQ   =  0.00D+00  THRDE   =  1.00D+00  THRREF  =  1.00D-05  SPARFAC =  1.00D+00  THRDLP  =  1.00D-07
 THRDIA  =  1.00D-10  THRDLS  =  1.00D-07  THRGPS  =  0.00D+00  THRKEX  =  0.00D+00  THRDIS  =  2.00D-01  THRVAR  =  1.00D-10
 THRLOC  =  1.00D-06  THRGAP  =  1.00D-06  THRLOCT = -1.00D+00  THRGAPT = -1.00D+00  THRORB  =  1.00D-06  THRMLTP =  0.00D+00
 THRCPQCI=  1.00D-10  KEXTA   =  0.00D+00  THRCOARS=  0.00D+00  SYMTOL  =  1.00D-06  GRADTOL =  1.00D-06  THROVL  =  1.00D-08
 THRORTH =  1.00D-08  GRID    =  1.00D-06  GRIDMAX =  1.00D-03  DTMAX   =  0.00D+00

 SETTING GEOMTYP        =    XYZ
 ZUNIT=BOHR
 

 Variable memory set to 1000000000 words,  buffer space   230000 words

 SETTING BASIS          =    VDZ


 Recomputing integrals since basis changed


 Using spherical harmonics

 Library entry C      S cc-pVDZ              selected for orbital group  1
 Library entry C      P cc-pVDZ              selected for orbital group  1
 Library entry C      D cc-pVDZ              selected for orbital group  1
 Library entry H      S cc-pVDZ              selected for orbital group  2
 Library entry H      P cc-pVDZ              selected for orbital group  2

1PROGRAM * SEWARD (Integral evaluation for generally contracted gaussian basis sets)     Author: Roland Lindh, 1990

 Geometry written to block  1 of record 700


 Point group  C1  



 ATOMIC COORDINATES

 NR  ATOM    CHARGE       X              Y              Z

   1  C       6.00    0.002656472   -3.421754013   -0.002670299
   2  H       1.00   -0.969789472   -2.736029036   -1.684094049
   3  H       1.00   -0.969791891   -2.733590910    1.677755662
   4  H       1.00    1.941641934   -2.726493218   -0.003173130
   5  H       1.00   -0.006020570   -5.481523736    0.007243168
   6  C       6.00    0.000255343    3.421743932    0.000986376
   7  H       1.00   -0.005626634    5.481546850   -0.000507463
   8  H       1.00    0.972704707    2.733586567   -1.679441355
   9  H       1.00    0.972702288    2.736024690    1.682411887
  10  H       1.00   -1.938732176    2.726488874    0.001489202

 Bond lengths in Bohr (Angstrom)

 1-2  2.059867881  1-3  2.059867881  1-4  2.059867095  1-5  2.059811856  6-7  2.059811858
     ( 1.090035136)     ( 1.090035136)     ( 1.090034720)     ( 1.090005489)     ( 1.090005490)

  6- 8  2.059867881   6- 9  2.059867881   6-10  2.059867095
       ( 1.090035136)       ( 1.090035136)       ( 1.090034720)

 Bond angles

  2-1-3  109.37975589   2-1-4  109.37963985   2-1-5  109.56223842   3-1-4  109.37963985

  3-1-5  109.15709606   4-1-5  109.96747285   7-6-8  109.56240831   7-6-9  109.56240831

  7- 6-10  109.56250040   8- 6- 9  109.37992579   8- 6-10  109.37980975   9- 6-10  109.37980975

 NUCLEAR CHARGE:                   20
 NUMBER OF PRIMITIVE AOS:         110
 NUMBER OF SYMMETRY AOS:          108
 NUMBER OF CONTRACTIONS:           68   (  68A   )
 NUMBER OF CORE ORBITALS:           2   (   2A   )
 NUMBER OF VALENCE ORBITALS:       16   (  16A   )


 NUCLEAR REPULSION ENERGY   41.34197507


 Eigenvalues of metric

         1 0.113E-01 0.127E-01 0.348E-01 0.349E-01 0.356E-01 0.375E-01 0.383E-01 0.383E-01


 Contracted 2-electron integrals neglected if value below      1.0D-16
 AO integral compression algorithm  1   Integral accuracy      1.0D-16

     21.758 MB (compressed) written to integral file ( 87.5%)

     Node minimum: 21.758 MB, node maximum: 21.758 MB


 NUMBER OF SORTED TWO-ELECTRON INTEGRALS:    2753031.     BUFFER LENGTH:  32768
 NUMBER OF SEGMENTS:   1  SEGMENT LENGTH:    2753031      RECORD LENGTH: 524288

 Memory used in sort:       3.31 MW

 SORT1 READ     3104305. AND WROTE     2689991. INTEGRALS IN      8 RECORDS. CPU TIME:     0.03 SEC, REAL TIME:     0.05 SEC
 SORT2 READ     2689991. AND WROTE     2753031. INTEGRALS IN     83 RECORDS. CPU TIME:     0.05 SEC, REAL TIME:     0.06 SEC

 FILE SIZES:   FILE 1:    21.6 MBYTE,  FILE 4:    33.6 MBYTE,   TOTAL:     55.2 MBYTE

 OPERATOR DM      FOR CENTER  0  COORDINATES:    0.000000    0.000000    0.000000


 **********************************************************************************************************************************
 DATASETS  * FILE   NREC   LENGTH (MB)   RECORD NAMES
              1      19       21.65       500      610      700      900      950      970     1000      129      960     1100   
                                          VAR    BASINP    GEOM    SYMINP    ZMAT    AOBASIS   BASIS     P2S    ABASIS      S 
                                         1400     1410     1200     1210     1080     1600     1650     1300     1700   
                                           T        V       H0       H01     AOSYM     SMH    MOLCAS    ERIS     OPER   

 PROGRAMS   *        TOTAL       INT
 CPU TIMES  *         0.62      0.56
 REAL TIME  *         0.85 SEC
 DISK USED  *        77.71 MB      
 GA USED    *         0.00 MB       (max)       0.00 MB       (current)
 **********************************************************************************************************************************

1PROGRAM * RHF-SCF (CLOSED SHELL)       Authors: W. Meyer, H.-J. Werner


 NUMBER OF ELECTRONS:      10+   10-    SPACE SYMMETRY=1    SPIN SYMMETRY: Singlet 
 CONVERGENCE THRESHOLDS:    1.00E-10 (Density)    1.00E-13 (Energy)
 MAX. NUMBER OF ITERATIONS:      200
 INTERPOLATION TYPE:            DIIS
 INTERPOLATION STEPS:              2 (START)      1 (STEP)
 LEVEL SHIFTS:                  0.00 (CLOSED)  0.00 (OPEN) 



 Orbital guess generated from atomic densities. Full valence occupancy:   18

 Molecular orbital dump at record        2100.2

 ITERATION    DDIFF          GRAD             ENERGY        2-EL.EN.            DIPOLE MOMENTS         DIIS
    1      0.000D+00      0.000D+00       -80.35962400    134.829259   -0.00240    0.00001    0.00139    0
    2      0.000D+00      0.637D-02       -80.39229302    132.549773   -0.00088    0.00000    0.00051    1
    3      0.132D-01      0.234D-02       -80.39615472    133.351164   -0.00112    0.00000    0.00065    2
    4      0.460D-02      0.630D-03       -80.39668339    133.214350   -0.00098    0.00000    0.00057    3
    5      0.165D-02      0.664D-04       -80.39668792    133.220375   -0.00097    0.00000    0.00057    4
    6      0.233D-03      0.393D-05       -80.39668794    133.220237   -0.00097    0.00000    0.00057    5
    7      0.205D-04      0.233D-06       -80.39668794    133.220235   -0.00097    0.00000    0.00057    5
    8      0.745D-06      0.410D-07       -80.39668794    133.220237   -0.00097    0.00000    0.00057    4
    9      0.110D-06      0.112D-07       -80.39668794    133.220237   -0.00097    0.00000    0.00057    4
   10      0.377D-07      0.228D-08       -80.39668794    133.220237   -0.00097    0.00000    0.00057    5
   11      0.765D-08      0.275D-09       -80.39668794    133.220237   -0.00097    0.00000    0.00057    5
   12      0.705D-09      0.786D-10       -80.39668794    133.220237   -0.00097    0.00000    0.00057    6
   13      0.194D-09      0.273D-10       -80.39668794    133.220237   -0.00097    0.00000    0.00057    6
   14      0.733D-10      0.431D-11       -80.39668794    133.220237   -0.00097    0.00000    0.00057    6
   15      0.213D-10      0.415D-12       -80.39668794    133.220237   -0.00097    0.00000    0.00057    6
   16      0.140D-11      0.103D-12       -80.39668794    133.220237   -0.00097    0.00000    0.00057    0

 Final occupancy:  10

 !RHF STATE 1.1 Energy                -80.396687936541
 Nuclear energy                        41.34197507
 One-electron energy                 -188.34878159
 Two-electron energy                   66.61011858
 Virial quotient                       -1.00229905
 !RHF STATE 1.1 Dipole moment          -0.00096999     0.00000343     0.00056516
 Dipole moment /Debye                  -0.00246532     0.00000871     0.00143641

 Orbital energies:

         1.1          2.1          3.1          4.1          5.1          6.1          7.1          8.1          9.1         10.1
    -11.215306   -11.215303    -0.944263    -0.938394    -0.549764    -0.545355    -0.545332    -0.538074    -0.538049    -0.534433

        11.1         12.1
      0.172447     0.229266


 **********************************************************************************************************************************
 DATASETS  * FILE   NREC   LENGTH (MB)   RECORD NAMES
              1      19       21.65       500      610      700      900      950      970     1000      129      960     1100   
                                          VAR    BASINP    GEOM    SYMINP    ZMAT    AOBASIS   BASIS     P2S    ABASIS      S 
                                         1400     1410     1200     1210     1080     1600     1650     1300     1700   
                                           T        V       H0       H01     AOSYM     SMH    MOLCAS    ERIS     OPER   

              2       3        0.51       700     1000     2100   
                                         GEOM     BASIS     RHF  

 PROGRAMS   *        TOTAL       RHF       INT
 CPU TIMES  *         0.99      0.37      0.56
 REAL TIME  *         1.28 SEC
 DISK USED  *        77.71 MB      
 GA USED    *         0.00 MB       (max)       0.00 MB       (current)
 **********************************************************************************************************************************


1PROGRAM * CCSD (Closed-shell coupled cluster)     Authors: C. Hampel, H.-J. Werner, 1991, M. Deegan, P.J. Knowles, 1992


 Convergence thresholds:  THRVAR = 1.00D-08  THRDEN = 1.00D-12

 CCSD(T)     terms to be evaluated (factor= 1.000)


 Number of core orbitals:           2 (   2 )
 Number of closed-shell orbitals:   8 (   8 )
 Number of external orbitals:      58 (  58 )

 Molecular orbitals read from record     2100.2  Type=RHF/CANONICAL (state 1.1)

 Number of N-1 electron functions:               8
 Number of N-2 electron functions:              36
 Number of singly external CSFs:               464
 Number of doubly external CSFs:            107880
 Total number of CSFs:                      108345

 Length of J-op  integral file:               0.00 MB
 Length of K-op  integral file:               0.35 MB
 Length of 3-ext integral record:             0.00 MB

 Memory could be reduced to 2.66 Mwords without degradation in triples

 Integral transformation finished. Total CPU:   0.10 sec, npass=  1  Memory used:   1.86 MW

 Reference energy:                    -80.39668794

 MP2 singlet pair energy:              -0.23207801
 MP2 triplet pair energy:              -0.09154947
 MP2 correlation energy:               -0.32362748
 MP2 total energy:                    -80.72031542

 SCS-MP2 correlation energy:           -0.33545773   (PS=  1.200000  PT=  0.333333)
 SCS-MP2 total energy:                -80.73214567

 ITER.      SQ.NORM     CORR.ENERGY   TOTAL ENERGY   ENERGY CHANGE        DEN1      VAR(S)    VAR(P)  DIIS     TIME
   1      1.13421072    -0.36752900   -80.76421694    -0.04390152    -0.03297768  0.50D-03  0.24D-02  1  1     0.28
   2      1.14681938    -0.37032638   -80.76701431    -0.00279737    -0.01276524  0.15D-04  0.96D-04  2  2     0.47
   3      1.14861109    -0.37049739   -80.76718533    -0.00017101    -0.00095506  0.17D-05  0.56D-05  3  3     0.66
   4      1.14897904    -0.37051769   -80.76720563    -0.00002030    -0.00016594  0.25D-07  0.35D-06  4  4     0.86
   5      1.14902492    -0.37051521   -80.76720315     0.00000248    -0.00002390  0.18D-08  0.18D-07  5  5     1.05
   6      1.14902620    -0.37051515   -80.76720309     0.00000006    -0.00000009  0.19D-09  0.12D-08  6  6     1.24
   7      1.14902628    -0.37051541   -80.76720335    -0.00000026     0.00000014  0.13D-10  0.71D-10  6  1     1.44
   8      1.14902646    -0.37051541   -80.76720334     0.00000001    -0.00000013  0.15D-11  0.41D-11  6  2     1.63
   9      1.14902648    -0.37051539   -80.76720333     0.00000001    -0.00000003  0.15D-12  0.26D-12  6  3     1.82
  10      1.14902648    -0.37051539   -80.76720333     0.00000000     0.00000001  0.11D-13  0.23D-13  6  4     2.01
  11      1.14902647    -0.37051539   -80.76720333    -0.00000000     0.00000001  0.80D-15  0.19D-14  6  5     2.21
  12      1.14902646    -0.37051539   -80.76720333    -0.00000000     0.00000000  0.43D-16  0.23D-15  6  6     2.40
  13      1.14902646    -0.37051539   -80.76720333    -0.00000000     0.00000000  0.33D-17  0.28D-16  6  1     2.59
  14      1.14902646    -0.37051539   -80.76720333     0.00000000     0.00000000  0.59D-18  0.37D-17  6  2     2.78
  15      1.14902646    -0.37051539   -80.76720333     0.00000000     0.00000000  0.71D-19  0.37D-18  6  3     2.98
  16      1.14902646    -0.37051539   -80.76720333    -0.00000000     0.00000000  0.15D-20  0.20D-19  6  5     3.17
  17      1.14902646    -0.37051539   -80.76720333    -0.00000000     0.00000000  0.18D-21  0.56D-21  6  4     3.37
  18      1.14902646    -0.37051539   -80.76720333     0.00000000    -0.00000000  0.45D-22  0.51D-22  6  6     3.56

 Norm of t1 vector:      0.03062656      S-energy:     0.00000000      T1 diagnostic:  0.00541406
                                                                       D1 diagnostic:  0.00878771


 Total CPU time for triples:      1.33 sec


 RESULTS
 =======

  Reference energy                    -80.396687936541
  CCSD singlet pair energy             -0.281841452732
  CCSD triplet pair energy             -0.088673940999
  CCSD correlation energy              -0.370515393731

  Triples (T) contribution             -0.007535700814
  Total correlation energy             -0.378051094545

  CCSD total energy                   -80.767203330272
  CCSD[T] energy                      -80.774915220506
  CCSD-T energy                       -80.774644592201
 !CCSD(T) total energy                -80.774739031086

 Timing summary (sec):

 STEP                 CPU(USER)    SYS     CPU(TOT)    WALL
 Transformation          0.10      0.02      0.12      0.12
 CCSD iterations         3.46      0.11      3.57      3.59
 Triples                 1.33      0.00      1.33      1.35

 Program statistics:

 Available memory in ccsd:               999999644
 Min. memory needed in ccsd:                356281
 Max. memory used in ccsd:                  442401
 Max. memory used in cckext:                403930 (18 integral passes)



 **********************************************************************************************************************************
 DATASETS  * FILE   NREC   LENGTH (MB)   RECORD NAMES
              1      20       30.11       500      610      700      900      950      970     1000      129      960     1100   
                                          VAR    BASINP    GEOM    SYMINP    ZMAT    AOBASIS   BASIS     P2S    ABASIS      S 
                                         1400     1410     1200     1210     1080     1600     1650     1300     1700     1380   
                                           T        V       H0       H01     AOSYM     SMH    MOLCAS    ERIS     OPER     JKOP   

              2       3        0.51       700     1000     2100   
                                         GEOM     BASIS     RHF  

 PROGRAMS   *        TOTAL   CCSD(T)       RHF       INT
 CPU TIMES  *         5.89      4.90      0.37      0.56
 REAL TIME  *         6.37 SEC
 DISK USED  *        77.71 MB      
 GA USED    *         0.00 MB       (max)       0.00 MB       (current)
 **********************************************************************************************************************************

        CCSD(T)         RHF-SCF 
    -80.77473903    -80.39668794
 **********************************************************************************************************************************
 Variable memory released
