
 Primary working directories    : /tmp/1065196.1134.gen6.q
 Secondary working directories  : /tmp/1065196.1134.gen6.q
 Wavefunction directory         : /home/vulcan/jj04645/wfu/
 Main file repository           : /tmp/1065196.1134.gen6.q/

 ARCHNAME  : Linux/x86_64
 FC        : /opt/intel/compilers_and_libraries_2016.1.150/linux/bin/intel64/ifort
 FCVERSION : 16.0.1
 BLASLIB   : -mkl
 id        : ccgc

 Nodes     nprocs
 n079         1
 ga_uses_ma=false, calling ma_init with nominal heap.
 GA-space will be limited to   8.0 MW (determined by -G option)

 Using customized tuning parameters: mindgm=10; mindgv=16; mindgc=4; mindgr=1; noblas=0; mincuda=1000; minvec=7
 default implementation of scratch files=df  

 ***,Optimization of t-butanol
 memory,1000,m
 gthresh,energy=1.0d-12,orbital=1.0d-10,oneint=1.0d-16,twoint=1.0d-16,optgrad=1.0d-6,compress=1.0d-13
 geomtyp=xyz
 
 bohr
 geometry = {
  C    0.0053039738   -0.0571716617    0.0076622353
  O   -0.0223439460    2.6555899171    0.0072972572
  C   -2.7672109678   -0.8324762672   -0.0076034065
  C    1.3304201687   -1.0168289042   -2.3732432671
  C    1.3436906203   -1.0160539529    2.3814465348
  H    1.7101602079    3.2103347378   -0.0005497882
  H   -2.9450255823   -2.8885735604   -0.0084255597
  H   -3.7009619789   -0.0825036475   -1.6869659627
  H   -3.7194703131   -0.0822419678    1.6612162697
  H    1.3070058302   -3.0802864618   -2.4547879717
  H    3.3043642203   -0.4001636353   -2.4013145563
  H    0.3912640935   -0.2736002052   -4.0525642370
  H    1.3207337068   -3.0794847984    2.4637932907
  H    3.3177600519   -0.3993813622    2.3982978073
  H    0.4139224763   -0.2722770292    4.0657413542
 }
 
 basis=VDZ
 {rhf;maxit,200}
 {ccsd(t);maxit,200}

 Variables initialized (661), CPU time= 0.00 sec
 Commands  initialized (458), CPU time= 0.01 sec, 486 directives.
 Default parameters read. Elapsed time= 0.04 sec

 Checking input...
 Passed
1


                                         ***  PROGRAM SYSTEM MOLPRO  ***
                         Copyright, University College Cardiff Consultants Limited, 2008

                                    Version 2010.1 linked May 16 2016 07:17:05


 **********************************************************************************************************************************
 LABEL *   Optimization of t-butanol                                                     
 Linux-4.4.3/n079(x86_64) 64 bit mpp version                                             DATE: 20-May-24          TIME: 15:15:21  
 **********************************************************************************************************************************

 SHA1:             9e8077add272b0f3cad6f7df79ec5211205f459d
 **********************************************************************************************************************************

 THRESHOLDS:

 ZERO    =  1.00D-12  ONEINT  =  1.00D-16  TWOINT  =  1.00D-16  PREFAC  =  1.00D-14  LOCALI  =  1.00D-09  EORDER  =  1.00D-04
 ENERGY  =  1.00D-12  ETEST   =  0.00D+00  EDENS   =  0.00D+00  THRDEDEF=  1.00D-06  GRADIENT=  1.00D-02  STEP    =  1.00D-03
 ORBITAL =  1.00D-10  CIVEC   =  1.00D-05  COEFF   =  1.00D-04  PRINTCI =  5.00D-02  PUNCHCI =  9.90D+01  OPTGRAD =  1.00D-06
 OPTENERG=  1.00D-06  OPTSTEP =  3.00D-04  THRGRAD =  1.00D-10  COMPRESS=  1.00D-13  VARMIN  =  1.00D-07  VARMAX  =  1.00D-03
 THRDOUB =  0.00D+00  THRDIV  =  1.00D-05  THRRED  =  1.00D-07  THRPSP  =  1.00D+00  THRDC   =  1.00D-10  THRCS   =  1.00D-10
 THRNRM  =  1.00D-08  THREQ   =  0.00D+00  THRDE   =  1.00D+00  THRREF  =  1.00D-05  SPARFAC =  1.00D+00  THRDLP  =  1.00D-07
 THRDIA  =  1.00D-10  THRDLS  =  1.00D-07  THRGPS  =  0.00D+00  THRKEX  =  0.00D+00  THRDIS  =  2.00D-01  THRVAR  =  1.00D-10
 THRLOC  =  1.00D-06  THRGAP  =  1.00D-06  THRLOCT = -1.00D+00  THRGAPT = -1.00D+00  THRORB  =  1.00D-06  THRMLTP =  0.00D+00
 THRCPQCI=  1.00D-10  KEXTA   =  0.00D+00  THRCOARS=  0.00D+00  SYMTOL  =  1.00D-06  GRADTOL =  1.00D-06  THROVL  =  1.00D-08
 THRORTH =  1.00D-08  GRID    =  1.00D-06  GRIDMAX =  1.00D-03  DTMAX   =  0.00D+00

 SETTING GEOMTYP        =    XYZ
 ZUNIT=BOHR
 

 Variable memory set to 1000000000 words,  buffer space   230000 words

 SETTING BASIS          =    VDZ


 Recomputing integrals since basis changed


 Using spherical harmonics

 Library entry C      S cc-pVDZ              selected for orbital group  1
 Library entry C      P cc-pVDZ              selected for orbital group  1
 Library entry C      D cc-pVDZ              selected for orbital group  1
 Library entry O      S cc-pVDZ              selected for orbital group  2
 Library entry O      P cc-pVDZ              selected for orbital group  2
 Library entry O      D cc-pVDZ              selected for orbital group  2
 Library entry H      S cc-pVDZ              selected for orbital group  4
 Library entry H      P cc-pVDZ              selected for orbital group  4

1PROGRAM * SEWARD (Integral evaluation for generally contracted gaussian basis sets)     Author: Roland Lindh, 1990

 Geometry written to block  1 of record 700


 Point group  C1  



 ATOMIC COORDINATES

 NR  ATOM    CHARGE       X              Y              Z

   1  C       6.00    0.005303974   -0.057171662    0.007662235
   2  O       8.00   -0.022343946    2.655589917    0.007297257
   3  C       6.00   -2.767210968   -0.832476267   -0.007603406
   4  C       6.00    1.330420169   -1.016828904   -2.373243267
   5  C       6.00    1.343690620   -1.016053953    2.381446535
   6  H       1.00    1.710160208    3.210334738   -0.000549788
   7  H       1.00   -2.945025582   -2.888573560   -0.008425560
   8  H       1.00   -3.700961979   -0.082503647   -1.686965963
   9  H       1.00   -3.719470313   -0.082241968    1.661216270
  10  H       1.00    1.307005830   -3.080286462   -2.454787972
  11  H       1.00    3.304364220   -0.400163635   -2.401314556
  12  H       1.00    0.391264094   -0.273600205   -4.052564237
  13  H       1.00    1.320733707   -3.079484798    2.463793291
  14  H       1.00    3.317760052   -0.399381362    2.398297807
  15  H       1.00    0.413922476   -0.272277029    4.065741354

 Bond lengths in Bohr (Angstrom)

 1-2  2.712902491  1-3  2.878918091  1-4  2.888872784  1-5  2.888872784  2-6  1.819168501
     ( 1.435606168)     ( 1.523457840)     ( 1.528725637)     ( 1.528725637)     ( 0.962662510)

  3- 7  2.063771982   3- 8  2.062670230   3- 9  2.062670230   4-10  2.065200925   4-11  2.068216422
       ( 1.092101097)       ( 1.091518075)       ( 1.091518075)       ( 1.092857262)       ( 1.094452994)

  4-12  2.062649256   5-13  2.065200925   5-14  2.068216422   5-15  2.062649256
       ( 1.091506976)       ( 1.092857262)       ( 1.094452994)       ( 1.091506976)

 Bond angles

  1-2-6  107.17091859   1-3-7  110.56564853   1-3-8  110.02067949   1-3-9  110.02067540

  1- 4-10  111.05427785   1- 4-11  110.48289358   1- 4-12  110.02622484   1- 5-13  111.05427786

  1- 5-14  110.48289358   1- 5-15  110.02622484   2- 1- 3  105.03890380   2- 1- 4  109.67822700

  2-1-5  109.67822700   3-1-4  110.35971126   3-1-5  111.16999594   4-1-5  110.75935079

  7- 3- 8  108.83917092   7- 3- 9  108.83916673   8- 3- 9  108.51019473  10- 4-11  107.95054619

 10- 4-12  108.82712325  11- 4-12  108.42572229  13- 5-14  107.95054619  13- 5-15  108.82712325

 14- 5-15  108.42572230

 NUCLEAR CHARGE:                   42
 NUMBER OF PRIMITIVE AOS:         205
 NUMBER OF SYMMETRY AOS:          200
 NUMBER OF CONTRACTIONS:          120   ( 120A   )
 NUMBER OF CORE ORBITALS:           5   (   5A   )
 NUMBER OF VALENCE ORBITALS:       30   (  30A   )


 NUCLEAR REPULSION ENERGY  199.65127031


 Eigenvalues of metric

         1 0.260E-02 0.487E-02 0.491E-02 0.835E-02 0.169E-01 0.191E-01 0.192E-01 0.240E-01


 Contracted 2-electron integrals neglected if value below      1.0D-16
 AO integral compression algorithm  1   Integral accuracy      1.0D-16

     221.774 MB (compressed) written to integral file ( 97.0%)

     Node minimum: 221.774 MB, node maximum: 221.774 MB


 NUMBER OF SORTED TWO-ELECTRON INTEGRALS:   26357430.     BUFFER LENGTH:  32768
 NUMBER OF SEGMENTS:   2  SEGMENT LENGTH:   15997996      RECORD LENGTH: 524288

 Memory used in sort:      16.56 MW

 SORT1 READ    28587668. AND WROTE    26320228. INTEGRALS IN     76 RECORDS. CPU TIME:     0.25 SEC, REAL TIME:     0.39 SEC
 SORT2 READ    26320228. AND WROTE    26357430. INTEGRALS IN    846 RECORDS. CPU TIME:     0.22 SEC, REAL TIME:     0.31 SEC

 FILE SIZES:   FILE 1:   207.0 MBYTE,  FILE 4:   318.8 MBYTE,   TOTAL:    525.8 MBYTE

 OPERATOR DM      FOR CENTER  0  COORDINATES:    0.000000    0.000000    0.000000


 **********************************************************************************************************************************
 DATASETS  * FILE   NREC   LENGTH (MB)   RECORD NAMES
              1      19      207.20       500      610      700      900      950      970     1000      129      960     1100   
                                          VAR    BASINP    GEOM    SYMINP    ZMAT    AOBASIS   BASIS     P2S    ABASIS      S 
                                         1400     1410     1200     1210     1080     1600     1650     1300     1700   
                                           T        V       H0       H01     AOSYM     SMH    MOLCAS    ERIS     OPER   

 PROGRAMS   *        TOTAL       INT
 CPU TIMES  *         2.55      2.50
 REAL TIME  *         3.10 SEC
 DISK USED  *       748.56 MB      
 GA USED    *         0.01 MB       (max)       0.00 MB       (current)
 **********************************************************************************************************************************

1PROGRAM * RHF-SCF (CLOSED SHELL)       Authors: W. Meyer, H.-J. Werner


 NUMBER OF ELECTRONS:      21+   21-    SPACE SYMMETRY=1    SPIN SYMMETRY: Singlet 
 CONVERGENCE THRESHOLDS:    1.00E-10 (Density)    1.00E-13 (Energy)
 MAX. NUMBER OF ITERATIONS:      200
 INTERPOLATION TYPE:            DIIS
 INTERPOLATION STEPS:              2 (START)      1 (STEP)
 LEVEL SHIFTS:                  0.00 (CLOSED)  0.00 (OPEN) 



 Orbital guess generated from atomic densities. Full valence occupancy:   35

 Molecular orbital dump at record        2100.2

 ITERATION    DDIFF          GRAD             ENERGY        2-EL.EN.            DIPOLE MOMENTS         DIIS
    1      0.000D+00      0.000D+00      -232.08676675    561.121160    0.88971   -0.62514   -0.00335    0
    2      0.000D+00      0.616D-02      -232.16304530    555.894089    0.40918   -0.32432   -0.00215    1
    3      0.122D-01      0.265D-02      -232.17373403    557.893848    0.53036   -0.43041   -0.00193    2
    4      0.389D-02      0.733D-03      -232.17503428    557.665711    0.50340   -0.39425   -0.00195    3
    5      0.141D-02      0.192D-03      -232.17511138    557.602749    0.50270   -0.40646   -0.00195    4
    6      0.307D-03      0.357D-04      -232.17511443    557.622846    0.50208   -0.40480   -0.00193    5
    7      0.899D-04      0.659D-05      -232.17511457    557.617211    0.50201   -0.40496   -0.00194    6
    8      0.185D-04      0.211D-05      -232.17511458    557.618792    0.50202   -0.40506   -0.00194    7
    9      0.399D-05      0.681D-06      -232.17511458    557.618444    0.50199   -0.40507   -0.00193    7
   10      0.155D-05      0.190D-06      -232.17511458    557.618498    0.50199   -0.40509   -0.00193    7
   11      0.503D-06      0.390D-07      -232.17511458    557.618487    0.50199   -0.40509   -0.00193    7
   12      0.123D-06      0.120D-07      -232.17511458    557.618495    0.50199   -0.40509   -0.00193    7
   13      0.242D-07      0.519D-08      -232.17511458    557.618493    0.50199   -0.40509   -0.00193    7
   14      0.102D-07      0.170D-08      -232.17511458    557.618492    0.50199   -0.40509   -0.00193    8
   15      0.302D-08      0.442D-09      -232.17511458    557.618492    0.50199   -0.40509   -0.00193    8
   16      0.106D-08      0.110D-09      -232.17511458    557.618492    0.50199   -0.40509   -0.00193    7
   17      0.254D-09      0.302D-10      -232.17511458    557.618492    0.50199   -0.40509   -0.00193    7
   18      0.791D-10      0.854D-11      -232.17511458    557.618492    0.50199   -0.40509   -0.00193    8
   19      0.173D-10      0.229D-11      -232.17511458    557.618492    0.50199   -0.40509   -0.00193    8
   20      0.629D-11      0.762D-12      -232.17511458    557.618492    0.50199   -0.40509   -0.00193    7
   21      0.183D-11      0.269D-12      -232.17511458    557.618492    0.50199   -0.40509   -0.00193    7
   22      0.688D-12      0.936D-13      -232.17511458    557.618492    0.50199   -0.40509   -0.00193    7
   23      0.324D-12      0.407D-13      -232.17511458    557.618492    0.50199   -0.40509   -0.00193    8
   24      0.211D-12      0.338D-13      -232.17511458    557.618492    0.50199   -0.40509   -0.00193    9
   25      0.115D-12      0.256D-13      -232.17511458    557.618492    0.50199   -0.40509   -0.00193    9
   26      0.651D-13      0.274D-13      -232.17511458    557.618492    0.50199   -0.40509   -0.00193    9
   27      0.486D-13      0.250D-13      -232.17511458    557.618492    0.50199   -0.40509   -0.00193    9
   28      0.233D-13      0.257D-13      -232.17511458    557.618492    0.50199   -0.40509   -0.00193    9
   29      0.339D-13      0.237D-13      -232.17511458    557.618492    0.50199   -0.40509   -0.00193    9
   30      0.302D-13      0.238D-13      -232.17511458    557.618492    0.50199   -0.40509   -0.00193    9
   31      0.295D-13      0.227D-13      -232.17511458    557.618492    0.50199   -0.40509   -0.00193    9
   32      0.237D-13      0.236D-13      -232.17511458    557.618492    0.50199   -0.40509   -0.00193    9
   33      0.338D-13      0.214D-13      -232.17511458    557.618492    0.50199   -0.40509   -0.00193    9
   34      0.242D-13      0.198D-13      -232.17511458    557.618492    0.50199   -0.40509   -0.00193    9
   35      0.236D-13      0.191D-13      -232.17511458    557.618492    0.50199   -0.40509   -0.00193    9
   36      0.245D-13      0.218D-13      -232.17511458    557.618492    0.50199   -0.40509   -0.00193    9
   37      0.269D-13      0.228D-13      -232.17511458    557.618492    0.50199   -0.40509   -0.00193    9
   38      0.265D-13      0.204D-13      -232.17511458    557.618492    0.50199   -0.40509   -0.00193    9
   39      0.269D-13      0.254D-13      -232.17511458    557.618492    0.50199   -0.40509   -0.00193    9
   40      0.280D-13      0.246D-13      -232.17511458    557.618492    0.50199   -0.40509   -0.00193    9
   41      0.282D-13      0.270D-13      -232.17511458    557.618492    0.50199   -0.40509   -0.00193    9
   42      0.339D-13      0.178D-13      -232.17511458    557.618492    0.50199   -0.40509   -0.00193    9
   43      0.225D-13      0.181D-13      -232.17511458    557.618492    0.50199   -0.40509   -0.00193    9
   44      0.316D-13      0.220D-13      -232.17511458    557.618492    0.50199   -0.40509   -0.00193    0

 Final occupancy:  21

 !RHF STATE 1.1 Energy               -232.175114582877
 Nuclear energy                       199.65127031
 One-electron energy                 -710.63563114
 Two-electron energy                  278.80924624
 Virial quotient                       -1.00088989
 !RHF STATE 1.1 Dipole moment           0.50199226    -0.40509436    -0.00193478
 Dipole moment /Debye                   1.27585350    -1.02957971    -0.00491740

 Orbital energies:

         1.1          2.1          3.1          4.1          5.1          6.1          7.1          8.1          9.1         10.1
    -20.545137   -11.282096   -11.220625   -11.220292   -11.214404    -1.352184    -1.064279    -0.940072    -0.938022    -0.766717

        11.1         12.1         13.1         14.1         15.1         16.1         17.1         18.1         19.1         20.1
     -0.665527    -0.620775    -0.618194    -0.573414    -0.553977    -0.527818    -0.514496    -0.505321    -0.500224    -0.458142

        21.1         22.1         23.1
     -0.426854     0.166841     0.220198


 **********************************************************************************************************************************
 DATASETS  * FILE   NREC   LENGTH (MB)   RECORD NAMES
              1      19      207.20       500      610      700      900      950      970     1000      129      960     1100   
                                          VAR    BASINP    GEOM    SYMINP    ZMAT    AOBASIS   BASIS     P2S    ABASIS      S 
                                         1400     1410     1200     1210     1080     1600     1650     1300     1700   
                                           T        V       H0       H01     AOSYM     SMH    MOLCAS    ERIS     OPER   

              2       3        0.80       700     1000     2100   
                                         GEOM     BASIS     RHF  

 PROGRAMS   *        TOTAL       RHF       INT
 CPU TIMES  *         9.09      6.55      2.50
 REAL TIME  *        10.48 SEC
 DISK USED  *       748.56 MB      
 GA USED    *         0.01 MB       (max)       0.00 MB       (current)
 **********************************************************************************************************************************


1PROGRAM * CCSD (Closed-shell coupled cluster)     Authors: C. Hampel, H.-J. Werner, 1991, M. Deegan, P.J. Knowles, 1992


 Convergence thresholds:  THRVAR = 1.00D-08  THRDEN = 1.00D-12

 CCSD(T)     terms to be evaluated (factor= 1.000)


 Number of core orbitals:           5 (   5 )
 Number of closed-shell orbitals:  16 (  16 )
 Number of external orbitals:      99 (  99 )

 Molecular orbitals read from record     2100.2  Type=RHF/CANONICAL (state 1.1)

 Number of N-1 electron functions:              16
 Number of N-2 electron functions:             136
 Number of singly external CSFs:              1584
 Number of doubly external CSFs:           1255320
 Total number of CSFs:                     1256905

 Length of J-op  integral file:               0.00 MB
 Length of K-op  integral file:               1.03 MB
 Length of 3-ext integral record:             0.00 MB

 Memory could be reduced to 21.47 Mwords without degradation in triples

 Integral transformation finished. Total CPU:   1.07 sec, npass=  1  Memory used:  18.35 MW

 Reference energy:                   -232.17511458

 MP2 singlet pair energy:              -0.49759713
 MP2 triplet pair energy:              -0.27475362
 MP2 correlation energy:               -0.77235075
 MP2 total energy:                   -232.94746533

 SCS-MP2 correlation energy:           -0.76807436   (PS=  1.200000  PT=  0.333333)
 SCS-MP2 total energy:               -232.94318895

 ITER.      SQ.NORM     CORR.ENERGY   TOTAL ENERGY   ENERGY CHANGE        DEN1      VAR(S)    VAR(P)  DIIS     TIME
   1      1.27363308    -0.82954929  -233.00466388    -0.05719854    -0.03605910  0.25D-02  0.44D-02  1  1     4.44
   2      1.29481966    -0.83387019  -233.00898477    -0.00432090    -0.02220551  0.67D-04  0.42D-03  2  2     7.86
   3      1.29934612    -0.83408039  -233.00919497    -0.00021020    -0.00277704  0.25D-04  0.24D-04  3  3    11.25
   4      1.30061467    -0.83408625  -233.00920084    -0.00000586    -0.00060346  0.64D-06  0.21D-05  4  4    14.67
   5      1.30084640    -0.83409522  -233.00920980    -0.00000897    -0.00008115  0.19D-06  0.15D-06  5  5    18.08
   6      1.30088764    -0.83409195  -233.00920654     0.00000326    -0.00001322  0.26D-07  0.14D-07  6  6    21.51
   7      1.30089459    -0.83409073  -233.00920532     0.00000122    -0.00000072  0.38D-08  0.17D-08  6  1    24.93
   8      1.30089818    -0.83409075  -233.00920533    -0.00000001    -0.00000042  0.68D-09  0.22D-09  6  2    28.35
   9      1.30089875    -0.83409068  -233.00920526     0.00000006     0.00000057  0.64D-10  0.39D-10  6  4    31.76
  10      1.30089933    -0.83409067  -233.00920525     0.00000001    -0.00000001  0.51D-11  0.38D-11  6  3    35.17
  11      1.30089931    -0.83409067  -233.00920525    -0.00000000     0.00000005  0.79D-12  0.47D-12  6  5    38.59
  12      1.30089925    -0.83409067  -233.00920526    -0.00000000     0.00000003  0.14D-12  0.66D-13  6  6    42.00
  13      1.30089920    -0.83409068  -233.00920526    -0.00000000     0.00000003  0.11D-13  0.10D-13  6  2    45.42
  14      1.30089918    -0.83409068  -233.00920526    -0.00000000     0.00000001  0.17D-14  0.62D-15  6  1    48.83
  15      1.30089918    -0.83409068  -233.00920526    -0.00000000     0.00000000  0.22D-15  0.13D-15  6  4    52.24
  16      1.30089918    -0.83409068  -233.00920526     0.00000000    -0.00000000  0.35D-16  0.20D-16  6  3    55.65
  17      1.30089918    -0.83409068  -233.00920526     0.00000000    -0.00000000  0.33D-17  0.26D-17  6  5    59.08
  18      1.30089918    -0.83409068  -233.00920526    -0.00000000    -0.00000000  0.89D-18  0.35D-18  6  6    62.50
  19      1.30089918    -0.83409068  -233.00920526    -0.00000000    -0.00000000  0.22D-18  0.64D-19  6  2    65.92
  20      1.30089918    -0.83409068  -233.00920526    -0.00000000     0.00000000  0.33D-19  0.12D-19  6  1    69.33
  21      1.30089918    -0.83409068  -233.00920526    -0.00000000     0.00000000  0.41D-20  0.21D-20  6  4    72.75
  22      1.30089918    -0.83409068  -233.00920526     0.00000000    -0.00000000  0.71D-21  0.32D-21  6  3    76.17

 Norm of t1 vector:      0.06604799      S-energy:    -0.00000000      T1 diagnostic:  0.00825600
                                                                       D1 diagnostic:  0.02161458


 Total CPU time for triples:     49.95 sec


 RESULTS
 =======

  Reference energy                   -232.175114582876
  CCSD singlet pair energy             -0.581025515813
  CCSD triplet pair energy             -0.253065161023
  CCSD correlation energy              -0.834090676836

  Triples (T) contribution             -0.023260542839
  Total correlation energy             -0.857351219675

  CCSD total energy                  -233.009205259713
  CCSD[T] energy                     -233.033162633823
  CCSD-T energy                      -233.032129776016
 !CCSD(T) total energy               -233.032465802552

 Timing summary (sec):

 STEP                 CPU(USER)    SYS     CPU(TOT)    WALL
 Transformation          1.13      0.12      1.25      1.25
 CCSD iterations        75.04      1.70     76.74     77.20
 Triples                49.95      1.06     51.01     51.02

 Program statistics:

 Available memory in ccsd:               999998876
 Min. memory needed in ccsd:               3310297
 Max. memory used in ccsd:                 4412497
 Max. memory used in cckext:               4149679 (22 integral passes)



 **********************************************************************************************************************************
 DATASETS  * FILE   NREC   LENGTH (MB)   RECORD NAMES
              1      20      293.86       500      610      700      900      950      970     1000      129      960     1100   
                                          VAR    BASINP    GEOM    SYMINP    ZMAT    AOBASIS   BASIS     P2S    ABASIS      S 
                                         1400     1410     1200     1210     1080     1600     1650     1300     1700     1380   
                                           T        V       H0       H01     AOSYM     SMH    MOLCAS    ERIS     OPER     JKOP   

              2       3        0.80       700     1000     2100   
                                         GEOM     BASIS     RHF  

 PROGRAMS   *        TOTAL   CCSD(T)       RHF       INT
 CPU TIMES  *       135.22    126.13      6.55      2.50
 REAL TIME  *       139.99 SEC
 DISK USED  *       748.56 MB      
 GA USED    *         0.01 MB       (max)       0.00 MB       (current)
 **********************************************************************************************************************************

        CCSD(T)         RHF-SCF 
   -233.03246580   -232.17511458
 **********************************************************************************************************************************
 Variable memory released
