
 Primary working directories    : /tmp/943183.340.gen6.q
 Secondary working directories  : /tmp/943183.340.gen6.q
 Wavefunction directory         : /home/vulcan/mel64643/wfu/
 Main file repository           : /tmp/943183.340.gen6.q/

 ARCHNAME  : Linux/x86_64
 FC        : /opt/intel/compilers_and_libraries_2016.1.150/linux/bin/intel64/ifort
 FCVERSION : 16.0.1
 BLASLIB   : -mkl
 id        : ccgc

 Nodes     nprocs
 n079         1
 ga_uses_ma=false, calling ma_init with nominal heap.
 GA-space will be limited to   8.0 MW (determined by -G option)

 Using customized tuning parameters: mindgm=10; mindgv=16; mindgc=4; mindgr=1; noblas=0; mincuda=1000; minvec=7
 default implementation of scratch files=df  

 ***,Optimization of h2o_2
 memory,1000,m
 gthresh,energy=1.0d-12,orbital=1.0d-10,oneint=1.0d-16,twoint=1.0d-16,optgrad=1.0d-6,compress=1.0d-13
 geomtyp=xyz
 
 bohr
 geometry = {
  C    0.0014188429   -3.4267444502   -0.0022588423
  H   -0.9741110703   -2.7470211910   -1.6843329680
  H   -0.9766005117   -2.7449159168    1.6775160468
  H    1.9359650921   -2.7192260657   -0.0012693811
  H    0.0057707220   -5.4865288107    0.0074539301
  C    0.0015107753    3.4267530443    0.0005790159
  H    0.0008760332    5.4865646276    0.0014324202
  H    0.9709647455    2.7380359411   -1.6813494719
  H    0.9734464121    2.7366438504    1.6805034503
  H   -1.9392410410    2.7364389709    0.0017258000
 }
 
 basis=AVDZ, H=VDZ
 {rhf;maxit,200}
 {ccsd(t);maxit,200}

 Variables initialized (661), CPU time= 0.00 sec
 Commands  initialized (458), CPU time= 0.00 sec, 486 directives.
 Default parameters read. Elapsed time= 0.04 sec

 Checking input...
 Passed
1


                                         ***  PROGRAM SYSTEM MOLPRO  ***
                         Copyright, University College Cardiff Consultants Limited, 2008

                                    Version 2010.1 linked May 16 2016 07:17:05


 **********************************************************************************************************************************
 LABEL *   Optimization of h2o_2                                                         
 Linux-4.4.3/n079(x86_64) 64 bit mpp version                                             DATE: 23-Oct-23          TIME: 11:52:03  
 **********************************************************************************************************************************

 SHA1:             9e8077add272b0f3cad6f7df79ec5211205f459d
 **********************************************************************************************************************************

 THRESHOLDS:

 ZERO    =  1.00D-12  ONEINT  =  1.00D-16  TWOINT  =  1.00D-16  PREFAC  =  1.00D-14  LOCALI  =  1.00D-09  EORDER  =  1.00D-04
 ENERGY  =  1.00D-12  ETEST   =  0.00D+00  EDENS   =  0.00D+00  THRDEDEF=  1.00D-06  GRADIENT=  1.00D-02  STEP    =  1.00D-03
 ORBITAL =  1.00D-10  CIVEC   =  1.00D-05  COEFF   =  1.00D-04  PRINTCI =  5.00D-02  PUNCHCI =  9.90D+01  OPTGRAD =  1.00D-06
 OPTENERG=  1.00D-06  OPTSTEP =  3.00D-04  THRGRAD =  1.00D-10  COMPRESS=  1.00D-13  VARMIN  =  1.00D-07  VARMAX  =  1.00D-03
 THRDOUB =  0.00D+00  THRDIV  =  1.00D-05  THRRED  =  1.00D-07  THRPSP  =  1.00D+00  THRDC   =  1.00D-10  THRCS   =  1.00D-10
 THRNRM  =  1.00D-08  THREQ   =  0.00D+00  THRDE   =  1.00D+00  THRREF  =  1.00D-05  SPARFAC =  1.00D+00  THRDLP  =  1.00D-07
 THRDIA  =  1.00D-10  THRDLS  =  1.00D-07  THRGPS  =  0.00D+00  THRKEX  =  0.00D+00  THRDIS  =  2.00D-01  THRVAR  =  1.00D-10
 THRLOC  =  1.00D-06  THRGAP  =  1.00D-06  THRLOCT = -1.00D+00  THRGAPT = -1.00D+00  THRORB  =  1.00D-06  THRMLTP =  0.00D+00
 THRCPQCI=  1.00D-10  KEXTA   =  0.00D+00  THRCOARS=  0.00D+00  SYMTOL  =  1.00D-06  GRADTOL =  1.00D-06  THROVL  =  1.00D-08
 THRORTH =  1.00D-08  GRID    =  1.00D-06  GRIDMAX =  1.00D-03  DTMAX   =  0.00D+00

 SETTING GEOMTYP        =    XYZ
 ZUNIT=BOHR
 

 Variable memory set to 1000000000 words,  buffer space   230000 words

 SETTING BASIS          =    AVDZ,H=VDZ


 Recomputing integrals since basis changed


 Using spherical harmonics

 Library entry C      S aug-cc-pVDZ          selected for orbital group  1
 Library entry C      P aug-cc-pVDZ          selected for orbital group  1
 Library entry C      D aug-cc-pVDZ          selected for orbital group  1
 Library entry H      S cc-pVDZ              selected for orbital group  2
 Library entry H      P cc-pVDZ              selected for orbital group  2

1PROGRAM * SEWARD (Integral evaluation for generally contracted gaussian basis sets)     Author: Roland Lindh, 1990

 Geometry written to block  1 of record 700


 Point group  C1  



 ATOMIC COORDINATES

 NR  ATOM    CHARGE       X              Y              Z

   1  C       6.00    0.001418843   -3.426744450   -0.002258842
   2  H       1.00   -0.974111070   -2.747021191   -1.684332968
   3  H       1.00   -0.976600512   -2.744915917    1.677516047
   4  H       1.00    1.935965092   -2.719226066   -0.001269381
   5  H       1.00    0.005770722   -5.486528811    0.007453930
   6  C       6.00    0.001510775    3.426753044    0.000579016
   7  H       1.00    0.000876033    5.486564628    0.001432420
   8  H       1.00    0.970964746    2.738035941   -1.681349472
   9  H       1.00    0.973446412    2.736643850    1.680503450
  10  H       1.00   -1.939241041    2.736438971    0.001725800

 Bond lengths in Bohr (Angstrom)

 1-2  2.059867880  1-3  2.059867880  1-4  2.059867091  1-5  2.059811858  6-7  2.059811858
     ( 1.090035136)     ( 1.090035136)     ( 1.090034718)     ( 1.090005490)     ( 1.090005490)

  6- 8  2.059867881   6- 9  2.059867881   6-10  2.059867095
       ( 1.090035136)       ( 1.090035136)       ( 1.090034720)

 Bond angles

  2-1-3  109.37975591   2-1-4  109.37963982   2-1-5  109.56223842   3-1-4  109.37963983

  3-1-5  109.15709604   4-1-5  109.96747289   7-6-8  109.56240831   7-6-9  109.56240831

  7- 6-10  109.56250040   8- 6- 9  109.37992579   8- 6-10  109.37980976   9- 6-10  109.37980975

 NUCLEAR CHARGE:                   20
 NUMBER OF PRIMITIVE AOS:         130
 NUMBER OF SYMMETRY AOS:          126
 NUMBER OF CONTRACTIONS:           86   (  86A   )
 NUMBER OF CORE ORBITALS:           2   (   2A   )
 NUMBER OF VALENCE ORBITALS:       16   (  16A   )


 NUCLEAR REPULSION ENERGY   41.32143392


 Eigenvalues of metric

         1 0.535E-02 0.665E-02 0.907E-02 0.115E-01 0.117E-01 0.117E-01 0.140E-01 0.140E-01


 Contracted 2-electron integrals neglected if value below      1.0D-16
 AO integral compression algorithm  1   Integral accuracy      1.0D-16

     57.147 MB (compressed) written to integral file ( 86.8%)

     Node minimum: 57.147 MB, node maximum: 57.147 MB


 NUMBER OF SORTED TWO-ELECTRON INTEGRALS:    6999411.     BUFFER LENGTH:  32768
 NUMBER OF SEGMENTS:   1  SEGMENT LENGTH:    6999411      RECORD LENGTH: 524288

 Memory used in sort:       7.56 MW

 SORT1 READ     8242194. AND WROTE     6850798. INTEGRALS IN     20 RECORDS. CPU TIME:     0.06 SEC, REAL TIME:     0.11 SEC
 SORT2 READ     6850798. AND WROTE     6999411. INTEGRALS IN    218 RECORDS. CPU TIME:     0.09 SEC, REAL TIME:     0.11 SEC

 FILE SIZES:   FILE 1:    51.8 MBYTE,  FILE 4:    83.9 MBYTE,   TOTAL:    135.7 MBYTE

 OPERATOR DM      FOR CENTER  0  COORDINATES:    0.000000    0.000000    0.000000


 **********************************************************************************************************************************
 DATASETS  * FILE   NREC   LENGTH (MB)   RECORD NAMES
              1      19       51.84       500      610      700      900      950      970     1000      129      960     1100   
                                          VAR    BASINP    GEOM    SYMINP    ZMAT    AOBASIS   BASIS     P2S    ABASIS      S 
                                         1400     1410     1200     1210     1080     1600     1650     1300     1700   
                                           T        V       H0       H01     AOSYM     SMH    MOLCAS    ERIS     OPER   

 PROGRAMS   *        TOTAL       INT
 CPU TIMES  *         0.61      0.57
 REAL TIME  *         0.90 SEC
 DISK USED  *       193.59 MB      
 GA USED    *         0.00 MB       (max)       0.00 MB       (current)
 **********************************************************************************************************************************

1PROGRAM * RHF-SCF (CLOSED SHELL)       Authors: W. Meyer, H.-J. Werner


 NUMBER OF ELECTRONS:      10+   10-    SPACE SYMMETRY=1    SPIN SYMMETRY: Singlet 
 CONVERGENCE THRESHOLDS:    1.00E-10 (Density)    1.00E-13 (Energy)
 MAX. NUMBER OF ITERATIONS:      200
 INTERPOLATION TYPE:            DIIS
 INTERPOLATION STEPS:              2 (START)      1 (STEP)
 LEVEL SHIFTS:                  0.00 (CLOSED)  0.00 (OPEN) 



 Orbital guess generated from atomic densities. Full valence occupancy:   18

 Molecular orbital dump at record        2100.2

 ITERATION    DDIFF          GRAD             ENERGY        2-EL.EN.            DIPOLE MOMENTS         DIIS
    1      0.000D+00      0.000D+00       -80.36121658    134.738892   -0.00225   -0.00001    0.00128    0
    2      0.000D+00      0.502D-02       -80.39314992    132.450399   -0.00085    0.00000    0.00042    1
    3      0.106D-01      0.186D-02       -80.39710339    133.271144   -0.00112    0.00000    0.00062    2
    4      0.347D-02      0.507D-03       -80.39768691    133.138870   -0.00100    0.00000    0.00056    3
    5      0.114D-02      0.611D-04       -80.39769473    133.146255   -0.00098    0.00000    0.00056    4
    6      0.162D-03      0.345D-05       -80.39769477    133.146087   -0.00098    0.00000    0.00056    5
    7      0.156D-04      0.266D-06       -80.39769477    133.146077   -0.00098    0.00000    0.00056    5
    8      0.862D-06      0.478D-07       -80.39769477    133.146077   -0.00098    0.00000    0.00056    4
    9      0.113D-06      0.807D-08       -80.39769477    133.146078   -0.00098    0.00000    0.00056    4
   10      0.229D-07      0.129D-08       -80.39769477    133.146078   -0.00098    0.00000    0.00056    5
   11      0.309D-08      0.319D-09       -80.39769477    133.146078   -0.00098    0.00000    0.00056    5
   12      0.724D-09      0.920D-10       -80.39769477    133.146078   -0.00098    0.00000    0.00056    6
   13      0.219D-09      0.182D-10       -80.39769477    133.146078   -0.00098    0.00000    0.00056    6
   14      0.442D-10      0.362D-11       -80.39769477    133.146078   -0.00098    0.00000    0.00056    6
   15      0.141D-10      0.420D-12       -80.39769477    133.146078   -0.00098    0.00000    0.00056    6
   16      0.151D-11      0.977D-13       -80.39769477    133.146078   -0.00098    0.00000    0.00056    6
   17      0.256D-12      0.213D-13       -80.39769477    133.146078   -0.00098    0.00000    0.00056    6
   18      0.103D-12      0.138D-13       -80.39769477    133.146078   -0.00098    0.00000    0.00056    0

 Final occupancy:  10

 !RHF STATE 1.1 Energy                -80.397694765843
 Nuclear energy                        41.32143392
 One-electron energy                 -188.29216774
 Two-electron energy                   66.57303905
 Virial quotient                       -1.00212698
 !RHF STATE 1.1 Dipole moment          -0.00097910     0.00000123     0.00055501
 Dipole moment /Debye                  -0.00248847     0.00000313     0.00141059

 Orbital energies:

         1.1          2.1          3.1          4.1          5.1          6.1          7.1          8.1          9.1         10.1
    -11.215488   -11.215486    -0.945449    -0.939629    -0.550782    -0.546330    -0.546292    -0.539059    -0.539019    -0.535511

        11.1         12.1
      0.080181     0.084263


 **********************************************************************************************************************************
 DATASETS  * FILE   NREC   LENGTH (MB)   RECORD NAMES
              1      19       51.84       500      610      700      900      950      970     1000      129      960     1100   
                                          VAR    BASINP    GEOM    SYMINP    ZMAT    AOBASIS   BASIS     P2S    ABASIS      S 
                                         1400     1410     1200     1210     1080     1600     1650     1300     1700   
                                           T        V       H0       H01     AOSYM     SMH    MOLCAS    ERIS     OPER   

              2       3        0.57       700     1000     2100   
                                         GEOM     BASIS     RHF  

 PROGRAMS   *        TOTAL       RHF       INT
 CPU TIMES  *         1.44      0.83      0.57
 REAL TIME  *         1.82 SEC
 DISK USED  *       193.59 MB      
 GA USED    *         0.00 MB       (max)       0.00 MB       (current)
 **********************************************************************************************************************************


1PROGRAM * CCSD (Closed-shell coupled cluster)     Authors: C. Hampel, H.-J. Werner, 1991, M. Deegan, P.J. Knowles, 1992


 Convergence thresholds:  THRVAR = 1.00D-08  THRDEN = 1.00D-12

 CCSD(T)     terms to be evaluated (factor= 1.000)


 Number of core orbitals:           2 (   2 )
 Number of closed-shell orbitals:   8 (   8 )
 Number of external orbitals:      76 (  76 )

 Molecular orbitals read from record     2100.2  Type=RHF/CANONICAL (state 1.1)

 Number of N-1 electron functions:               8
 Number of N-2 electron functions:              36
 Number of singly external CSFs:               608
 Number of doubly external CSFs:            185136
 Total number of CSFs:                      185745

 Length of J-op  integral file:               0.00 MB
 Length of K-op  integral file:               0.54 MB
 Length of 3-ext integral record:             0.00 MB

 Memory could be reduced to 5.45 Mwords without degradation in triples

 Integral transformation finished. Total CPU:   0.17 sec, npass=  1  Memory used:   3.53 MW

 Reference energy:                    -80.39769477

 MP2 singlet pair energy:              -0.23820894
 MP2 triplet pair energy:              -0.09578104
 MP2 correlation energy:               -0.33398998
 MP2 total energy:                    -80.73168475

 SCS-MP2 correlation energy:           -0.34544782   (PS=  1.200000  PT=  0.333333)
 SCS-MP2 total energy:                -80.74314259

 ITER.      SQ.NORM     CORR.ENERGY   TOTAL ENERGY   ENERGY CHANGE        DEN1      VAR(S)    VAR(P)  DIIS     TIME
   1      1.13988122    -0.37810886   -80.77580363    -0.04411888    -0.03297345  0.68D-03  0.24D-02  1  1     0.42
   2      1.15302451    -0.38090238   -80.77859714    -0.00279352    -0.01280975  0.15D-04  0.11D-03  2  2     0.69
   3      1.15509505    -0.38104060   -80.77873537    -0.00013823    -0.00107850  0.24D-05  0.62D-05  3  3     0.96
   4      1.15552339    -0.38105823   -80.77875300    -0.00001763    -0.00017357  0.60D-07  0.37D-06  4  4     1.22
   5      1.15558391    -0.38105428   -80.77874904     0.00000396    -0.00002808  0.29D-08  0.21D-07  5  5     1.48
   6      1.15558611    -0.38105364   -80.77874840     0.00000064    -0.00000058  0.19D-09  0.15D-08  6  6     1.75
   7      1.15558626    -0.38105392   -80.77874868    -0.00000028     0.00000005  0.15D-10  0.95D-10  6  1     2.02
   8      1.15558632    -0.38105393   -80.77874869    -0.00000001    -0.00000009  0.18D-11  0.64D-11  6  2     2.28
   9      1.15558628    -0.38105392   -80.77874869     0.00000000    -0.00000000  0.39D-12  0.46D-12  6  3     2.55
  10      1.15558625    -0.38105393   -80.77874869    -0.00000000     0.00000001  0.31D-13  0.43D-13  6  4     2.82
  11      1.15558623    -0.38105393   -80.77874869    -0.00000000     0.00000001  0.26D-14  0.38D-14  6  5     3.09
  12      1.15558622    -0.38105393   -80.77874869    -0.00000000     0.00000000  0.21D-15  0.45D-15  6  6     3.36
  13      1.15558621    -0.38105393   -80.77874869    -0.00000000     0.00000000  0.13D-16  0.57D-16  6  1     3.62
  14      1.15558621    -0.38105393   -80.77874869    -0.00000000     0.00000000  0.18D-17  0.72D-17  6  2     3.89
  15      1.15558621    -0.38105393   -80.77874869    -0.00000000     0.00000000  0.81D-19  0.58D-18  6  4     4.16
  16      1.15558621    -0.38105393   -80.77874869    -0.00000000     0.00000000  0.49D-20  0.16D-19  6  3     4.42
  17      1.15558621    -0.38105393   -80.77874869     0.00000000    -0.00000000  0.78D-21  0.13D-20  6  5     4.69
  18      1.15558621    -0.38105393   -80.77874869     0.00000000    -0.00000000  0.13D-21  0.11D-21  6  6     4.95

 Norm of t1 vector:      0.03875335      S-energy:    -0.00000000      T1 diagnostic:  0.00685069
                                                                       D1 diagnostic:  0.01214388


 Total CPU time for triples:      2.20 sec


 RESULTS
 =======

  Reference energy                    -80.397694765843
  CCSD singlet pair energy             -0.287786925976
  CCSD triplet pair energy             -0.093267001710
  CCSD correlation energy              -0.381053927687

  Triples (T) contribution             -0.008787026162
  Total correlation energy             -0.389840953849

  CCSD total energy                   -80.778748693530
  CCSD[T] energy                      -80.787750321772
  CCSD-T energy                       -80.787423681259
 !CCSD(T) total energy                -80.787535719692

 Timing summary (sec):

 STEP                 CPU(USER)    SYS     CPU(TOT)    WALL
 Transformation          0.18      0.02      0.20      0.20
 CCSD iterations         4.77      0.23      5.00      5.03
 Triples                 2.20      0.06      2.26      2.26

 Program statistics:

 Available memory in ccsd:               999999644
 Min. memory needed in ccsd:                591289
 Max. memory used in ccsd:                  742713
 Max. memory used in cckext:                619606 (18 integral passes)



 **********************************************************************************************************************************
 DATASETS  * FILE   NREC   LENGTH (MB)   RECORD NAMES
              1      20       69.43       500      610      700      900      950      970     1000      129      960     1100   
                                          VAR    BASINP    GEOM    SYMINP    ZMAT    AOBASIS   BASIS     P2S    ABASIS      S 
                                         1400     1410     1200     1210     1080     1600     1650     1300     1700     1380   
                                           T        V       H0       H01     AOSYM     SMH    MOLCAS    ERIS     OPER     JKOP   

              2       3        0.57       700     1000     2100   
                                         GEOM     BASIS     RHF  

 PROGRAMS   *        TOTAL   CCSD(T)       RHF       INT
 CPU TIMES  *         8.60      7.16      0.83      0.57
 REAL TIME  *         9.35 SEC
 DISK USED  *       193.59 MB      
 GA USED    *         0.00 MB       (max)       0.00 MB       (current)
 **********************************************************************************************************************************

        CCSD(T)         RHF-SCF 
    -80.78753572    -80.39769477
 **********************************************************************************************************************************
 Variable memory released
