
 Primary working directories    : /tmp/878919.731.gen6.q
 Secondary working directories  : /tmp/878919.731.gen6.q
 Wavefunction directory         : /home/vulcan/lo21740/wfu/
 Main file repository           : /tmp/878919.731.gen6.q/

 ARCHNAME  : Linux/x86_64
 FC        : /opt/intel/compilers_and_libraries_2016.1.150/linux/bin/intel64/ifort
 FCVERSION : 16.0.1
 BLASLIB   : -mkl
 id        : ccgc

 Nodes     nprocs
 n091         1
 ga_uses_ma=false, calling ma_init with nominal heap.
 GA-space will be limited to   8.0 MW (determined by -G option)

 Using customized tuning parameters: mindgm=10; mindgv=16; mindgc=4; mindgr=1; noblas=0; mincuda=1000; minvec=7
 default implementation of scratch files=df  

 ***,Optimization of formamide
 memory,1000,m
 gthresh,energy=1.0d-12,orbital=1.0d-10,oneint=1.0d-16,twoint=1.0d-16,optgrad=1.0d-6,compress=1.0d-13
 geomtyp=xyz
 
 bohr
 geometry = {
  C   -3.8260857851    0.0877813221   -0.0006609417
  O   -2.7273631018    2.1430467448   -0.0034074476
  N   -2.6822656284   -2.1789448746   -0.0007012358
  H   -3.7370327752   -3.7581102202   -0.0020636647
  H   -0.7540666275   -2.3045285017    0.0008108383
  H   -5.9034428212   -0.0216322726    0.0035273460
  C    3.8260857851   -0.0877813221    0.0006609417
  O    2.7273631018   -2.1430467448    0.0034074476
  N    2.6822656284    2.1789448746    0.0007012358
  H    3.7370327752    3.7581102202    0.0020636647
  H    0.7540666275    2.3045285017   -0.0008108383
  H    5.9034428212    0.0216322726   -0.0035273460
 }
 
 basis=VDZ
 {rhf;maxit,200}
 {ccsd(t);maxit,200}

 Variables initialized (661), CPU time= 0.01 sec
 Commands  initialized (458), CPU time= 0.00 sec, 486 directives.
 Default parameters read. Elapsed time= 0.04 sec

 Checking input...
 Passed
1


                                         ***  PROGRAM SYSTEM MOLPRO  ***
                         Copyright, University College Cardiff Consultants Limited, 2008

                                    Version 2010.1 linked May 16 2016 07:17:05


 **********************************************************************************************************************************
 LABEL *   Optimization of formamide                                                     
 Linux-4.4.3/n091(x86_64) 64 bit mpp version                                             DATE: 22-May-23          TIME: 21:22:52  
 **********************************************************************************************************************************

 SHA1:             9e8077add272b0f3cad6f7df79ec5211205f459d
 **********************************************************************************************************************************

 THRESHOLDS:

 ZERO    =  1.00D-12  ONEINT  =  1.00D-16  TWOINT  =  1.00D-16  PREFAC  =  1.00D-14  LOCALI  =  1.00D-09  EORDER  =  1.00D-04
 ENERGY  =  1.00D-12  ETEST   =  0.00D+00  EDENS   =  0.00D+00  THRDEDEF=  1.00D-06  GRADIENT=  1.00D-02  STEP    =  1.00D-03
 ORBITAL =  1.00D-10  CIVEC   =  1.00D-05  COEFF   =  1.00D-04  PRINTCI =  5.00D-02  PUNCHCI =  9.90D+01  OPTGRAD =  1.00D-06
 OPTENERG=  1.00D-06  OPTSTEP =  3.00D-04  THRGRAD =  1.00D-10  COMPRESS=  1.00D-13  VARMIN  =  1.00D-07  VARMAX  =  1.00D-03
 THRDOUB =  0.00D+00  THRDIV  =  1.00D-05  THRRED  =  1.00D-07  THRPSP  =  1.00D+00  THRDC   =  1.00D-10  THRCS   =  1.00D-10
 THRNRM  =  1.00D-08  THREQ   =  0.00D+00  THRDE   =  1.00D+00  THRREF  =  1.00D-05  SPARFAC =  1.00D+00  THRDLP  =  1.00D-07
 THRDIA  =  1.00D-10  THRDLS  =  1.00D-07  THRGPS  =  0.00D+00  THRKEX  =  0.00D+00  THRDIS  =  2.00D-01  THRVAR  =  1.00D-10
 THRLOC  =  1.00D-06  THRGAP  =  1.00D-06  THRLOCT = -1.00D+00  THRGAPT = -1.00D+00  THRORB  =  1.00D-06  THRMLTP =  0.00D+00
 THRCPQCI=  1.00D-10  KEXTA   =  0.00D+00  THRCOARS=  0.00D+00  SYMTOL  =  1.00D-06  GRADTOL =  1.00D-06  THROVL  =  1.00D-08
 THRORTH =  1.00D-08  GRID    =  1.00D-06  GRIDMAX =  1.00D-03  DTMAX   =  0.00D+00

 SETTING GEOMTYP        =    XYZ
 ZUNIT=BOHR
 

 Variable memory set to 1000000000 words,  buffer space   230000 words

 SETTING BASIS          =    VDZ


 Recomputing integrals since basis changed


 Using spherical harmonics

 Library entry C      S cc-pVDZ              selected for orbital group  1
 Library entry C      P cc-pVDZ              selected for orbital group  1
 Library entry C      D cc-pVDZ              selected for orbital group  1
 Library entry O      S cc-pVDZ              selected for orbital group  2
 Library entry O      P cc-pVDZ              selected for orbital group  2
 Library entry O      D cc-pVDZ              selected for orbital group  2
 Library entry N      S cc-pVDZ              selected for orbital group  3
 Library entry N      P cc-pVDZ              selected for orbital group  3
 Library entry N      D cc-pVDZ              selected for orbital group  3
 Library entry H      S cc-pVDZ              selected for orbital group  4
 Library entry H      P cc-pVDZ              selected for orbital group  4

1PROGRAM * SEWARD (Integral evaluation for generally contracted gaussian basis sets)     Author: Roland Lindh, 1990

 Geometry written to block  1 of record 700


 Point group  Ci  



 ATOMIC COORDINATES

 NR  ATOM    CHARGE       X              Y              Z

   1  C       6.00   -3.826085785    0.087781322   -0.000660942
   2  C       6.00    3.826085785   -0.087781322    0.000660942
   3  O       8.00   -2.727363102    2.143046745   -0.003407448
   4  O       8.00    2.727363102   -2.143046745    0.003407448
   5  N       7.00   -2.682265628   -2.178944875   -0.000701236
   6  N       7.00    2.682265628    2.178944875    0.000701236
   7  H       1.00   -3.737032775   -3.758110220   -0.002063665
   8  H       1.00    3.737032775    3.758110220    0.002063665
   9  H       1.00   -0.754066627   -2.304528502    0.000810838
  10  H       1.00    0.754066627    2.304528502   -0.000810838
  11  H       1.00   -5.903442821   -0.021632273    0.003527346
  12  H       1.00    5.903442821    0.021632273   -0.003527346

 Bond lengths in Bohr (Angstrom)

  1- 3  2.330518190   1- 5  2.538970698   1-11  2.080240643   2- 4  2.330518190   2- 6  2.538970698
       ( 1.233257112)       ( 1.343565427)       ( 1.100815937)       ( 1.233257112)       ( 1.343565427)

  2-12  2.080240643   5- 7  1.899025745   5- 9  1.932284896   6- 8  1.899025745   6-10  1.932284896
       ( 1.100815937)       ( 1.004921143)       ( 1.022521128)       ( 1.004921143)       ( 1.022521128)

 Bond angles

  1- 5- 7  119.48384358   1- 5- 9  120.50251887   2- 6- 8  119.48384358   2- 6-10  120.50251887

  3- 1- 5  125.09537410   3- 1-11  121.14350379   4- 2- 6  125.09537410   4- 2-12  121.14350379

  5- 1-11  113.76110834   6- 2-12  113.76110834   7- 5- 9  120.01363729   8- 6-10  120.01363729

 NUCLEAR CHARGE:                   48
 NUMBER OF PRIMITIVE AOS:         204
 NUMBER OF SYMMETRY AOS:          198
 NUMBER OF CONTRACTIONS:          114   (  57Ag  +  57Au  )
 NUMBER OF CORE ORBITALS:           6   (   3Ag  +   3Au  )
 NUMBER OF VALENCE ORBITALS:       30   (  15Ag  +  15Au  )


 NUCLEAR REPULSION ENERGY  230.40701045


 Eigenvalues of metric

         1 0.556E-02 0.108E-01 0.153E-01 0.239E-01 0.305E-01 0.405E-01 0.419E-01 0.487E-01
         2 0.571E-02 0.113E-01 0.154E-01 0.242E-01 0.280E-01 0.399E-01 0.412E-01 0.432E-01


 Contracted 2-electron integrals neglected if value below      1.0D-16
 AO integral compression algorithm  1   Integral accuracy      1.0D-16

     98.304 MB (compressed) written to integral file ( 92.8%)

     Node minimum: 98.304 MB, node maximum: 98.304 MB


 NUMBER OF SORTED TWO-ELECTRON INTEGRALS:   10931289.     BUFFER LENGTH:  32768
 NUMBER OF SEGMENTS:   1  SEGMENT LENGTH:   10931289      RECORD LENGTH: 524288

 Memory used in sort:      11.49 MW

 SORT1 READ    13250584. AND WROTE    10931000. INTEGRALS IN     32 RECORDS. CPU TIME:     0.13 SEC, REAL TIME:     0.19 SEC
 SORT2 READ    10931000. AND WROTE    10931289. INTEGRALS IN    375 RECORDS. CPU TIME:     0.12 SEC, REAL TIME:     0.18 SEC

 FILE SIZES:   FILE 1:    85.8 MBYTE,  FILE 4:   134.3 MBYTE,   TOTAL:    220.0 MBYTE

 OPERATOR DM      FOR CENTER  0  COORDINATES:    0.000000    0.000000    0.000000


 **********************************************************************************************************************************
 DATASETS  * FILE   NREC   LENGTH (MB)   RECORD NAMES
              1      19       85.86       500      610      700      900      950      970     1000      129      960     1100   
                                          VAR    BASINP    GEOM    SYMINP    ZMAT    AOBASIS   BASIS     P2S    ABASIS      S 
                                         1400     1410     1200     1210     1080     1600     1650     1300     1700   
                                           T        V       H0       H01     AOSYM     SMH    MOLCAS    ERIS     OPER   

 PROGRAMS   *        TOTAL       INT
 CPU TIMES  *         1.49      1.45
 REAL TIME  *         1.84 SEC
 DISK USED  *       319.19 MB      
 GA USED    *         0.00 MB       (max)       0.00 MB       (current)
 **********************************************************************************************************************************

1PROGRAM * RHF-SCF (CLOSED SHELL)       Authors: W. Meyer, H.-J. Werner


 NUMBER OF ELECTRONS:      24+   24-
 CONVERGENCE THRESHOLDS:    1.00E-10 (Density)    1.00E-13 (Energy)
 MAX. NUMBER OF ITERATIONS:      200
 INTERPOLATION TYPE:            DIIS
 INTERPOLATION STEPS:              2 (START)      1 (STEP)
 LEVEL SHIFTS:                  0.00 (CLOSED)  0.00 (OPEN) 



 Orbital guess generated from atomic densities. Full valence occupancy:   18  18

 Molecular orbital dump at record        2100.2

 Initial alpha occupancy:  12  12
 Initial beta  occupancy:  12  12
 Wave function symmetry:    1

 ITERATION    DDIFF          GRAD             ENERGY        2-EL.EN.            DIPOLE MOMENTS         DIIS
    1      0.000D+00      0.000D+00      -337.77844221    705.221917    0.00000    0.00000    0.00000    0
    2      0.000D+00      0.134D-01      -337.85700940    700.027296    0.00000    0.00000    0.00000    1
    3      0.268D-01      0.957D-02      -337.91314242    702.508938    0.00000    0.00000    0.00000    2
    4      0.103D-01      0.126D-02      -337.91524739    702.493019    0.00000    0.00000    0.00000    3
    5      0.226D-02      0.443D-03      -337.91551459    702.422210    0.00000    0.00000    0.00000    4
    6      0.814D-03      0.147D-03      -337.91558222    702.441252    0.00000    0.00000    0.00000    5
    7      0.377D-03      0.659D-04      -337.91559356    702.436684    0.00000    0.00000    0.00000    6
    8      0.191D-03      0.174D-04      -337.91559427    702.437263    0.00000    0.00000    0.00000    7
    9      0.491D-04      0.447D-05      -337.91559432    702.436795    0.00000    0.00000    0.00000    7
   10      0.138D-04      0.101D-05      -337.91559432    702.437076    0.00000    0.00000    0.00000    7
   11      0.275D-05      0.271D-06      -337.91559432    702.436974    0.00000    0.00000    0.00000    8
   12      0.649D-06      0.521D-07      -337.91559432    702.436987    0.00000    0.00000    0.00000    7
   13      0.120D-06      0.164D-07      -337.91559432    702.436987    0.00000    0.00000    0.00000    7
   14      0.479D-07      0.395D-08      -337.91559432    702.436987    0.00000    0.00000    0.00000    7
   15      0.927D-08      0.122D-08      -337.91559432    702.436987    0.00000    0.00000    0.00000    7
   16      0.290D-08      0.304D-09      -337.91559432    702.436987    0.00000    0.00000    0.00000    7
   17      0.729D-09      0.138D-09      -337.91559432    702.436987    0.00000    0.00000    0.00000    7
   18      0.377D-09      0.249D-10      -337.91559432    702.436987    0.00000    0.00000    0.00000    7
   19      0.592D-10      0.934D-11      -337.91559432    702.436987    0.00000    0.00000    0.00000    7
   20      0.181D-10      0.190D-11      -337.91559432    702.436987    0.00000    0.00000    0.00000    0

 Final occupancy:  12  12

 !RHF STATE 1.1 Energy               -337.915594322097
 Nuclear energy                       230.40701045
 One-electron energy                 -919.54109842
 Two-electron energy                  351.21849365
 Virial quotient                       -1.00149413
 !RHF STATE 1.1 Dipole moment           0.00000000     0.00000000     0.00000000
 Dipole moment /Debye                   0.00000000     0.00000000     0.00000000

 Orbital energies:

         1.1          2.1          3.1          4.1          5.1          6.1          7.1          8.1          9.1         10.1
    -20.525335   -15.577502   -11.359692    -1.376804    -1.202180    -0.852195    -0.740207    -0.633917    -0.609678    -0.556945

        11.1         12.1         13.1         14.1
     -0.443415    -0.410497     0.186052     0.200684

         1.2          2.2          3.2          4.2          5.2          6.2          7.2          8.2          9.2         10.2
    -20.525335   -15.577501   -11.359693    -1.371993    -1.208427    -0.827224    -0.731320    -0.695096    -0.583218    -0.564448

        11.2         12.2         13.2         14.2
     -0.418541    -0.400891     0.187933     0.193782


 **********************************************************************************************************************************
 DATASETS  * FILE   NREC   LENGTH (MB)   RECORD NAMES
              1      19       85.86       500      610      700      900      950      970     1000      129      960     1100   
                                          VAR    BASINP    GEOM    SYMINP    ZMAT    AOBASIS   BASIS     P2S    ABASIS      S 
                                         1400     1410     1200     1210     1080     1600     1650     1300     1700   
                                           T        V       H0       H01     AOSYM     SMH    MOLCAS    ERIS     OPER   

              2       3        0.59       700     1000     2100   
                                         GEOM     BASIS     RHF  

 PROGRAMS   *        TOTAL       RHF       INT
 CPU TIMES  *         2.53      1.03      1.45
 REAL TIME  *         3.04 SEC
 DISK USED  *       319.19 MB      
 GA USED    *         0.00 MB       (max)       0.00 MB       (current)
 **********************************************************************************************************************************


1PROGRAM * CCSD (Closed-shell coupled cluster)     Authors: C. Hampel, H.-J. Werner, 1991, M. Deegan, P.J. Knowles, 1992


 Convergence thresholds:  THRVAR = 1.00D-08  THRDEN = 1.00D-12

 CCSD(T)     terms to be evaluated (factor= 1.000)


 Number of core orbitals:           6 (   3   3 )
 Number of closed-shell orbitals:  18 (   9   9 )
 Number of external orbitals:      90 (  45  45 )

 Molecular orbitals read from record     2100.2  Type=RHF/CANONICAL (state 1.1)

 Number of N-1 electron functions:              18
 Number of N-2 electron functions:             171
 Number of singly external CSFs:               810
 Number of doubly external CSFs:            656910
 Total number of CSFs:                      657721

 Length of J-op  integral file:               0.00 MB
 Length of K-op  integral file:               0.48 MB
 Length of 3-ext integral record:             0.00 MB

 Memory could be reduced to 9.36 Mwords without degradation in triples

 Integral transformation finished. Total CPU:   0.44 sec, npass=  1  Memory used:   6.56 MW

 Reference energy:                   -337.91559432

 MP2 singlet pair energy:              -0.58985208
 MP2 triplet pair energy:              -0.38327246
 MP2 correlation energy:               -0.97312454
 MP2 total energy:                   -338.88871886

 SCS-MP2 correlation energy:           -0.94630314   (PS=  1.200000  PT=  0.333333)
 SCS-MP2 total energy:               -338.86189746

 ITER.      SQ.NORM     CORR.ENERGY   TOTAL ENERGY   ENERGY CHANGE        DEN1      VAR(S)    VAR(P)  DIIS     TIME
   1      1.29793731    -1.00505013  -338.92064445    -0.03192559    -0.00216888  0.97D-02  0.55D-02  1  1     1.29
   2      1.32290580    -1.00767301  -338.92326733    -0.00262288    -0.02520164  0.23D-03  0.11D-02  2  2     2.20
   3      1.33565086    -1.00865769  -338.92425202    -0.00098469    -0.00563127  0.22D-03  0.47D-04  3  3     3.09
   4      1.34106559    -1.00842621  -338.92402053     0.00023149    -0.00170762  0.20D-04  0.82D-05  4  4     4.00
   5      1.34320862    -1.00836141  -338.92395573     0.00006480    -0.00044051  0.19D-05  0.11D-05  5  5     4.91
   6      1.34368334    -1.00833018  -338.92392450     0.00003123    -0.00004191  0.15D-06  0.13D-06  6  6     5.82
   7      1.34378995    -1.00832033  -338.92391465     0.00000985    -0.00000533  0.14D-07  0.15D-07  6  2     6.74
   8      1.34380789    -1.00832042  -338.92391474    -0.00000009     0.00000006  0.18D-08  0.17D-08  6  1     7.65
   9      1.34380932    -1.00832009  -338.92391441     0.00000033     0.00000151  0.25D-09  0.22D-09  6  4     8.56
  10      1.34381225    -1.00832005  -338.92391437     0.00000004    -0.00000039  0.69D-10  0.18D-10  6  3     9.47
  11      1.34381211    -1.00832011  -338.92391444    -0.00000007     0.00000017  0.13D-10  0.41D-11  6  5    10.38
  12      1.34381189    -1.00832013  -338.92391445    -0.00000002     0.00000008  0.25D-11  0.11D-11  6  6    11.29
  13      1.34381166    -1.00832016  -338.92391448    -0.00000003     0.00000009  0.37D-12  0.13D-12  6  2    12.21
  14      1.34381157    -1.00832017  -338.92391449    -0.00000001     0.00000002  0.44D-13  0.25D-13  6  1    13.12
  15      1.34381156    -1.00832017  -338.92391449    -0.00000000    -0.00000000  0.89D-14  0.48D-14  6  4    14.03
  16      1.34381156    -1.00832017  -338.92391449    -0.00000000    -0.00000000  0.20D-14  0.86D-15  6  3    14.94
  17      1.34381156    -1.00832017  -338.92391449     0.00000000    -0.00000000  0.64D-15  0.12D-15  6  5    15.85
  18      1.34381155    -1.00832017  -338.92391449    -0.00000000    -0.00000000  0.68D-16  0.42D-16  6  6    16.76
  19      1.34381155    -1.00832017  -338.92391449    -0.00000000     0.00000000  0.16D-16  0.67D-17  6  2    17.67
  20      1.34381155    -1.00832017  -338.92391449    -0.00000000     0.00000000  0.28D-17  0.12D-17  6  1    18.59
  21      1.34381155    -1.00832017  -338.92391449    -0.00000000     0.00000000  0.56D-18  0.25D-18  6  4    19.50
  22      1.34381155    -1.00832017  -338.92391449     0.00000000     0.00000000  0.16D-18  0.59D-19  6  3    20.41
  23      1.34381155    -1.00832017  -338.92391449    -0.00000000     0.00000000  0.52D-19  0.11D-19  6  5    21.31
  24      1.34381155    -1.00832017  -338.92391449     0.00000000    -0.00000000  0.12D-19  0.34D-20  6  6    22.22
  25      1.34381155    -1.00832017  -338.92391449     0.00000000    -0.00000000  0.27D-20  0.89D-21  6  2    23.13

 Norm of t1 vector:      0.14970210      S-energy:     0.00000000      T1 diagnostic:  0.01764256
                                                                       D1 diagnostic:  0.06262373

 Singles amplitudes (print threshold =  0.500E-01):

         I         SYM. A    A   T(IA)

         7         1         2      0.05900459
        16         2         2      0.05805003


 Total CPU time for triples:     13.35 sec


 RESULTS
 =======

  Reference energy                   -337.915594322097
  CCSD singlet pair energy             -0.668154656023
  CCSD triplet pair energy             -0.340165510816
  CCSD correlation energy              -1.008320166836

  Triples (T) contribution             -0.032316905147
  Total correlation energy             -1.040637071983

  CCSD total energy                  -338.923914488933
  CCSD[T] energy                     -338.959254361999
  CCSD-T energy                      -338.955246094131
 !CCSD(T) total energy               -338.956231394081

 Timing summary (sec):

 STEP                 CPU(USER)    SYS     CPU(TOT)    WALL
 Transformation          0.45      0.06      0.51      0.52
 CCSD iterations        22.69      0.90     23.59     23.64
 Triples                13.35      0.44     13.79     13.80

 Program statistics:

 Available memory in ccsd:               999998604
 Min. memory needed in ccsd:               1741948
 Max. memory used in ccsd:                 2318344
 Max. memory used in cckext:               2485613 (25 integral passes)



 **********************************************************************************************************************************
 DATASETS  * FILE   NREC   LENGTH (MB)   RECORD NAMES
              1      20      125.88       500      610      700      900      950      970     1000      129      960     1100   
                                          VAR    BASINP    GEOM    SYMINP    ZMAT    AOBASIS   BASIS     P2S    ABASIS      S 
                                         1400     1410     1200     1210     1080     1600     1650     1300     1700     1380   
                                           T        V       H0       H01     AOSYM     SMH    MOLCAS    ERIS     OPER     JKOP   

              2       3        0.59       700     1000     2100   
                                         GEOM     BASIS     RHF  

 PROGRAMS   *        TOTAL   CCSD(T)       RHF       INT
 CPU TIMES  *        39.03     36.51      1.03      1.45
 REAL TIME  *        41.03 SEC
 DISK USED  *       338.02 MB      
 GA USED    *         0.00 MB       (max)       0.00 MB       (current)
 **********************************************************************************************************************************

        CCSD(T)         RHF-SCF 
   -338.95623139   -337.91559432
 **********************************************************************************************************************************
 Variable memory released
