
 Primary working directories    : /tmp/1065196.114.gen6.q
 Secondary working directories  : /tmp/1065196.114.gen6.q
 Wavefunction directory         : /home/vulcan/jj04645/wfu/
 Main file repository           : /tmp/1065196.114.gen6.q/

 ARCHNAME  : Linux/x86_64
 FC        : /opt/intel/compilers_and_libraries_2016.1.150/linux/bin/intel64/ifort
 FCVERSION : 16.0.1
 BLASLIB   : -mkl
 id        : ccgc

 Nodes     nprocs
 n090         1
 ga_uses_ma=false, calling ma_init with nominal heap.
 GA-space will be limited to   8.0 MW (determined by -G option)

 Using customized tuning parameters: mindgm=10; mindgv=16; mindgc=4; mindgr=1; noblas=0; mincuda=1000; minvec=7
 default implementation of scratch files=df  

 ***,Optimization of t-butanol
 memory,1000,m
 gthresh,energy=1.0d-12,orbital=1.0d-10,oneint=1.0d-16,twoint=1.0d-16,optgrad=1.0d-6,compress=1.0d-13
 geomtyp=xyz
 
 bohr
 geometry = {
  C    0.0053773885   -0.0557297316    0.0062836210
  O   -0.0222198129    2.6570317664    0.0044469946
  C   -2.7727148458   -0.8325451065   -0.0081038758
  C    1.3327065310   -1.0186281641   -2.3790886944
  C    1.3468369055   -1.0152589061    2.3850999768
  H    1.7102871872    3.2117513421    0.0133757469
  H   -2.9505680952   -2.8886391963   -0.0077758545
  H   -3.7067453299   -0.0834691749   -1.6877112041
  H   -3.7246683752   -0.0813844984    1.6604735700
  H    1.3092393011   -3.0821293576   -2.4595062051
  H    3.3066571853   -0.4020154039   -2.4078408905
  H    0.3932706242   -0.2762959095   -4.0586496349
  H    1.3238557710   -3.0786441948    2.4685738057
  H    3.3209207980   -0.3986143765    2.4012703094
  H    0.4173773287   -0.2705478871    4.0691523351
 }
 
 basis=VDZ
 {rhf;maxit,200}
 {ccsd(t);maxit,200}

 Variables initialized (661), CPU time= 0.00 sec
 Commands  initialized (458), CPU time= 0.00 sec, 486 directives.
 Default parameters read. Elapsed time= 0.04 sec

 Checking input...
 Passed
1


                                         ***  PROGRAM SYSTEM MOLPRO  ***
                         Copyright, University College Cardiff Consultants Limited, 2008

                                    Version 2010.1 linked May 16 2016 07:17:05


 **********************************************************************************************************************************
 LABEL *   Optimization of t-butanol                                                     
 Linux-4.4.3/n090(x86_64) 64 bit mpp version                                             DATE: 20-May-24          TIME: 10:32:19  
 **********************************************************************************************************************************

 SHA1:             9e8077add272b0f3cad6f7df79ec5211205f459d
 **********************************************************************************************************************************

 THRESHOLDS:

 ZERO    =  1.00D-12  ONEINT  =  1.00D-16  TWOINT  =  1.00D-16  PREFAC  =  1.00D-14  LOCALI  =  1.00D-09  EORDER  =  1.00D-04
 ENERGY  =  1.00D-12  ETEST   =  0.00D+00  EDENS   =  0.00D+00  THRDEDEF=  1.00D-06  GRADIENT=  1.00D-02  STEP    =  1.00D-03
 ORBITAL =  1.00D-10  CIVEC   =  1.00D-05  COEFF   =  1.00D-04  PRINTCI =  5.00D-02  PUNCHCI =  9.90D+01  OPTGRAD =  1.00D-06
 OPTENERG=  1.00D-06  OPTSTEP =  3.00D-04  THRGRAD =  1.00D-10  COMPRESS=  1.00D-13  VARMIN  =  1.00D-07  VARMAX  =  1.00D-03
 THRDOUB =  0.00D+00  THRDIV  =  1.00D-05  THRRED  =  1.00D-07  THRPSP  =  1.00D+00  THRDC   =  1.00D-10  THRCS   =  1.00D-10
 THRNRM  =  1.00D-08  THREQ   =  0.00D+00  THRDE   =  1.00D+00  THRREF  =  1.00D-05  SPARFAC =  1.00D+00  THRDLP  =  1.00D-07
 THRDIA  =  1.00D-10  THRDLS  =  1.00D-07  THRGPS  =  0.00D+00  THRKEX  =  0.00D+00  THRDIS  =  2.00D-01  THRVAR  =  1.00D-10
 THRLOC  =  1.00D-06  THRGAP  =  1.00D-06  THRLOCT = -1.00D+00  THRGAPT = -1.00D+00  THRORB  =  1.00D-06  THRMLTP =  0.00D+00
 THRCPQCI=  1.00D-10  KEXTA   =  0.00D+00  THRCOARS=  0.00D+00  SYMTOL  =  1.00D-06  GRADTOL =  1.00D-06  THROVL  =  1.00D-08
 THRORTH =  1.00D-08  GRID    =  1.00D-06  GRIDMAX =  1.00D-03  DTMAX   =  0.00D+00

 SETTING GEOMTYP        =    XYZ
 ZUNIT=BOHR
 

 Variable memory set to 1000000000 words,  buffer space   230000 words

 SETTING BASIS          =    VDZ


 Recomputing integrals since basis changed


 Using spherical harmonics

 Library entry C      S cc-pVDZ              selected for orbital group  1
 Library entry C      P cc-pVDZ              selected for orbital group  1
 Library entry C      D cc-pVDZ              selected for orbital group  1
 Library entry O      S cc-pVDZ              selected for orbital group  2
 Library entry O      P cc-pVDZ              selected for orbital group  2
 Library entry O      D cc-pVDZ              selected for orbital group  2
 Library entry H      S cc-pVDZ              selected for orbital group  4
 Library entry H      P cc-pVDZ              selected for orbital group  4

1PROGRAM * SEWARD (Integral evaluation for generally contracted gaussian basis sets)     Author: Roland Lindh, 1990

 Geometry written to block  1 of record 700


 Point group  C1  



 ATOMIC COORDINATES

 NR  ATOM    CHARGE       X              Y              Z

   1  C       6.00    0.005377389   -0.055729732    0.006283621
   2  O       8.00   -0.022219813    2.657031766    0.004446995
   3  C       6.00   -2.772714846   -0.832545107   -0.008103876
   4  C       6.00    1.332706531   -1.018628164   -2.379088694
   5  C       6.00    1.346836906   -1.015258906    2.385099977
   6  H       1.00    1.710287187    3.211751342    0.013375747
   7  H       1.00   -2.950568095   -2.888639196   -0.007775855
   8  H       1.00   -3.706745330   -0.083469175   -1.687711204
   9  H       1.00   -3.724668375   -0.081384498    1.660473570
  10  H       1.00    1.309239301   -3.082129358   -2.459506205
  11  H       1.00    3.306657185   -0.402015404   -2.407840891
  12  H       1.00    0.393270624   -0.276295909   -4.058649635
  13  H       1.00    1.323855771   -3.078644195    2.468573806
  14  H       1.00    3.320920798   -0.398614376    2.401270309
  15  H       1.00    0.417377329   -0.270547887    4.069152335

 Bond lengths in Bohr (Angstrom)

 1-2  2.712902491  1-3  2.884691593  1-4  2.894646287  1-5  2.894646287  2-6  1.819168501
     ( 1.435606168)     ( 1.526513046)     ( 1.531780843)     ( 1.531780843)     ( 0.962662510)

  3- 7  2.063771982   3- 8  2.062670229   3- 9  2.062670229   4-10  2.065200925   4-11  2.068216423
       ( 1.092101097)       ( 1.091518075)       ( 1.091518075)       ( 1.092857262)       ( 1.094452994)

  4-12  2.062649256   5-13  2.065200925   5-14  2.068216422   5-15  2.062649256
       ( 1.091506976)       ( 1.092857262)       ( 1.094452994)       ( 1.091506976)

 Bond angles

  1-2-6  107.17091859   1-3-7  110.56564866   1-3-8  110.02067364   1-3-9  110.02067842

  1- 4-10  111.05427786   1- 4-11  110.48289358   1- 4-12  110.02622484   1- 5-13  111.05427786

  1- 5-14  110.48289357   1- 5-15  110.02622485   2- 1- 3  105.03890379   2- 1- 4  109.67822700

  2-1-5  109.67822700   3-1-4  110.35971126   3-1-5  111.16999594   4-1-5  110.75935079

  7- 3- 8  108.83916783   7- 3- 9  108.83917271   8- 3- 9  108.51019459  10- 4-11  107.95054621

 10- 4-12  108.82712324  11- 4-12  108.42572228  13- 5-14  107.95054619  13- 5-15  108.82712327

 14- 5-15  108.42572227

 NUCLEAR CHARGE:                   42
 NUMBER OF PRIMITIVE AOS:         205
 NUMBER OF SYMMETRY AOS:          200
 NUMBER OF CONTRACTIONS:          120   ( 120A   )
 NUMBER OF CORE ORBITALS:           5   (   5A   )
 NUMBER OF VALENCE ORBITALS:       30   (  30A   )


 NUCLEAR REPULSION ENERGY  199.42818335


 Eigenvalues of metric

         1 0.262E-02 0.491E-02 0.495E-02 0.837E-02 0.169E-01 0.192E-01 0.193E-01 0.241E-01


 Contracted 2-electron integrals neglected if value below      1.0D-16
 AO integral compression algorithm  1   Integral accuracy      1.0D-16

     221.774 MB (compressed) written to integral file ( 97.0%)

     Node minimum: 221.774 MB, node maximum: 221.774 MB


 NUMBER OF SORTED TWO-ELECTRON INTEGRALS:   26357430.     BUFFER LENGTH:  32768
 NUMBER OF SEGMENTS:   2  SEGMENT LENGTH:   15997996      RECORD LENGTH: 524288

 Memory used in sort:      16.56 MW

 SORT1 READ    28587668. AND WROTE    26320224. INTEGRALS IN     76 RECORDS. CPU TIME:     0.25 SEC, REAL TIME:     0.40 SEC
 SORT2 READ    26320224. AND WROTE    26357430. INTEGRALS IN    846 RECORDS. CPU TIME:     0.21 SEC, REAL TIME:     0.30 SEC

 FILE SIZES:   FILE 1:   207.0 MBYTE,  FILE 4:   318.8 MBYTE,   TOTAL:    525.8 MBYTE

 OPERATOR DM      FOR CENTER  0  COORDINATES:    0.000000    0.000000    0.000000


 **********************************************************************************************************************************
 DATASETS  * FILE   NREC   LENGTH (MB)   RECORD NAMES
              1      19      207.16       500      610      700      900      950      970     1000      129      960     1100   
                                          VAR    BASINP    GEOM    SYMINP    ZMAT    AOBASIS   BASIS     P2S    ABASIS      S 
                                         1400     1410     1200     1210     1080     1600     1650     1300     1700   
                                           T        V       H0       H01     AOSYM     SMH    MOLCAS    ERIS     OPER   

 PROGRAMS   *        TOTAL       INT
 CPU TIMES  *         2.53      2.50
 REAL TIME  *         3.07 SEC
 DISK USED  *       748.52 MB      
 GA USED    *         0.01 MB       (max)       0.00 MB       (current)
 **********************************************************************************************************************************

1PROGRAM * RHF-SCF (CLOSED SHELL)       Authors: W. Meyer, H.-J. Werner


 NUMBER OF ELECTRONS:      21+   21-    SPACE SYMMETRY=1    SPIN SYMMETRY: Singlet 
 CONVERGENCE THRESHOLDS:    1.00E-10 (Density)    1.00E-13 (Energy)
 MAX. NUMBER OF ITERATIONS:      200
 INTERPOLATION TYPE:            DIIS
 INTERPOLATION STEPS:              2 (START)      1 (STEP)
 LEVEL SHIFTS:                  0.00 (CLOSED)  0.00 (OPEN) 



 Orbital guess generated from atomic densities. Full valence occupancy:   35

 Molecular orbital dump at record        2100.2

 ITERATION    DDIFF          GRAD             ENERGY        2-EL.EN.            DIPOLE MOMENTS         DIIS
    1      0.000D+00      0.000D+00      -232.08681988    560.648678    0.88961   -0.62221    0.00613    0
    2      0.000D+00      0.616D-02      -232.16302377    555.477124    0.40939   -0.32360    0.00298    1
    3      0.122D-01      0.265D-02      -232.17372295    557.450340    0.53017   -0.42938    0.00435    2
    4      0.389D-02      0.734D-03      -232.17502395    557.229260    0.50332   -0.39337    0.00405    3
    5      0.141D-02      0.192D-03      -232.17510127    557.165411    0.50257   -0.40558    0.00405    4
    6      0.307D-03      0.357D-04      -232.17510431    557.185202    0.50194   -0.40393    0.00407    5
    7      0.899D-04      0.650D-05      -232.17510445    557.179737    0.50188   -0.40410    0.00406    6
    8      0.184D-04      0.206D-05      -232.17510446    557.181291    0.50189   -0.40419    0.00406    7
    9      0.395D-05      0.682D-06      -232.17510446    557.180928    0.50185   -0.40420    0.00406    7
   10      0.153D-05      0.191D-06      -232.17510446    557.180985    0.50186   -0.40422    0.00406    7
   11      0.502D-06      0.390D-07      -232.17510446    557.180973    0.50186   -0.40422    0.00406    7
   12      0.123D-06      0.120D-07      -232.17510446    557.180982    0.50186   -0.40423    0.00406    7
   13      0.243D-07      0.520D-08      -232.17510446    557.180979    0.50186   -0.40423    0.00406    7
   14      0.102D-07      0.170D-08      -232.17510446    557.180979    0.50186   -0.40423    0.00406    8
   15      0.303D-08      0.444D-09      -232.17510446    557.180979    0.50186   -0.40423    0.00406    8
   16      0.106D-08      0.110D-09      -232.17510446    557.180979    0.50186   -0.40423    0.00406    7
   17      0.254D-09      0.304D-10      -232.17510446    557.180979    0.50186   -0.40423    0.00406    7
   18      0.792D-10      0.861D-11      -232.17510446    557.180979    0.50186   -0.40423    0.00406    8
   19      0.173D-10      0.231D-11      -232.17510446    557.180979    0.50186   -0.40423    0.00406    8
   20      0.635D-11      0.731D-12      -232.17510446    557.180979    0.50186   -0.40423    0.00406    0

 Final occupancy:  21

 !RHF STATE 1.1 Energy               -232.175104462435
 Nuclear energy                       199.42818335
 One-electron energy                 -710.19377736
 Two-electron energy                  278.59048955
 Virial quotient                       -1.00096785
 !RHF STATE 1.1 Dipole moment           0.50185846    -0.40422593     0.00406218
 Dipole moment /Debye                   1.27551342    -1.02737254     0.01032437

 Orbital energies:

         1.1          2.1          3.1          4.1          5.1          6.1          7.1          8.1          9.1         10.1
    -20.545274   -11.282903   -11.220973   -11.220443   -11.214689    -1.352091    -1.063045    -0.939767    -0.937640    -0.766789

        11.1         12.1         13.1         14.1         15.1         16.1         17.1         18.1         19.1         20.1
     -0.665186    -0.620245    -0.617683    -0.573185    -0.553890    -0.527901    -0.514747    -0.505445    -0.500379    -0.457676

        21.1         22.1         23.1
     -0.426448     0.166817     0.220179


 **********************************************************************************************************************************
 DATASETS  * FILE   NREC   LENGTH (MB)   RECORD NAMES
              1      19      207.16       500      610      700      900      950      970     1000      129      960     1100   
                                          VAR    BASINP    GEOM    SYMINP    ZMAT    AOBASIS   BASIS     P2S    ABASIS      S 
                                         1400     1410     1200     1210     1080     1600     1650     1300     1700   
                                           T        V       H0       H01     AOSYM     SMH    MOLCAS    ERIS     OPER   

              2       3        0.80       700     1000     2100   
                                         GEOM     BASIS     RHF  

 PROGRAMS   *        TOTAL       RHF       INT
 CPU TIMES  *         5.57      3.04      2.50
 REAL TIME  *         6.51 SEC
 DISK USED  *       748.52 MB      
 GA USED    *         0.01 MB       (max)       0.00 MB       (current)
 **********************************************************************************************************************************


1PROGRAM * CCSD (Closed-shell coupled cluster)     Authors: C. Hampel, H.-J. Werner, 1991, M. Deegan, P.J. Knowles, 1992


 Convergence thresholds:  THRVAR = 1.00D-08  THRDEN = 1.00D-12

 CCSD(T)     terms to be evaluated (factor= 1.000)


 Number of core orbitals:           5 (   5 )
 Number of closed-shell orbitals:  16 (  16 )
 Number of external orbitals:      99 (  99 )

 Molecular orbitals read from record     2100.2  Type=RHF/CANONICAL (state 1.1)

 Number of N-1 electron functions:              16
 Number of N-2 electron functions:             136
 Number of singly external CSFs:              1584
 Number of doubly external CSFs:           1255320
 Total number of CSFs:                     1256905

 Length of J-op  integral file:               0.00 MB
 Length of K-op  integral file:               1.03 MB
 Length of 3-ext integral record:             0.00 MB

 Memory could be reduced to 21.47 Mwords without degradation in triples

 Integral transformation finished. Total CPU:   1.08 sec, npass=  1  Memory used:  18.35 MW

 Reference energy:                   -232.17510446

 MP2 singlet pair energy:              -0.49770086
 MP2 triplet pair energy:              -0.27467852
 MP2 correlation energy:               -0.77237938
 MP2 total energy:                   -232.94748384

 SCS-MP2 correlation energy:           -0.76815211   (PS=  1.200000  PT=  0.333333)
 SCS-MP2 total energy:               -232.94325657

 ITER.      SQ.NORM     CORR.ENERGY   TOTAL ENERGY   ENERGY CHANGE        DEN1      VAR(S)    VAR(P)  DIIS     TIME
   1      1.27383271    -0.82961836  -233.00472282    -0.05723898    -0.03608496  0.25D-02  0.44D-02  1  1     4.43
   2      1.29504769    -0.83394594  -233.00905041    -0.00432758    -0.02222184  0.67D-04  0.42D-03  2  2     7.82
   3      1.29958297    -0.83415719  -233.00926165    -0.00021124    -0.00278154  0.25D-04  0.25D-04  3  3    11.23
   4      1.30085441    -0.83416314  -233.00926760    -0.00000595    -0.00060479  0.64D-06  0.21D-05  4  4    14.63
   5      1.30108673    -0.83417216  -233.00927663    -0.00000902    -0.00008141  0.19D-06  0.15D-06  5  5    18.03
   6      1.30112798    -0.83416890  -233.00927336     0.00000326    -0.00001325  0.26D-07  0.14D-07  6  6    21.44
   7      1.30113488    -0.83416768  -233.00927214     0.00000122    -0.00000071  0.38D-08  0.17D-08  6  1    24.84
   8      1.30113845    -0.83416769  -233.00927216    -0.00000001    -0.00000042  0.68D-09  0.22D-09  6  2    28.24
   9      1.30113902    -0.83416763  -233.00927209     0.00000006     0.00000057  0.64D-10  0.39D-10  6  4    31.65
  10      1.30113960    -0.83416762  -233.00927208     0.00000001    -0.00000001  0.51D-11  0.38D-11  6  3    35.06
  11      1.30113958    -0.83416762  -233.00927208    -0.00000000     0.00000005  0.79D-12  0.47D-12  6  5    38.47
  12      1.30113952    -0.83416762  -233.00927208    -0.00000000     0.00000003  0.14D-12  0.66D-13  6  6    41.88
  13      1.30113946    -0.83416762  -233.00927209    -0.00000000     0.00000003  0.11D-13  0.10D-13  6  2    45.29
  14      1.30113945    -0.83416762  -233.00927209    -0.00000000     0.00000001  0.18D-14  0.62D-15  6  1    48.69
  15      1.30113945    -0.83416762  -233.00927209    -0.00000000     0.00000000  0.23D-15  0.13D-15  6  4    52.10
  16      1.30113945    -0.83416762  -233.00927209     0.00000000    -0.00000000  0.38D-16  0.21D-16  6  3    55.50
  17      1.30113945    -0.83416762  -233.00927209     0.00000000    -0.00000000  0.41D-17  0.27D-17  6  5    58.92
  18      1.30113945    -0.83416762  -233.00927209    -0.00000000    -0.00000000  0.12D-17  0.38D-18  6  6    62.33
  19      1.30113945    -0.83416762  -233.00927209    -0.00000000    -0.00000000  0.29D-18  0.76D-19  6  2    65.74
  20      1.30113945    -0.83416762  -233.00927209    -0.00000000     0.00000000  0.45D-19  0.15D-19  6  1    69.15
  21      1.30113945    -0.83416762  -233.00927209    -0.00000000     0.00000000  0.62D-20  0.28D-20  6  4    72.55
  22      1.30113945    -0.83416762  -233.00927209     0.00000000    -0.00000000  0.12D-20  0.43D-21  6  3    75.95

 Norm of t1 vector:      0.06602377      S-energy:    -0.00000000      T1 diagnostic:  0.00825297
                                                                       D1 diagnostic:  0.02159031


 Total CPU time for triples:     49.91 sec


 RESULTS
 =======

  Reference energy                   -232.175104462435
  CCSD singlet pair energy             -0.581200724391
  CCSD triplet pair energy             -0.252966899878
  CCSD correlation energy              -0.834167624269

  Triples (T) contribution             -0.023280611155
  Total correlation energy             -0.857448235424

  CCSD total energy                  -233.009272086704
  CCSD[T] energy                     -233.033250148021
  CCSD-T energy                      -233.032215864194
 !CCSD(T) total energy               -233.032552697859

 Timing summary (sec):

 STEP                 CPU(USER)    SYS     CPU(TOT)    WALL
 Transformation          1.12      0.13      1.25      1.26
 CCSD iterations        74.84      1.72     76.56     76.70
 Triples                49.91      1.09     51.00     51.01

 Program statistics:

 Available memory in ccsd:               999998876
 Min. memory needed in ccsd:               3310297
 Max. memory used in ccsd:                 4412497
 Max. memory used in cckext:               4149679 (22 integral passes)



 **********************************************************************************************************************************
 DATASETS  * FILE   NREC   LENGTH (MB)   RECORD NAMES
              1      20      293.82       500      610      700      900      950      970     1000      129      960     1100   
                                          VAR    BASINP    GEOM    SYMINP    ZMAT    AOBASIS   BASIS     P2S    ABASIS      S 
                                         1400     1410     1200     1210     1080     1600     1650     1300     1700     1380   
                                           T        V       H0       H01     AOSYM     SMH    MOLCAS    ERIS     OPER     JKOP   

              2       3        0.80       700     1000     2100   
                                         GEOM     BASIS     RHF  

 PROGRAMS   *        TOTAL   CCSD(T)       RHF       INT
 CPU TIMES  *       131.45    125.88      3.04      2.50
 REAL TIME  *       135.52 SEC
 DISK USED  *       748.52 MB      
 GA USED    *         0.01 MB       (max)       0.00 MB       (current)
 **********************************************************************************************************************************

        CCSD(T)         RHF-SCF 
   -233.03255270   -232.17510446
 **********************************************************************************************************************************
 Variable memory released
