
    -----------------------------------------------------------------------
          Psi4: An Open-Source Ab Initio Electronic Structure Package
                               Psi4 1.4a2.dev629 

                         Git: Rev {master} 2938fc2 dirty


    D. G. A. Smith, L. A. Burns, A. C. Simmonett, R. M. Parrish,
    M. C. Schieber, R. Galvelis, P. Kraus, H. Kruse, R. Di Remigio,
    A. Alenaizan, A. M. James, S. Lehtola, J. P. Misiewicz, M. Scheurer,
    R. A. Shaw, J. B. Schriber, Y. Xie, Z. L. Glick, D. A. Sirianni,
    J. S. O'Brien, J. M. Waldrop, A. Kumar, E. G. Hohenstein,
    B. P. Pritchard, B. R. Brooks, H. F. Schaefer III, A. Yu. Sokolov,
    K. Patkowski, A. E. DePrince III, U. Bozkaya, R. A. King,
    F. A. Evangelista, J. M. Turney, T. D. Crawford, C. D. Sherrill,
    J. Chem. Phys. 152(18) 184108 (2020). https://doi.org/10.1063/5.0006002

                            Additional Code Authors
    E. T. Seidl, C. L. Janssen, E. F. Valeev, M. L. Leininger,
    J. F. Gonthier, R. M. Richard, H. R. McAlexander, M. Saitow, X. Wang,
    P. Verma, and M. H. Lechner

             Previous Authors, Complete List of Code Contributors,
                       and Citations for Specific Modules
    https://github.com/psi4/psi4/blob/master/codemeta.json
    https://github.com/psi4/psi4/graphs/contributors
    http://psicode.org/psi4manual/master/introduction.html#citing-psifour

    -----------------------------------------------------------------------


    Psi4 started on: Monday, 14 March 2022 05:18PM

    Process ID: 16804
    Host:       n062
    PSIDATADIR: /opt/psi/4/master/share/psi4
    Memory:     500.0 MiB
    Threads:    4
    
  ==> Input File <==

--------------------------------------------------------------------------
import os
memory 14 GB 
 
molecule {
 X   -2.6056733900    0.0000000000    0.0000000000
 N   -0.7197129871   -0.0000000000   -0.0000000000
 C    0.1761958082   -1.3016106298   -2.2544557497
 C    0.1761958082    2.6032212596   -0.0000000000
 C    0.1761958082   -1.3016106298    2.2544557497
 H    2.2620389754   -1.3639251519   -2.3623876520
 H   -0.5278780089   -0.3413360384   -3.9379004304
 H   -0.5278780089   -3.2396537884   -2.2645558956
 H    2.2620389754    2.7278502938   -0.0000000000
 H   -0.5278780089    3.5809898268    1.6733445347
 H   -0.5278780089    3.5809898268   -1.6733445347
 H    2.2620389754   -1.3639251519    2.3623876520
 H   -0.5278780089   -3.2396537884    2.2645558956
 H   -0.5278780089   -0.3413360384    3.9379004304
units bohr
}

basis {

assign 6-31g_2dfp_

[ 6-31g_2dfp_ ]

spherical

!----------------------------------------------------------------------
! Basis Set Exchange
! Version v0.8.13
! https://www.basissetexchange.org
!----------------------------------------------------------------------
!   Basis set: 6-31G(2df,p)
! Description: 6-31G(2df,p)
!        Role: orbital
!     Version: 0  (Data from the original Basis Set Exchange)
!----------------------------------------------------------------------


****
H     0
S    3   1.00
     18.7311370              0.03349460
      2.8253937              0.23472695
      0.6401217              0.81375733
S    1   1.00
      0.1612778              1.00000000
P    1   1.00
      1.5000000              1.0000000
P    1   1.00
      0.3750000              1.0000000
****
B     0
S    6   1.00
   2068.8823000              0.0018663
    310.6495700              0.0142515
     70.6830330              0.0695516
     19.8610800              0.2325729
      6.2993048              0.4670787
      2.1270270              0.3634314
SP   3   1.00
      4.7279710             -0.1303938              0.0745976
      1.1903377             -0.1307889              0.3078467
      0.3594117              1.1309444              0.7434568
SP   1   1.00
      0.1267512              1.0000000              1.0000000
D    1   1.00
      0.8020000              1.0000000
D    1   1.00
      0.2005000              1.0000000
F    1   1.00
      0.5000000              1.0000000
****
C     0
S    6   1.00
   3047.5249000              0.0018347
    457.3695100              0.0140373
    103.9486900              0.0688426
     29.2101550              0.2321844
      9.2866630              0.4679413
      3.1639270              0.3623120
SP   3   1.00
      7.8682724             -0.1193324              0.0689991
      1.8812885             -0.1608542              0.3164240
      0.5442493              1.1434564              0.7443083
SP   1   1.00
      0.1687144              1.0000000              1.0000000
D    1   1.00
      1.2520000              1.0000000
D    1   1.00
      0.3130000              1.0000000
F    1   1.00
      0.8000000              1.0000000
****
N     0
S    6   1.00
   4173.5110000              0.0018348
    627.4579000              0.0139950
    142.9021000              0.0685870
     40.2343300              0.2322410
     12.8202100              0.4690700
      4.3904370              0.3604550
SP   3   1.00
     11.6263580             -0.1149610              0.0675800
      2.7162800             -0.1691180              0.3239070
      0.7722180              1.1458520              0.7408950
SP   1   1.00
      0.2120313              1.0000000              1.0000000
D    1   1.00
      1.8260000              1.0000000
D    1   1.00
      0.4565000              1.0000000
F    1   1.00
      1.0000000              1.0000000
****
O     0
S    6   1.00
   5484.6717000              0.0018311
    825.2349500              0.0139501
    188.0469600              0.0684451
     52.9645000              0.2327143
     16.8975700              0.4701930
      5.7996353              0.3585209
SP   3   1.00
     15.5396160             -0.1107775              0.0708743
      3.5999336             -0.1480263              0.3397528
      1.0137618              1.1307670              0.7271586
SP   1   1.00
      0.2700058              1.0000000              1.0000000
D    1   1.00
      2.5840000              1.0000000
D    1   1.00
      0.6460000              1.0000000
F    1   1.00
      1.4000000              1.0000000
****
F     0
S    6   1.00
   7001.7130900              0.0018196169
   1051.3660900              0.0139160796
    239.2856900              0.0684053245
     67.3974453              0.233185760
     21.5199573              0.471267439
      7.40310130             0.356618546
SP   3   1.00
     20.8479528             -0.108506975            0.0716287243
      4.80830834            -0.146451658            0.3459121030
      1.34406986             1.128688580            0.7224699570
SP   1   1.00
      0.358151393            1.0000000              1.0000000
D    1   1.00
      3.5000000              1.0000000
D    1   1.00
      0.8750000              1.0000000
F    1   1.00
      1.8500000              1.0000000
****
Al     0
S    6   1.00
  13983.1000000              0.00194267
   2098.7500000              0.0148599
    477.7050000              0.0728494
    134.3600000              0.2468300
     42.8709000              0.4872580
     14.5189000              0.3234960
SP   6   1.00
    239.6680000             -0.00292619             0.00460285
     57.4419000             -0.0374080              0.0331990
     18.2859000             -0.1144870              0.1362820
      6.5991400              0.1156350              0.3304760
      2.4904900              0.6125950              0.4491460
      0.9445400              0.3937990              0.2657040
SP   3   1.00
      1.2779000             -0.2276060             -0.0175130
      0.3975900              0.00144583             0.2445330
      0.1600950              1.0927900              0.8049340
SP   1   1.00
      0.0556577              1.0000000              1.0000000
D    1   1.00
      0.6500000              1.0000000
D    1   1.00
      0.1625000              1.0000000
F    1   1.00
      0.2500000              1.0000000
****
Si     0
S    6   1.00
  16115.9000000              0.00195948
   2425.5800000              0.01492880
    553.8670000              0.07284780
    156.3400000              0.24613000
     50.0683000              0.48591400
     17.0178000              0.32500200
SP   6   1.00
    292.7180000             -0.00278094             0.00443826
     69.8731000             -0.03571460             0.03266790
     22.3363000             -0.11498500             0.13472100
      8.1503900              0.09356340             0.32867800
      3.1345800              0.60301700             0.44964000
      1.2254300              0.41895900             0.26137200
SP   3   1.00
      1.7273800             -0.24463000            -0.01779510
      0.5729220              0.00431572             0.25353900
      0.2221920              1.09818000             0.80066900
SP   1   1.00
      0.0778369              1.00000000             1.00000000
D    1   1.00
      0.9000000              1.0000000
D    1   1.00
      0.2250000              1.0000000
F    1   1.00
      0.3200000              1.0000000
****
P     0
S    6   1.00
  19413.3000000              0.0018516
   2909.4200000              0.0142062
    661.3640000              0.0699995
    185.7590000              0.2400790
     59.1943000              0.4847620
     20.0310000              0.3352000
SP   6   1.00
    339.4780000             -0.00278217             0.00456462
     81.0101000             -0.0360499              0.03369360
     25.8780000             -0.1166310              0.13975500
      9.4522100              0.0968328              0.33936200
      3.6656600              0.6144180              0.45092100
      1.4674600              0.4037980              0.23858600
SP   3   1.00
      2.1562300             -0.2529230             -0.01776530
      0.7489970              0.0328517              0.27405800
      0.2831450              1.0812500              0.78542100
SP   1   1.00
      0.0998317              1.0000000              1.00000000
D    1   1.00
      1.1000000              1.0000000
D    1   1.00
      0.2750000              1.0000000
F    1   1.00
      0.4500000              1.0000000
****
S     0
S    6   1.00
  21917.1000000              0.0018690
   3301.4900000              0.0142300
    754.1460000              0.0696960
    212.7110000              0.2384870
     67.9896000              0.4833070
     23.0515000              0.3380740
SP   6   1.00
    423.7350000             -0.0023767              0.0040610
    100.7100000             -0.0316930              0.0306810
     32.1599000             -0.1133170              0.1304520
     11.8079000              0.0560900              0.3272050
      4.6311000              0.5922550              0.4528510
      1.8702500              0.4550060              0.2560420
SP   3   1.00
      2.6158400             -0.2503740             -0.0145110
      0.9221670              0.0669570              0.3102630
      0.3412870              1.0545100              0.7544830
SP   1   1.00
      0.1171670              1.0000000              1.0000000
D    1   1.00
      1.3000000              1.0000000
D    1   1.00
      0.3250000              1.0000000
F    1   1.00
      0.5500000              1.0000000
****
Cl     0
S    6   1.00
  25180.1000000              0.0018330
   3780.3500000              0.0140340
    860.4740000              0.0690970
    242.1450000              0.2374520
     77.3349000              0.4830340
     26.2470000              0.3398560
SP   6   1.00
    491.7650000             -0.0022974              0.0039894
    116.9840000             -0.0307140              0.0303180
     37.4153000             -0.1125280              0.1298800
     13.7834000              0.0450160              0.3279510
      5.4521500              0.5893530              0.4535270
      2.2258800              0.4652060              0.2521540
SP   3   1.00
      3.1864900             -0.2518300             -0.0142990
      1.1442700              0.0615890              0.3235720
      0.4203770              1.0601800              0.7435070
SP   1   1.00
      0.1426570              1.0000000              1.0000000
D    1   1.00
      1.5000000              1.0000000
D    1   1.00
      0.3750000              1.0000000
F    1   1.00
      0.7000000              1.0000000
****
}


set {
reference rhf                          
freeze_core true
e_convergence 10                       
d_convergence 10                      
dft_spherical_points 1202
dft_radial_points 99
}

e = energy('b3lyp')

print_out('Grab this energy {0}'.format(e))
--------------------------------------------------------------------------

  Memory set to  13.039 GiB by Python driver.

Scratch directory: /tmp/

*** tstart() called on n062
*** at Mon Mar 14 17:18:03 2022

   => Loading Basis Set <=

    Name: ANONYMOUS69994615
    Role: ORBITAL
    Keyword: BASIS
    atoms 1    entry N          line    69 inputblock 6-31g_2dfp_ 
    atoms 2-4  entry C          line    48 inputblock 6-31g_2dfp_ 
    atoms 5-13 entry H          line    15 inputblock 6-31g_2dfp_ 


         ---------------------------------------------------------
                                   SCF
               by Justin Turney, Rob Parrish, Andy Simmonett
                          and Daniel G. A. Smith
                              RKS Reference
                        4 Threads,  13351 MiB Core
         ---------------------------------------------------------

  ==> Geometry <==

    Molecular point group: cs
    Full point group: C1v

    Geometry (in Bohr), charge = 0, multiplicity = 1:

       Center              X                  Y                   Z               Mass       
    ------------   -----------------  -----------------  -----------------  -----------------
         N           -0.718223678962     0.000000000171     0.000000000000    14.003074004430
         C            0.177685116338    -1.301610629629    -2.254455749700    12.000000000000
         C            0.177685116338     2.603221259771     0.000000000000    12.000000000000
         C            0.177685116338    -1.301610629629     2.254455749700    12.000000000000
         H            2.263528283538    -1.363925151729    -2.362387652000     1.007825032230
         H           -0.526388700762    -0.341336038229    -3.937900430400     1.007825032230
         H           -0.526388700762    -3.239653788229    -2.264555895600     1.007825032230
         H            2.263528283538     2.727850293971     0.000000000000     1.007825032230
         H           -0.526388700762     3.580989826971     1.673344534700     1.007825032230
         H           -0.526388700762     3.580989826971    -1.673344534700     1.007825032230
         H            2.263528283538    -1.363925151729     2.362387652000     1.007825032230
         H           -0.526388700762    -3.239653788229     2.264555895600     1.007825032230
         H           -0.526388700762    -0.341336038229     3.937900430400     1.007825032230

  Running in cs symmetry.

  Rotational constants: A =      0.29224  B =      0.29224  C =      0.16679 [cm^-1]
  Rotational constants: A =   8761.10285  B =   8761.10282  C =   5000.16225 [MHz]
  Nuclear repulsion =  138.809690434899125

  Charge       = 0
  Multiplicity = 1
  Electrons    = 34
  Nalpha       = 17
  Nbeta        = 17

  ==> Algorithm <==

  SCF Algorithm Type is DF.
  DIIS enabled.
  MOM disabled.
  Fractional occupation disabled.
  Guess Type is SAD.
  Energy threshold   = 1.00e-10
  Density threshold  = 1.00e-10
  Integral threshold = 0.00e+00

  ==> Primary Basis <==

  Basis Set: ANONYMOUS69994615
    Blend: 6-31G_2DFP_
    Number of shells: 68
    Number of basis function: 176
    Number of Cartesian functions: 196
    Spherical Harmonics?: true
    Max angular momentum: 3

  ==> DFT Potential <==

   => Composite Functional: B3LYP <= 

    B3LYP Hyb-GGA Exchange-Correlation Functional

    P. J. Stephens, F. J. Devlin, C. F. Chabalowski, and M. J. Frisch, J. Phys. Chem. 98, 11623 (1994)

    Deriv               =              1
    GGA                 =           TRUE
    Meta                =          FALSE

    Exchange Hybrid     =           TRUE
    MP2 Hybrid          =          FALSE

   => Exchange Functionals <=

    0.0800   Slater exchange
    0.7200         Becke 88

   => Exact (HF) Exchange <=

    0.2000               HF 

   => Correlation Functionals <=

    0.1900   Vosko, Wilk & Nusair (VWN5_RPA)
    0.8100   Lee, Yang & Parr

   => Molecular Quadrature <=

    Radial Scheme          =       TREUTLER
    Pruning Scheme         =           NONE
    Nuclear Scheme         =       TREUTLER

    BS radius alpha        =              1
    Pruning alpha          =              1
    Radial Points          =             99
    Spherical Points       =           1202
    Total Points           =        1438306
    Total Blocks           =           9540
    Max Points             =            256
    Max Functions          =            176
    Weights Tolerance      =       1.00E-15

   => Loading Basis Set <=

    Name: (ANONYMOUS69994615 AUX)
    Role: JKFIT
    Keyword: DF_BASIS_SCF
    atoms 1    entry N          line   258 file /opt/psi/4/master/share/psi4/basis/def2-universal-jkfit.gbs 
    atoms 2-4  entry C          line   198 file /opt/psi/4/master/share/psi4/basis/def2-universal-jkfit.gbs 
    atoms 5-13 entry H          line    18 file /opt/psi/4/master/share/psi4/basis/def2-universal-jkfit.gbs 

  ==> Integral Setup <==

  DFHelper Memory: AOs need 0.115 GiB; user supplied 3.767 GiB. Using in-core AOs.

  ==> MemDFJK: Density-Fitted J/K Matrices <==

    J tasked:                   Yes
    K tasked:                   Yes
    wK tasked:                   No
    OpenMP threads:               4
    Memory [MiB]:              3857
    Algorithm:                 Core
    Schwarz Cutoff:           1E-12
    Mask sparsity (%):       1.0589
    Fitting Condition:        1E-10

   => Auxiliary Basis Set <=

  Basis Set: (ANONYMOUS69994615 AUX)
    Blend: DEF2-UNIVERSAL-JKFIT
    Number of shells: 154
    Number of basis function: 464
    Number of Cartesian functions: 540
    Spherical Harmonics?: true
    Max angular momentum: 4

  Cached 100.0% of DFT collocation blocks in 6.012 [GiB].

  Minimum eigenvalue in the overlap matrix is 2.2139722351E-03.
  Reciprocal condition number of the overlap matrix is 3.8809926754E-04.
    Using symmetric orthogonalization.

  ==> Pre-Iterations <==

  SCF Guess: Superposition of Atomic Densities via on-the-fly atomic UHF (no occupation information).

   -------------------------
    Irrep   Nso     Nmo    
   -------------------------
     A'        98      98 
     A"        78      78 
   -------------------------
    Total     176     176
   -------------------------

  ==> Iterations <==

                           Total Energy        Delta E     RMS |[F,P]|

   @DF-RKS iter SAD:  -173.86956580844605   -1.73870e+02   0.00000e+00 
   @DF-RKS iter   1:  -174.14806234883278   -2.78497e-01   6.31426e-03 DIIS
   @DF-RKS iter   2:  -173.91606172300212    2.32001e-01   8.17615e-03 DIIS
   @DF-RKS iter   3:  -174.47942202121794   -5.63360e-01   1.24195e-03 DIIS
   @DF-RKS iter   4:  -174.48863784595173   -9.21582e-03   3.80054e-04 DIIS
   @DF-RKS iter   5:  -174.48956446077980   -9.26615e-04   5.80898e-05 DIIS
   @DF-RKS iter   6:  -174.48958757320921   -2.31124e-05   9.02269e-06 DIIS
   @DF-RKS iter   7:  -174.48958828340309   -7.10194e-07   2.37547e-06 DIIS
   @DF-RKS iter   8:  -174.48958833388676   -5.04837e-08   7.61874e-08 DIIS
   @DF-RKS iter   9:  -174.48958833394866   -6.19025e-11   9.61967e-09 DIIS
   @DF-RKS iter  10:  -174.48958833394963   -9.66338e-13   1.22485e-09 DIIS
   @DF-RKS iter  11:  -174.48958833394971   -8.52651e-14   1.21580e-10 DIIS
   @DF-RKS iter  12:  -174.48958833394983   -1.13687e-13   2.19570e-11 DIIS
  Energy and wave function converged.


  ==> Post-Iterations <==

    Orbital Energies [Eh]
    ---------------------

    Doubly Occupied:                                                      

       1Ap   -14.318209     1App  -10.191415     2Ap   -10.191415  
       3Ap   -10.191368     4Ap    -0.915647     2App   -0.698792  
       5Ap    -0.698792     6Ap    -0.587021     7Ap    -0.462080  
       8Ap    -0.460516     3App   -0.460516     4App   -0.388554  
       9Ap    -0.388554     5App   -0.364950    10Ap    -0.353977  
       6App   -0.353977    11Ap    -0.213864  

    Virtual:                                                              

      12Ap     0.073861     7App    0.133940    13Ap     0.133940  
      14Ap     0.140207     8App    0.145957    15Ap     0.145958  
      16Ap     0.163999     9App    0.186536    17Ap     0.186536  
      10App    0.215778    11App    0.239857    18Ap     0.239857  
      19Ap     0.404765    12App    0.409265    20Ap     0.409265  
      13App    0.434448    21Ap     0.434448    22Ap     0.478857  
      14App    0.494386    23Ap     0.494386    24Ap     0.524450  
      15App    0.537549    25Ap     0.591683    16App    0.591683  
      26Ap     0.610201    17App    0.613817    27Ap     0.613817  
      18App    0.616923    28Ap     0.616923    19App    0.630250  
      29Ap     0.636370    30Ap     0.680636    20App    0.680637  
      21App    0.727998    31Ap     0.727999    32Ap     0.785060  
      33Ap     0.823636    22App    0.823636    23App    0.886761  
      24App    0.962146    34Ap     0.962146    25App    0.980730  
      35Ap     0.998167    26App    1.026827    36Ap     1.026827  
      37Ap     1.065672    27App    1.121124    38Ap     1.121124  
      39Ap     1.126468    28App    1.223426    40Ap     1.223426  
      41Ap     1.223707    42Ap     1.295155    29App    1.295155  
      43Ap     1.329568    30App    1.346489    44Ap     1.346489  
      45Ap     1.362567    31App    1.401283    46Ap     1.401283  
      32App    1.436562    33App    1.437018    47Ap     1.437018  
      34App    1.450163    35App    1.479429    48Ap     1.479429  
      36App    1.514325    49Ap     1.657029    50Ap     1.667751  
      37App    1.667751    51Ap     1.739611    38App    1.759152  
      52Ap     1.759152    53Ap     1.807561    39App    1.819662  
      54Ap     1.819663    55Ap     1.866709    40App    1.866709  
      56Ap     1.964840    41App    2.021451    57Ap     2.021451  
      42App    2.069743    43App    2.195245    58Ap     2.195245  
      59Ap     2.859498    44App    2.859498    60Ap     2.889281  
      61Ap     2.926411    45App    2.926411    46App    2.962588  
      47App    2.979265    48App    2.984639    62Ap     2.984639  
      49App    3.022997    63Ap     3.022997    64Ap     3.043099  
      50App    3.095165    65Ap     3.095165    66Ap     3.154451  
      51App    3.187187    67Ap     3.232995    68Ap     3.323462  
      52App    3.323462    69Ap     3.367158    70Ap     3.375586  
      53App    3.375586    54App    3.448781    71Ap     3.448782  
      55App    3.519309    56App    3.561316    72Ap     3.561316  
      73Ap     3.651003    57App    3.651003    58App    3.662761  
      74Ap     3.761093    59App    3.780651    75Ap     3.780651  
      76Ap     3.789764    77Ap     3.805619    60App    3.805619  
      78Ap     3.971226    79Ap     4.077948    80Ap     4.119552  
      61App    4.119552    62App    4.164448    81Ap     4.164448  
      63App    4.224564    64App    4.235862    82Ap     4.235862  
      65App    4.332296    83Ap     4.332297    84Ap     4.353478  
      66App    4.389828    85Ap     4.389828    67App    4.434858  
      68App    4.468139    86Ap     4.468139    87Ap     4.486490  
      69App    4.541980    88Ap     4.761659    70App    4.761659  
      89Ap     4.777085    71App    4.973423    90Ap     4.973423  
      72App    4.989950    91Ap     4.989950    73App    5.096392  
      92Ap     5.140424    93Ap     5.238993    94Ap     5.243810  
      74App    5.243810    95Ap     5.298917    75App    5.298917  
      76App    5.455296    96Ap     5.455296    97Ap     5.515897  
      77App    5.555189    98Ap     5.837292    78App    5.837292  

    Final Occupation by Irrep:
             Ap   App 
    DOCC [    11,    6 ]

  @DF-RKS Final Energy:  -174.48958833394983

   => Energetics <=

    Nuclear Repulsion Energy =            138.8096904348991245
    One-Electron Energy =                -508.6455444640528185
    Two-Electron Energy =                 216.8718338561803876
    DFT Exchange-Correlation Energy =     -21.5255681609765475
    Empirical Dispersion Energy =           0.0000000000000000
    VV10 Nonlocal Energy =                  0.0000000000000000
    Total Energy =                       -174.4895883339498255

Computation Completed


Properties will be evaluated at   0.000000,   0.000000,   0.000000 [a0]

Properties computed using the SCF density matrix

  Nuclear Dipole Moment: [e a0]
     X:     1.8030      Y:    -0.0000      Z:     0.0000

  Electronic Dipole Moment: [e a0]
     X:    -1.5836      Y:    -0.0000      Z:     0.0000

  Dipole Moment: [e a0]
     X:     0.2195      Y:    -0.0000      Z:     0.0000     Total:     0.2195

  Dipole Moment: [D]
     X:     0.5578      Y:    -0.0000      Z:     0.0000     Total:     0.5578


*** tstop() called on n062 at Mon Mar 14 17:18:32 2022
Module time:
	user time   =     114.58 seconds =       1.91 minutes
	system time =       1.74 seconds =       0.03 minutes
	total time  =         29 seconds =       0.48 minutes
Total time:
	user time   =     114.58 seconds =       1.91 minutes
	system time =       1.74 seconds =       0.03 minutes
	total time  =         29 seconds =       0.48 minutes
Grab this energy -174.48958833394983
    Psi4 stopped on: Monday, 14 March 2022 05:18PM
    Psi4 wall time for execution: 0:00:29.73

*** Psi4 exiting successfully. Buy a developer a beer!
