
    -----------------------------------------------------------------------
          Psi4: An Open-Source Ab Initio Electronic Structure Package
                               Psi4 1.4a2.dev629 

                         Git: Rev {master} 2938fc2 dirty


    D. G. A. Smith, L. A. Burns, A. C. Simmonett, R. M. Parrish,
    M. C. Schieber, R. Galvelis, P. Kraus, H. Kruse, R. Di Remigio,
    A. Alenaizan, A. M. James, S. Lehtola, J. P. Misiewicz, M. Scheurer,
    R. A. Shaw, J. B. Schriber, Y. Xie, Z. L. Glick, D. A. Sirianni,
    J. S. O'Brien, J. M. Waldrop, A. Kumar, E. G. Hohenstein,
    B. P. Pritchard, B. R. Brooks, H. F. Schaefer III, A. Yu. Sokolov,
    K. Patkowski, A. E. DePrince III, U. Bozkaya, R. A. King,
    F. A. Evangelista, J. M. Turney, T. D. Crawford, C. D. Sherrill,
    J. Chem. Phys. 152(18) 184108 (2020). https://doi.org/10.1063/5.0006002

                            Additional Code Authors
    E. T. Seidl, C. L. Janssen, E. F. Valeev, M. L. Leininger,
    J. F. Gonthier, R. M. Richard, H. R. McAlexander, M. Saitow, X. Wang,
    P. Verma, and M. H. Lechner

             Previous Authors, Complete List of Code Contributors,
                       and Citations for Specific Modules
    https://github.com/psi4/psi4/blob/master/codemeta.json
    https://github.com/psi4/psi4/graphs/contributors
    http://psicode.org/psi4manual/master/introduction.html#citing-psifour

    -----------------------------------------------------------------------


    Psi4 started on: Friday, 12 November 2021 12:10PM

    Process ID: 14690
    Host:       n036
    PSIDATADIR: /opt/psi/4/master/share/psi4
    Memory:     500.0 MiB
    Threads:    4
    
  ==> Input File <==

--------------------------------------------------------------------------
import os
memory 14 GB 
 
molecule {
 N   -0.7159425927   -0.0049897331   -0.0000019554
 C    0.1772182444   -1.3015639799   -2.2542447642
 C    0.1777061242    2.6027748183    0.0009506351
 C    0.1772169902   -1.3032101106    2.2532937421
 H    2.2617186987   -1.3605836324   -2.3636044975
 H   -0.5257424210   -0.3422048103   -3.9368921311
 H   -0.5319494465   -3.2405775304   -2.2645192848
 H    2.2614026000    2.7278035932    0.0027271106
 H   -0.5267835334    3.5813730111    1.6707750578
 H   -0.5311516408    3.5830878360   -1.6743415087
 H    2.2617203635   -1.3653073672    2.3608792144
 H   -0.5275795666   -3.2366339436    2.2648197200
 H   -0.5301105101   -0.3399681611    3.9401586617
units bohr
}

basis {

assign 6-31g_2dfp_

[ 6-31g_2dfp_ ]

spherical

!----------------------------------------------------------------------
! Basis Set Exchange
! Version v0.8.13
! https://www.basissetexchange.org
!----------------------------------------------------------------------
!   Basis set: 6-31G(2df,p)
! Description: 6-31G(2df,p)
!        Role: orbital
!     Version: 0  (Data from the original Basis Set Exchange)
!----------------------------------------------------------------------


****
H     0
S    3   1.00
     18.7311370              0.03349460
      2.8253937              0.23472695
      0.6401217              0.81375733
S    1   1.00
      0.1612778              1.00000000
P    1   1.00
      1.5000000              1.0000000
P    1   1.00
      0.3750000              1.0000000
****
B     0
S    6   1.00
   2068.8823000              0.0018663
    310.6495700              0.0142515
     70.6830330              0.0695516
     19.8610800              0.2325729
      6.2993048              0.4670787
      2.1270270              0.3634314
SP   3   1.00
      4.7279710             -0.1303938              0.0745976
      1.1903377             -0.1307889              0.3078467
      0.3594117              1.1309444              0.7434568
SP   1   1.00
      0.1267512              1.0000000              1.0000000
D    1   1.00
      0.8020000              1.0000000
D    1   1.00
      0.2005000              1.0000000
F    1   1.00
      0.5000000              1.0000000
****
C     0
S    6   1.00
   3047.5249000              0.0018347
    457.3695100              0.0140373
    103.9486900              0.0688426
     29.2101550              0.2321844
      9.2866630              0.4679413
      3.1639270              0.3623120
SP   3   1.00
      7.8682724             -0.1193324              0.0689991
      1.8812885             -0.1608542              0.3164240
      0.5442493              1.1434564              0.7443083
SP   1   1.00
      0.1687144              1.0000000              1.0000000
D    1   1.00
      1.2520000              1.0000000
D    1   1.00
      0.3130000              1.0000000
F    1   1.00
      0.8000000              1.0000000
****
N     0
S    6   1.00
   4173.5110000              0.0018348
    627.4579000              0.0139950
    142.9021000              0.0685870
     40.2343300              0.2322410
     12.8202100              0.4690700
      4.3904370              0.3604550
SP   3   1.00
     11.6263580             -0.1149610              0.0675800
      2.7162800             -0.1691180              0.3239070
      0.7722180              1.1458520              0.7408950
SP   1   1.00
      0.2120313              1.0000000              1.0000000
D    1   1.00
      1.8260000              1.0000000
D    1   1.00
      0.4565000              1.0000000
F    1   1.00
      1.0000000              1.0000000
****
O     0
S    6   1.00
   5484.6717000              0.0018311
    825.2349500              0.0139501
    188.0469600              0.0684451
     52.9645000              0.2327143
     16.8975700              0.4701930
      5.7996353              0.3585209
SP   3   1.00
     15.5396160             -0.1107775              0.0708743
      3.5999336             -0.1480263              0.3397528
      1.0137618              1.1307670              0.7271586
SP   1   1.00
      0.2700058              1.0000000              1.0000000
D    1   1.00
      2.5840000              1.0000000
D    1   1.00
      0.6460000              1.0000000
F    1   1.00
      1.4000000              1.0000000
****
F     0
S    6   1.00
   7001.7130900              0.0018196169
   1051.3660900              0.0139160796
    239.2856900              0.0684053245
     67.3974453              0.233185760
     21.5199573              0.471267439
      7.40310130             0.356618546
SP   3   1.00
     20.8479528             -0.108506975            0.0716287243
      4.80830834            -0.146451658            0.3459121030
      1.34406986             1.128688580            0.7224699570
SP   1   1.00
      0.358151393            1.0000000              1.0000000
D    1   1.00
      3.5000000              1.0000000
D    1   1.00
      0.8750000              1.0000000
F    1   1.00
      1.8500000              1.0000000
****
Al     0
S    6   1.00
  13983.1000000              0.00194267
   2098.7500000              0.0148599
    477.7050000              0.0728494
    134.3600000              0.2468300
     42.8709000              0.4872580
     14.5189000              0.3234960
SP   6   1.00
    239.6680000             -0.00292619             0.00460285
     57.4419000             -0.0374080              0.0331990
     18.2859000             -0.1144870              0.1362820
      6.5991400              0.1156350              0.3304760
      2.4904900              0.6125950              0.4491460
      0.9445400              0.3937990              0.2657040
SP   3   1.00
      1.2779000             -0.2276060             -0.0175130
      0.3975900              0.00144583             0.2445330
      0.1600950              1.0927900              0.8049340
SP   1   1.00
      0.0556577              1.0000000              1.0000000
D    1   1.00
      0.6500000              1.0000000
D    1   1.00
      0.1625000              1.0000000
F    1   1.00
      0.2500000              1.0000000
****
Si     0
S    6   1.00
  16115.9000000              0.00195948
   2425.5800000              0.01492880
    553.8670000              0.07284780
    156.3400000              0.24613000
     50.0683000              0.48591400
     17.0178000              0.32500200
SP   6   1.00
    292.7180000             -0.00278094             0.00443826
     69.8731000             -0.03571460             0.03266790
     22.3363000             -0.11498500             0.13472100
      8.1503900              0.09356340             0.32867800
      3.1345800              0.60301700             0.44964000
      1.2254300              0.41895900             0.26137200
SP   3   1.00
      1.7273800             -0.24463000            -0.01779510
      0.5729220              0.00431572             0.25353900
      0.2221920              1.09818000             0.80066900
SP   1   1.00
      0.0778369              1.00000000             1.00000000
D    1   1.00
      0.9000000              1.0000000
D    1   1.00
      0.2250000              1.0000000
F    1   1.00
      0.3200000              1.0000000
****
P     0
S    6   1.00
  19413.3000000              0.0018516
   2909.4200000              0.0142062
    661.3640000              0.0699995
    185.7590000              0.2400790
     59.1943000              0.4847620
     20.0310000              0.3352000
SP   6   1.00
    339.4780000             -0.00278217             0.00456462
     81.0101000             -0.0360499              0.03369360
     25.8780000             -0.1166310              0.13975500
      9.4522100              0.0968328              0.33936200
      3.6656600              0.6144180              0.45092100
      1.4674600              0.4037980              0.23858600
SP   3   1.00
      2.1562300             -0.2529230             -0.01776530
      0.7489970              0.0328517              0.27405800
      0.2831450              1.0812500              0.78542100
SP   1   1.00
      0.0998317              1.0000000              1.00000000
D    1   1.00
      1.1000000              1.0000000
D    1   1.00
      0.2750000              1.0000000
F    1   1.00
      0.4500000              1.0000000
****
S     0
S    6   1.00
  21917.1000000              0.0018690
   3301.4900000              0.0142300
    754.1460000              0.0696960
    212.7110000              0.2384870
     67.9896000              0.4833070
     23.0515000              0.3380740
SP   6   1.00
    423.7350000             -0.0023767              0.0040610
    100.7100000             -0.0316930              0.0306810
     32.1599000             -0.1133170              0.1304520
     11.8079000              0.0560900              0.3272050
      4.6311000              0.5922550              0.4528510
      1.8702500              0.4550060              0.2560420
SP   3   1.00
      2.6158400             -0.2503740             -0.0145110
      0.9221670              0.0669570              0.3102630
      0.3412870              1.0545100              0.7544830
SP   1   1.00
      0.1171670              1.0000000              1.0000000
D    1   1.00
      1.3000000              1.0000000
D    1   1.00
      0.3250000              1.0000000
F    1   1.00
      0.5500000              1.0000000
****
Cl     0
S    6   1.00
  25180.1000000              0.0018330
   3780.3500000              0.0140340
    860.4740000              0.0690970
    242.1450000              0.2374520
     77.3349000              0.4830340
     26.2470000              0.3398560
SP   6   1.00
    491.7650000             -0.0022974              0.0039894
    116.9840000             -0.0307140              0.0303180
     37.4153000             -0.1125280              0.1298800
     13.7834000              0.0450160              0.3279510
      5.4521500              0.5893530              0.4535270
      2.2258800              0.4652060              0.2521540
SP   3   1.00
      3.1864900             -0.2518300             -0.0142990
      1.1442700              0.0615890              0.3235720
      0.4203770              1.0601800              0.7435070
SP   1   1.00
      0.1426570              1.0000000              1.0000000
D    1   1.00
      1.5000000              1.0000000
D    1   1.00
      0.3750000              1.0000000
F    1   1.00
      0.7000000              1.0000000
****
}


set {
reference rhf                          
freeze_core true
e_convergence 10                       
d_convergence 10                      
dft_spherical_points 1202
dft_radial_points 99
}

e = energy('b3lyp')

print_out('Grab this energy {0}'.format(e))
--------------------------------------------------------------------------

  Memory set to  13.039 GiB by Python driver.

Scratch directory: /tmp/

*** tstart() called on n036
*** at Fri Nov 12 12:10:48 2021

   => Loading Basis Set <=

    Name: ANONYMOUS1FD07486
    Role: ORBITAL
    Keyword: BASIS
    atoms 1    entry N          line    69 inputblock 6-31g_2dfp_ 
    atoms 2-4  entry C          line    48 inputblock 6-31g_2dfp_ 
    atoms 5-13 entry H          line    15 inputblock 6-31g_2dfp_ 


         ---------------------------------------------------------
                                   SCF
               by Justin Turney, Rob Parrish, Andy Simmonett
                          and Daniel G. A. Smith
                              RKS Reference
                        4 Threads,  13351 MiB Core
         ---------------------------------------------------------

  ==> Geometry <==

    Molecular point group: c1
    Full point group: C1

    Geometry (in Bohr), charge = 0, multiplicity = 1:

       Center              X                  Y                   Z               Mass       
    ------------   -----------------  -----------------  -----------------  -----------------
         N           -0.715944015281    -0.003520052365    -0.000001453231    14.003074004430
         C            0.177216821819    -1.300094299165    -2.254244262031    12.000000000000
         C            0.177704701619     2.604244499035     0.000951137269    12.000000000000
         C            0.177215567619    -1.301740429865     2.253294244269    12.000000000000
         H            2.261717276119    -1.359113951665    -2.363603995331     1.007825032230
         H           -0.525743843581    -0.340735129565    -3.936891628931     1.007825032230
         H           -0.531950869081    -3.239107849665    -2.264518782631     1.007825032230
         H            2.261401177419     2.729273273935     0.002727612769     1.007825032230
         H           -0.526784955981     3.582842691835     1.670775559969     1.007825032230
         H           -0.531153063381     3.584557516735    -1.674341006531     1.007825032230
         H            2.261718940919    -1.363837686465     2.360879716569     1.007825032230
         H           -0.527580989181    -3.235164262865     2.264820222169     1.007825032230
         H           -0.530111932681    -0.338498480365     3.940159163869     1.007825032230

  Running in c1 symmetry.

  Rotational constants: A =      0.29242  B =      0.29230  C =      0.16681 [cm^-1]
  Rotational constants: A =   8766.63205  B =   8762.83803  C =   5000.86618 [MHz]
  Nuclear repulsion =  138.836205929837860

  Charge       = 0
  Multiplicity = 1
  Electrons    = 34
  Nalpha       = 17
  Nbeta        = 17

  ==> Algorithm <==

  SCF Algorithm Type is DF.
  DIIS enabled.
  MOM disabled.
  Fractional occupation disabled.
  Guess Type is SAD.
  Energy threshold   = 1.00e-10
  Density threshold  = 1.00e-10
  Integral threshold = 0.00e+00

  ==> Primary Basis <==

  Basis Set: ANONYMOUS1FD07486
    Blend: 6-31G_2DFP_
    Number of shells: 68
    Number of basis function: 176
    Number of Cartesian functions: 196
    Spherical Harmonics?: true
    Max angular momentum: 3

  ==> DFT Potential <==

   => Composite Functional: B3LYP <= 

    B3LYP Hyb-GGA Exchange-Correlation Functional

    P. J. Stephens, F. J. Devlin, C. F. Chabalowski, and M. J. Frisch, J. Phys. Chem. 98, 11623 (1994)

    Deriv               =              1
    GGA                 =           TRUE
    Meta                =          FALSE

    Exchange Hybrid     =           TRUE
    MP2 Hybrid          =          FALSE

   => Exchange Functionals <=

    0.0800   Slater exchange
    0.7200         Becke 88

   => Exact (HF) Exchange <=

    0.2000               HF 

   => Correlation Functionals <=

    0.1900   Vosko, Wilk & Nusair (VWN5_RPA)
    0.8100   Lee, Yang & Parr

   => Molecular Quadrature <=

    Radial Scheme          =       TREUTLER
    Pruning Scheme         =           NONE
    Nuclear Scheme         =       TREUTLER

    BS radius alpha        =              1
    Pruning alpha          =              1
    Radial Points          =             99
    Spherical Points       =           1202
    Total Points           =        1438304
    Total Blocks           =           9545
    Max Points             =            256
    Max Functions          =            176
    Weights Tolerance      =       1.00E-15

   => Loading Basis Set <=

    Name: (ANONYMOUS1FD07486 AUX)
    Role: JKFIT
    Keyword: DF_BASIS_SCF
    atoms 1    entry N          line   258 file /opt/psi/4/master/share/psi4/basis/def2-universal-jkfit.gbs 
    atoms 2-4  entry C          line   198 file /opt/psi/4/master/share/psi4/basis/def2-universal-jkfit.gbs 
    atoms 5-13 entry H          line    18 file /opt/psi/4/master/share/psi4/basis/def2-universal-jkfit.gbs 

  ==> Integral Setup <==

  DFHelper Memory: AOs need 0.115 GiB; user supplied 3.766 GiB. Using in-core AOs.

  ==> MemDFJK: Density-Fitted J/K Matrices <==

    J tasked:                   Yes
    K tasked:                   Yes
    wK tasked:                   No
    OpenMP threads:               4
    Memory [MiB]:              3856
    Algorithm:                 Core
    Schwarz Cutoff:           1E-12
    Mask sparsity (%):       1.0589
    Fitting Condition:        1E-10

   => Auxiliary Basis Set <=

  Basis Set: (ANONYMOUS1FD07486 AUX)
    Blend: DEF2-UNIVERSAL-JKFIT
    Number of shells: 154
    Number of basis function: 464
    Number of Cartesian functions: 540
    Spherical Harmonics?: true
    Max angular momentum: 4

  Cached 100.0% of DFT collocation blocks in 6.012 [GiB].

  Minimum eigenvalue in the overlap matrix is 2.3753184483E-03.
  Reciprocal condition number of the overlap matrix is 3.8706665952E-04.
    Using symmetric orthogonalization.

  ==> Pre-Iterations <==

  SCF Guess: Superposition of Atomic Densities via on-the-fly atomic UHF (no occupation information).

   -------------------------
    Irrep   Nso     Nmo    
   -------------------------
     A        176     176 
   -------------------------
    Total     176     176
   -------------------------

  ==> Iterations <==

                           Total Energy        Delta E     RMS |[F,P]|

   @DF-RKS iter SAD:  -173.87169866440937   -1.73872e+02   0.00000e+00 
   @DF-RKS iter   1:  -174.14773452697082   -2.76036e-01   4.49606e-03 DIIS
   @DF-RKS iter   2:  -173.91498143857433    2.32753e-01   5.82490e-03 DIIS
   @DF-RKS iter   3:  -174.47942511868791   -5.64444e-01   8.83690e-04 DIIS
   @DF-RKS iter   4:  -174.48863291149408   -9.20779e-03   2.70497e-04 DIIS
   @DF-RKS iter   5:  -174.48955965519204   -9.26744e-04   4.13388e-05 DIIS
   @DF-RKS iter   6:  -174.48958276776455   -2.31126e-05   6.43690e-06 DIIS
   @DF-RKS iter   7:  -174.48958347984740   -7.12083e-07   1.70828e-06 DIIS
   @DF-RKS iter   8:  -174.48958353089657   -5.10492e-08   1.49711e-07 DIIS
   @DF-RKS iter   9:  -174.48958353103953   -1.42961e-10   1.18928e-07 DIIS
   @DF-RKS iter  10:  -174.48958353125599   -2.16460e-10   4.71671e-09 DIIS
   @DF-RKS iter  11:  -174.48958353125607   -8.52651e-14   4.95299e-10 DIIS
   @DF-RKS iter  12:  -174.48958353125641   -3.41061e-13   4.51897e-11 DIIS
  Energy and wave function converged.


  ==> Post-Iterations <==

    Orbital Energies [Eh]
    ---------------------

    Doubly Occupied:                                                      

       1A    -14.318000     2A    -10.191516     3A    -10.191306  
       4A    -10.191273     5A     -0.915862     6A     -0.699008  
       7A     -0.698731     8A     -0.586947     9A     -0.462393  
      10A     -0.460636    11A     -0.460327    12A     -0.388859  
      13A     -0.388530    14A     -0.364676    15A     -0.354361  
      16A     -0.353799    17A     -0.213632  

    Virtual:                                                              

      18A      0.073851    19A      0.133865    20A      0.133949  
      21A      0.140331    22A      0.145734    23A      0.146085  
      24A      0.164199    25A      0.186653    26A      0.186713  
      27A      0.215668    28A      0.239624    29A      0.240415  
      30A      0.404658    31A      0.409061    32A      0.409423  
      33A      0.434303    34A      0.434405    35A      0.479029  
      36A      0.494271    37A      0.494502    38A      0.524508  
      39A      0.537603    40A      0.591908    41A      0.592129  
      42A      0.610516    43A      0.613923    44A      0.613985  
      45A      0.616716    46A      0.616937    47A      0.630098  
      48A      0.636303    49A      0.680663    50A      0.680791  
      51A      0.727941    52A      0.727970    53A      0.785337  
      54A      0.823700    55A      0.823907    56A      0.886707  
      57A      0.962098    58A      0.962475    59A      0.980792  
      60A      0.998267    61A      1.026573    62A      1.026801  
      63A      1.066115    64A      1.121347    65A      1.122051  
      66A      1.125686    67A      1.223053    68A      1.223604  
      69A      1.224414    70A      1.295289    71A      1.295421  
      72A      1.329935    73A      1.346094    74A      1.346220  
      75A      1.363106    76A      1.400664    77A      1.401070  
      78A      1.436353    79A      1.437543    80A      1.437764  
      81A      1.450071    82A      1.479586    83A      1.479827  
      84A      1.513988    85A      1.656640    86A      1.667579  
      87A      1.668091    88A      1.739505    89A      1.757918  
      90A      1.759050    91A      1.807980    92A      1.819674  
      93A      1.819866    94A      1.866370    95A      1.866398  
      96A      1.965825    97A      2.021626    98A      2.021771  
      99A      2.069416   100A      2.195029   101A      2.197551  
     102A      2.859498   103A      2.859905   104A      2.889088  
     105A      2.926451   106A      2.926474   107A      2.962849  
     108A      2.978621   109A      2.984542   110A      2.985184  
     111A      3.022786   112A      3.023144   113A      3.043205  
     114A      3.095401   115A      3.096304   116A      3.154790  
     117A      3.187264   118A      3.234093   119A      3.324066  
     120A      3.324103   121A      3.367196   122A      3.374832  
     123A      3.374976   124A      3.448399   125A      3.448554  
     126A      3.519407   127A      3.560871   128A      3.561316  
     129A      3.651561   130A      3.651913   131A      3.663509  
     132A      3.760351   133A      3.781515   134A      3.781871  
     135A      3.789688   136A      3.805126   137A      3.806826  
     138A      3.973007   139A      4.078018   140A      4.119082  
     141A      4.119223   142A      4.164695   143A      4.164844  
     144A      4.224876   145A      4.235248   146A      4.235712  
     147A      4.332158   148A      4.333506   149A      4.354576  
     150A      4.390249   151A      4.390651   152A      4.435049  
     153A      4.468448   154A      4.468460   155A      4.486531  
     156A      4.541021   157A      4.761350   158A      4.761945  
     159A      4.779233   160A      4.972799   161A      4.974282  
     162A      4.990953   163A      4.991094   164A      5.096328  
     165A      5.141527   166A      5.238835   167A      5.243566  
     168A      5.244240   169A      5.298188   170A      5.299149  
     171A      5.454455   172A      5.456505   173A      5.516662  
     174A      5.557500   175A      5.836675   176A      5.840525  

    Final Occupation by Irrep:
              A 
    DOCC [    17 ]

  @DF-RKS Final Energy:  -174.48958353125641

   => Energetics <=

    Nuclear Repulsion Energy =            138.8362059298378597
    One-Electron Energy =                -508.6977074837486725
    Two-Electron Energy =                 216.8981315874605968
    DFT Exchange-Correlation Energy =     -21.5262135648062376
    Empirical Dispersion Energy =           0.0000000000000000
    VV10 Nonlocal Energy =                  0.0000000000000000
    Total Energy =                       -174.4895835312564145

Computation Completed


Properties will be evaluated at   0.000000,   0.000000,   0.000000 [a0]

Properties computed using the SCF density matrix

  Nuclear Dipole Moment: [e a0]
     X:     1.7927      Y:     0.0100      Z:     0.0000

  Electronic Dipole Moment: [e a0]
     X:    -1.5743      Y:    -0.0075      Z:    -0.0000

  Dipole Moment: [e a0]
     X:     0.2184      Y:     0.0025      Z:     0.0000     Total:     0.2184

  Dipole Moment: [D]
     X:     0.5552      Y:     0.0064      Z:     0.0000     Total:     0.5552


*** tstop() called on n036 at Fri Nov 12 12:11:25 2021
Module time:
	user time   =     143.01 seconds =       2.38 minutes
	system time =       1.40 seconds =       0.02 minutes
	total time  =         37 seconds =       0.62 minutes
Total time:
	user time   =     143.01 seconds =       2.38 minutes
	system time =       1.40 seconds =       0.02 minutes
	total time  =         37 seconds =       0.62 minutes
Grab this energy -174.48958353125641
    Psi4 stopped on: Friday, 12 November 2021 12:11PM
    Psi4 wall time for execution: 0:00:37.01

*** Psi4 exiting successfully. Buy a developer a beer!
