
    -----------------------------------------------------------------------
          Psi4: An Open-Source Ab Initio Electronic Structure Package
                               Psi4 1.4a2.dev629 

                         Git: Rev {master} 2938fc2 dirty


    D. G. A. Smith, L. A. Burns, A. C. Simmonett, R. M. Parrish,
    M. C. Schieber, R. Galvelis, P. Kraus, H. Kruse, R. Di Remigio,
    A. Alenaizan, A. M. James, S. Lehtola, J. P. Misiewicz, M. Scheurer,
    R. A. Shaw, J. B. Schriber, Y. Xie, Z. L. Glick, D. A. Sirianni,
    J. S. O'Brien, J. M. Waldrop, A. Kumar, E. G. Hohenstein,
    B. P. Pritchard, B. R. Brooks, H. F. Schaefer III, A. Yu. Sokolov,
    K. Patkowski, A. E. DePrince III, U. Bozkaya, R. A. King,
    F. A. Evangelista, J. M. Turney, T. D. Crawford, C. D. Sherrill,
    J. Chem. Phys. 152(18) 184108 (2020). https://doi.org/10.1063/5.0006002

                            Additional Code Authors
    E. T. Seidl, C. L. Janssen, E. F. Valeev, M. L. Leininger,
    J. F. Gonthier, R. M. Richard, H. R. McAlexander, M. Saitow, X. Wang,
    P. Verma, and M. H. Lechner

             Previous Authors, Complete List of Code Contributors,
                       and Citations for Specific Modules
    https://github.com/psi4/psi4/blob/master/codemeta.json
    https://github.com/psi4/psi4/graphs/contributors
    http://psicode.org/psi4manual/master/introduction.html#citing-psifour

    -----------------------------------------------------------------------


    Psi4 started on: Friday, 12 November 2021 12:34PM

    Process ID: 19460
    Host:       n051
    PSIDATADIR: /opt/psi/4/master/share/psi4
    Memory:     500.0 MiB
    Threads:    4
    
  ==> Input File <==

--------------------------------------------------------------------------
import os
memory 14 GB 
 
molecule {
 N   -0.7159466890    0.0005086387    0.0000000003
 C    0.1777760183   -1.3014255309   -2.2535483873
 C    0.1765869732    2.6041201720    0.0000000002
 C    0.1777760194   -1.3014255314    2.2535483885
 H    2.2655742174   -1.3660562620   -2.3630447934
 H   -0.5296690058   -0.3385234548   -3.9354323863
 H   -0.5292970327   -3.2420790835   -2.2650743486
 H    2.2536843276    2.7233245360    0.0000000007
 H   -0.5276848506    3.5841076532    1.6690769770
 H   -0.5276848503    3.5841076522   -1.6690769777
 H    2.2655742122   -1.3660562642    2.3630447985
 H   -0.5292970281   -3.2420790755    2.2650743484
 H   -0.5296690015   -0.3385234598    3.9354323797
units bohr
}

basis {

assign 6-31g_2dfp_

[ 6-31g_2dfp_ ]

spherical

!----------------------------------------------------------------------
! Basis Set Exchange
! Version v0.8.13
! https://www.basissetexchange.org
!----------------------------------------------------------------------
!   Basis set: 6-31G(2df,p)
! Description: 6-31G(2df,p)
!        Role: orbital
!     Version: 0  (Data from the original Basis Set Exchange)
!----------------------------------------------------------------------


****
H     0
S    3   1.00
     18.7311370              0.03349460
      2.8253937              0.23472695
      0.6401217              0.81375733
S    1   1.00
      0.1612778              1.00000000
P    1   1.00
      1.5000000              1.0000000
P    1   1.00
      0.3750000              1.0000000
****
B     0
S    6   1.00
   2068.8823000              0.0018663
    310.6495700              0.0142515
     70.6830330              0.0695516
     19.8610800              0.2325729
      6.2993048              0.4670787
      2.1270270              0.3634314
SP   3   1.00
      4.7279710             -0.1303938              0.0745976
      1.1903377             -0.1307889              0.3078467
      0.3594117              1.1309444              0.7434568
SP   1   1.00
      0.1267512              1.0000000              1.0000000
D    1   1.00
      0.8020000              1.0000000
D    1   1.00
      0.2005000              1.0000000
F    1   1.00
      0.5000000              1.0000000
****
C     0
S    6   1.00
   3047.5249000              0.0018347
    457.3695100              0.0140373
    103.9486900              0.0688426
     29.2101550              0.2321844
      9.2866630              0.4679413
      3.1639270              0.3623120
SP   3   1.00
      7.8682724             -0.1193324              0.0689991
      1.8812885             -0.1608542              0.3164240
      0.5442493              1.1434564              0.7443083
SP   1   1.00
      0.1687144              1.0000000              1.0000000
D    1   1.00
      1.2520000              1.0000000
D    1   1.00
      0.3130000              1.0000000
F    1   1.00
      0.8000000              1.0000000
****
N     0
S    6   1.00
   4173.5110000              0.0018348
    627.4579000              0.0139950
    142.9021000              0.0685870
     40.2343300              0.2322410
     12.8202100              0.4690700
      4.3904370              0.3604550
SP   3   1.00
     11.6263580             -0.1149610              0.0675800
      2.7162800             -0.1691180              0.3239070
      0.7722180              1.1458520              0.7408950
SP   1   1.00
      0.2120313              1.0000000              1.0000000
D    1   1.00
      1.8260000              1.0000000
D    1   1.00
      0.4565000              1.0000000
F    1   1.00
      1.0000000              1.0000000
****
O     0
S    6   1.00
   5484.6717000              0.0018311
    825.2349500              0.0139501
    188.0469600              0.0684451
     52.9645000              0.2327143
     16.8975700              0.4701930
      5.7996353              0.3585209
SP   3   1.00
     15.5396160             -0.1107775              0.0708743
      3.5999336             -0.1480263              0.3397528
      1.0137618              1.1307670              0.7271586
SP   1   1.00
      0.2700058              1.0000000              1.0000000
D    1   1.00
      2.5840000              1.0000000
D    1   1.00
      0.6460000              1.0000000
F    1   1.00
      1.4000000              1.0000000
****
F     0
S    6   1.00
   7001.7130900              0.0018196169
   1051.3660900              0.0139160796
    239.2856900              0.0684053245
     67.3974453              0.233185760
     21.5199573              0.471267439
      7.40310130             0.356618546
SP   3   1.00
     20.8479528             -0.108506975            0.0716287243
      4.80830834            -0.146451658            0.3459121030
      1.34406986             1.128688580            0.7224699570
SP   1   1.00
      0.358151393            1.0000000              1.0000000
D    1   1.00
      3.5000000              1.0000000
D    1   1.00
      0.8750000              1.0000000
F    1   1.00
      1.8500000              1.0000000
****
Al     0
S    6   1.00
  13983.1000000              0.00194267
   2098.7500000              0.0148599
    477.7050000              0.0728494
    134.3600000              0.2468300
     42.8709000              0.4872580
     14.5189000              0.3234960
SP   6   1.00
    239.6680000             -0.00292619             0.00460285
     57.4419000             -0.0374080              0.0331990
     18.2859000             -0.1144870              0.1362820
      6.5991400              0.1156350              0.3304760
      2.4904900              0.6125950              0.4491460
      0.9445400              0.3937990              0.2657040
SP   3   1.00
      1.2779000             -0.2276060             -0.0175130
      0.3975900              0.00144583             0.2445330
      0.1600950              1.0927900              0.8049340
SP   1   1.00
      0.0556577              1.0000000              1.0000000
D    1   1.00
      0.6500000              1.0000000
D    1   1.00
      0.1625000              1.0000000
F    1   1.00
      0.2500000              1.0000000
****
Si     0
S    6   1.00
  16115.9000000              0.00195948
   2425.5800000              0.01492880
    553.8670000              0.07284780
    156.3400000              0.24613000
     50.0683000              0.48591400
     17.0178000              0.32500200
SP   6   1.00
    292.7180000             -0.00278094             0.00443826
     69.8731000             -0.03571460             0.03266790
     22.3363000             -0.11498500             0.13472100
      8.1503900              0.09356340             0.32867800
      3.1345800              0.60301700             0.44964000
      1.2254300              0.41895900             0.26137200
SP   3   1.00
      1.7273800             -0.24463000            -0.01779510
      0.5729220              0.00431572             0.25353900
      0.2221920              1.09818000             0.80066900
SP   1   1.00
      0.0778369              1.00000000             1.00000000
D    1   1.00
      0.9000000              1.0000000
D    1   1.00
      0.2250000              1.0000000
F    1   1.00
      0.3200000              1.0000000
****
P     0
S    6   1.00
  19413.3000000              0.0018516
   2909.4200000              0.0142062
    661.3640000              0.0699995
    185.7590000              0.2400790
     59.1943000              0.4847620
     20.0310000              0.3352000
SP   6   1.00
    339.4780000             -0.00278217             0.00456462
     81.0101000             -0.0360499              0.03369360
     25.8780000             -0.1166310              0.13975500
      9.4522100              0.0968328              0.33936200
      3.6656600              0.6144180              0.45092100
      1.4674600              0.4037980              0.23858600
SP   3   1.00
      2.1562300             -0.2529230             -0.01776530
      0.7489970              0.0328517              0.27405800
      0.2831450              1.0812500              0.78542100
SP   1   1.00
      0.0998317              1.0000000              1.00000000
D    1   1.00
      1.1000000              1.0000000
D    1   1.00
      0.2750000              1.0000000
F    1   1.00
      0.4500000              1.0000000
****
S     0
S    6   1.00
  21917.1000000              0.0018690
   3301.4900000              0.0142300
    754.1460000              0.0696960
    212.7110000              0.2384870
     67.9896000              0.4833070
     23.0515000              0.3380740
SP   6   1.00
    423.7350000             -0.0023767              0.0040610
    100.7100000             -0.0316930              0.0306810
     32.1599000             -0.1133170              0.1304520
     11.8079000              0.0560900              0.3272050
      4.6311000              0.5922550              0.4528510
      1.8702500              0.4550060              0.2560420
SP   3   1.00
      2.6158400             -0.2503740             -0.0145110
      0.9221670              0.0669570              0.3102630
      0.3412870              1.0545100              0.7544830
SP   1   1.00
      0.1171670              1.0000000              1.0000000
D    1   1.00
      1.3000000              1.0000000
D    1   1.00
      0.3250000              1.0000000
F    1   1.00
      0.5500000              1.0000000
****
Cl     0
S    6   1.00
  25180.1000000              0.0018330
   3780.3500000              0.0140340
    860.4740000              0.0690970
    242.1450000              0.2374520
     77.3349000              0.4830340
     26.2470000              0.3398560
SP   6   1.00
    491.7650000             -0.0022974              0.0039894
    116.9840000             -0.0307140              0.0303180
     37.4153000             -0.1125280              0.1298800
     13.7834000              0.0450160              0.3279510
      5.4521500              0.5893530              0.4535270
      2.2258800              0.4652060              0.2521540
SP   3   1.00
      3.1864900             -0.2518300             -0.0142990
      1.1442700              0.0615890              0.3235720
      0.4203770              1.0601800              0.7435070
SP   1   1.00
      0.1426570              1.0000000              1.0000000
D    1   1.00
      1.5000000              1.0000000
D    1   1.00
      0.3750000              1.0000000
F    1   1.00
      0.7000000              1.0000000
****
}


set {
reference rhf                          
freeze_core true
e_convergence 10                       
d_convergence 10                      
dft_spherical_points 1202
dft_radial_points 99
}

e = energy('b3lyp')

print_out('Grab this energy {0}'.format(e))
--------------------------------------------------------------------------

  Memory set to  13.039 GiB by Python driver.

Scratch directory: /tmp/

*** tstart() called on n051
*** at Fri Nov 12 12:34:02 2021

   => Loading Basis Set <=

    Name: ANONYMOUS15F37A3F
    Role: ORBITAL
    Keyword: BASIS
    atoms 1    entry N          line    69 inputblock 6-31g_2dfp_ 
    atoms 2-4  entry C          line    48 inputblock 6-31g_2dfp_ 
    atoms 5-13 entry H          line    15 inputblock 6-31g_2dfp_ 


         ---------------------------------------------------------
                                   SCF
               by Justin Turney, Rob Parrish, Andy Simmonett
                          and Daniel G. A. Smith
                              RKS Reference
                        4 Threads,  13351 MiB Core
         ---------------------------------------------------------

  ==> Geometry <==

    Molecular point group: cs
    Full point group: Cs

    Geometry (in Bohr), charge = 0, multiplicity = 1:

       Center              X                  Y                   Z               Mass       
    ------------   -----------------  -----------------  -----------------  -----------------
         N           -0.715946773574     0.000160595117     0.000000000000    14.003074004430
         C            0.177775934276    -1.301773574733    -2.253548387900    12.000000000000
         C            0.176586888626     2.603772128417     0.000000000000    12.000000000000
         C            0.177775934276    -1.301773574733     2.253548387900    12.000000000000
         H            2.265574130226    -1.366404306683    -2.363044795950     1.007825032230
         H           -0.529669088224    -0.338871500883    -3.935432383000     1.007825032230
         H           -0.529297114974    -3.242427123083    -2.265074348500     1.007825032230
         H            2.253684243026     2.722976492417     0.000000000000     1.007825032230
         H           -0.527684935024     3.583759609117     1.669076977350     1.007825032230
         H           -0.527684935024     3.583759609117    -1.669076977350     1.007825032230
         H            2.265574130226    -1.366404306683     2.363044795950     1.007825032230
         H           -0.529297114974    -3.242427123083     2.265074348500     1.007825032230
         H           -0.529669088224    -0.338871500883     3.935432383000     1.007825032230

  Running in cs symmetry.

  Rotational constants: A =      0.29254  B =      0.29218  C =      0.16681 [cm^-1]
  Rotational constants: A =   8770.25541  B =   8759.21090  C =   5000.86502 [MHz]
  Nuclear repulsion =  138.836162729125675

  Charge       = 0
  Multiplicity = 1
  Electrons    = 34
  Nalpha       = 17
  Nbeta        = 17

  ==> Algorithm <==

  SCF Algorithm Type is DF.
  DIIS enabled.
  MOM disabled.
  Fractional occupation disabled.
  Guess Type is SAD.
  Energy threshold   = 1.00e-10
  Density threshold  = 1.00e-10
  Integral threshold = 0.00e+00

  ==> Primary Basis <==

  Basis Set: ANONYMOUS15F37A3F
    Blend: 6-31G_2DFP_
    Number of shells: 68
    Number of basis function: 176
    Number of Cartesian functions: 196
    Spherical Harmonics?: true
    Max angular momentum: 3

  ==> DFT Potential <==

   => Composite Functional: B3LYP <= 

    B3LYP Hyb-GGA Exchange-Correlation Functional

    P. J. Stephens, F. J. Devlin, C. F. Chabalowski, and M. J. Frisch, J. Phys. Chem. 98, 11623 (1994)

    Deriv               =              1
    GGA                 =           TRUE
    Meta                =          FALSE

    Exchange Hybrid     =           TRUE
    MP2 Hybrid          =          FALSE

   => Exchange Functionals <=

    0.0800   Slater exchange
    0.7200         Becke 88

   => Exact (HF) Exchange <=

    0.2000               HF 

   => Correlation Functionals <=

    0.1900   Vosko, Wilk & Nusair (VWN5_RPA)
    0.8100   Lee, Yang & Parr

   => Molecular Quadrature <=

    Radial Scheme          =       TREUTLER
    Pruning Scheme         =           NONE
    Nuclear Scheme         =       TREUTLER

    BS radius alpha        =              1
    Pruning alpha          =              1
    Radial Points          =             99
    Spherical Points       =           1202
    Total Points           =        1438279
    Total Blocks           =           9535
    Max Points             =            256
    Max Functions          =            176
    Weights Tolerance      =       1.00E-15

   => Loading Basis Set <=

    Name: (ANONYMOUS15F37A3F AUX)
    Role: JKFIT
    Keyword: DF_BASIS_SCF
    atoms 1    entry N          line   258 file /opt/psi/4/master/share/psi4/basis/def2-universal-jkfit.gbs 
    atoms 2-4  entry C          line   198 file /opt/psi/4/master/share/psi4/basis/def2-universal-jkfit.gbs 
    atoms 5-13 entry H          line    18 file /opt/psi/4/master/share/psi4/basis/def2-universal-jkfit.gbs 

  ==> Integral Setup <==

  DFHelper Memory: AOs need 0.115 GiB; user supplied 3.767 GiB. Using in-core AOs.

  ==> MemDFJK: Density-Fitted J/K Matrices <==

    J tasked:                   Yes
    K tasked:                   Yes
    wK tasked:                   No
    OpenMP threads:               4
    Memory [MiB]:              3857
    Algorithm:                 Core
    Schwarz Cutoff:           1E-12
    Mask sparsity (%):       1.0589
    Fitting Condition:        1E-10

   => Auxiliary Basis Set <=

  Basis Set: (ANONYMOUS15F37A3F AUX)
    Blend: DEF2-UNIVERSAL-JKFIT
    Number of shells: 154
    Number of basis function: 464
    Number of Cartesian functions: 540
    Spherical Harmonics?: true
    Max angular momentum: 4

  Cached 100.0% of DFT collocation blocks in 6.012 [GiB].

  Minimum eigenvalue in the overlap matrix is 2.2100509495E-03.
  Reciprocal condition number of the overlap matrix is 3.8734036415E-04.
    Using symmetric orthogonalization.

  ==> Pre-Iterations <==

  SCF Guess: Superposition of Atomic Densities via on-the-fly atomic UHF (no occupation information).

   -------------------------
    Irrep   Nso     Nmo    
   -------------------------
     A'        98      98 
     A"        78      78 
   -------------------------
    Total     176     176
   -------------------------

  ==> Iterations <==

                           Total Energy        Delta E     RMS |[F,P]|

   @DF-RKS iter SAD:  -173.87168975793043   -1.73872e+02   0.00000e+00 
   @DF-RKS iter   1:  -174.14773667261585   -2.76047e-01   6.31770e-03 DIIS
   @DF-RKS iter   2:  -173.91499120765369    2.32745e-01   8.18489e-03 DIIS
   @DF-RKS iter   3:  -174.47942351666353   -5.64432e-01   1.24175e-03 DIIS
   @DF-RKS iter   4:  -174.48863160553023   -9.20809e-03   3.80081e-04 DIIS
   @DF-RKS iter   5:  -174.48955827367311   -9.26668e-04   5.80876e-05 DIIS
   @DF-RKS iter   6:  -174.48958138583836   -2.31122e-05   9.04371e-06 DIIS
   @DF-RKS iter   7:  -174.48958209778135   -7.11943e-07   2.39955e-06 DIIS
   @DF-RKS iter   8:  -174.48958214880631   -5.10250e-08   2.06626e-07 DIIS
   @DF-RKS iter   9:  -174.48958214894196   -1.35657e-10   1.65511e-07 DIIS
   @DF-RKS iter  10:  -174.48958214915388   -2.11912e-10   6.70765e-09 DIIS
   @DF-RKS iter  11:  -174.48958214915433   -4.54747e-13   7.34773e-10 DIIS
   @DF-RKS iter  12:  -174.48958214915416    1.70530e-13   1.45328e-10 DIIS
   @DF-RKS iter  13:  -174.48958214915402    1.42109e-13   3.84159e-11 DIIS
  Energy and wave function converged.


  ==> Post-Iterations <==

    Orbital Energies [Eh]
    ---------------------

    Doubly Occupied:                                                      

       1Ap   -14.318001     1App  -10.191674     2Ap   -10.191643  
       3Ap   -10.190777     4Ap    -0.915860     5Ap    -0.699180  
       2App   -0.698560     6Ap    -0.586945     7Ap    -0.462383  
       8Ap    -0.460535     3App   -0.460439     9Ap    -0.389080  
       4App   -0.388305     5App   -0.364678    10Ap    -0.354303  
       6App   -0.353860    11Ap    -0.213633  

    Virtual:                                                              

      12Ap     0.073851    13Ap     0.133879     7App    0.133943  
      14Ap     0.140322     8App    0.145758    15Ap     0.146068  
      16Ap     0.164195     9App    0.186167    17Ap     0.187204  
      10App    0.215669    18Ap     0.239900    11App    0.240137  
      19Ap     0.404657    20Ap     0.409231    12App    0.409251  
      21Ap     0.434117    13App    0.434592    22Ap     0.479032  
      14App    0.494336    23Ap     0.494434    24Ap     0.524511  
      15App    0.537605    16App    0.591843    25Ap     0.592168  
      26Ap     0.610322    17App    0.613598    27Ap     0.614607  
      28Ap     0.616768    18App    0.616796    19App    0.630151  
      29Ap     0.636262    30Ap     0.680611    20App    0.680843  
      21App    0.727710    31Ap     0.728195    32Ap     0.785338  
      33Ap     0.823423    22App    0.824177    23App    0.886711  
      24App    0.962142    34Ap     0.962426    25App    0.980802  
      35Ap     0.998251    36Ap     1.026688    26App    1.026713  
      37Ap     1.066116    27App    1.121385    38Ap     1.122041  
      39Ap     1.125648    40Ap     1.222980    28App    1.223507  
      41Ap     1.224573    42Ap     1.294853    29App    1.295854  
      43Ap     1.329916    44Ap     1.345888    30App    1.346477  
      45Ap     1.363086    31App    1.400805    46Ap     1.400927  
      32App    1.436515    47Ap     1.437412    33App    1.437692  
      34App    1.450106    35App    1.478467    48Ap     1.480927  
      36App    1.513993    49Ap     1.656575    37App    1.667282  
      50Ap     1.668446    51Ap     1.739474    38App    1.757993  
      52Ap     1.759009    53Ap     1.807842    39App    1.818755  
      54Ap     1.820964    55Ap     1.866181    40App    1.866590  
      56Ap     1.965838    41App    2.020580    57Ap     2.022840  
      42App    2.069379    58Ap     2.195898    43App    2.196664  
      59Ap     2.859397    44App    2.860023    60Ap     2.889110  
      61Ap     2.926061    45App    2.926851    46App    2.962857  
      47App    2.978607    62Ap     2.984755    48App    2.985009  
      49App    3.022573    63Ap     3.023300    64Ap     3.043259  
      50App    3.094904    65Ap     3.096782    66Ap     3.154793  
      51App    3.187278    67Ap     3.234094    52App    3.323992  
      68Ap     3.324205    69Ap     3.367225    70Ap     3.374714  
      53App    3.375004    71Ap     3.447642    54App    3.449329  
      55App    3.519362    72Ap     3.560579    56App    3.561626  
      57App    3.651338    73Ap     3.652165    58App    3.663542  
      74Ap     3.760298    59App    3.779572    75Ap     3.782626  
      76Ap     3.790887    60App    3.804765    77Ap     3.807155  
      78Ap     3.973046    79Ap     4.077967    80Ap     4.116886  
      61App    4.121421    62App    4.163973    81Ap     4.165505  
      63App    4.224846    64App    4.234486    82Ap     4.236663  
      65App    4.332555    83Ap     4.332977    84Ap     4.354667  
      66App    4.390042    85Ap     4.390811    67App    4.435095  
      68App    4.468330    86Ap     4.468702    87Ap     4.486456  
      69App    4.541048    88Ap     4.760648    70App    4.762601  
      89Ap     4.779216    71App    4.972876    90Ap     4.974089  
      72App    4.990523    91Ap     4.991644    73App    5.096311  
      92Ap     5.141490    93Ap     5.238444    94Ap     5.243726  
      74App    5.244390    95Ap     5.298036    75App    5.299417  
      76App    5.453073    96Ap     5.457916    97Ap     5.516693  
      77App    5.557476    98Ap     5.838474    78App    5.838703  

    Final Occupation by Irrep:
             Ap   App 
    DOCC [    11,    6 ]

  @DF-RKS Final Energy:  -174.48958214915402

   => Energetics <=

    Nuclear Repulsion Energy =            138.8361627291256752
    One-Electron Energy =                -508.6976207739369329
    Two-Electron Energy =                 216.8980886209254777
    DFT Exchange-Correlation Energy =     -21.5262127252682625
    Empirical Dispersion Energy =           0.0000000000000000
    VV10 Nonlocal Energy =                  0.0000000000000000
    Total Energy =                       -174.4895821491540175

Computation Completed


Properties will be evaluated at   0.000000,   0.000000,   0.000000 [a0]

Properties computed using the SCF density matrix

  Nuclear Dipole Moment: [e a0]
     X:     1.7927      Y:    -0.0024      Z:     0.0000

  Electronic Dipole Moment: [e a0]
     X:    -1.5743      Y:     0.0064      Z:     0.0000

  Dipole Moment: [e a0]
     X:     0.2184      Y:     0.0039      Z:     0.0000     Total:     0.2185

  Dipole Moment: [D]
     X:     0.5552      Y:     0.0100      Z:     0.0000     Total:     0.5553


*** tstop() called on n051 at Fri Nov 12 12:34:33 2021
Module time:
	user time   =     118.58 seconds =       1.98 minutes
	system time =       1.68 seconds =       0.03 minutes
	total time  =         31 seconds =       0.52 minutes
Total time:
	user time   =     118.58 seconds =       1.98 minutes
	system time =       1.68 seconds =       0.03 minutes
	total time  =         31 seconds =       0.52 minutes
Grab this energy -174.48958214915402
    Psi4 stopped on: Friday, 12 November 2021 12:34PM
    Psi4 wall time for execution: 0:00:30.88

*** Psi4 exiting successfully. Buy a developer a beer!
