
    -----------------------------------------------------------------------
          Psi4: An Open-Source Ab Initio Electronic Structure Package
                               Psi4 1.4a2.dev629 

                         Git: Rev {master} 2938fc2 dirty


    D. G. A. Smith, L. A. Burns, A. C. Simmonett, R. M. Parrish,
    M. C. Schieber, R. Galvelis, P. Kraus, H. Kruse, R. Di Remigio,
    A. Alenaizan, A. M. James, S. Lehtola, J. P. Misiewicz, M. Scheurer,
    R. A. Shaw, J. B. Schriber, Y. Xie, Z. L. Glick, D. A. Sirianni,
    J. S. O'Brien, J. M. Waldrop, A. Kumar, E. G. Hohenstein,
    B. P. Pritchard, B. R. Brooks, H. F. Schaefer III, A. Yu. Sokolov,
    K. Patkowski, A. E. DePrince III, U. Bozkaya, R. A. King,
    F. A. Evangelista, J. M. Turney, T. D. Crawford, C. D. Sherrill,
    J. Chem. Phys. 152(18) 184108 (2020). https://doi.org/10.1063/5.0006002

                            Additional Code Authors
    E. T. Seidl, C. L. Janssen, E. F. Valeev, M. L. Leininger,
    J. F. Gonthier, R. M. Richard, H. R. McAlexander, M. Saitow, X. Wang,
    P. Verma, and M. H. Lechner

             Previous Authors, Complete List of Code Contributors,
                       and Citations for Specific Modules
    https://github.com/psi4/psi4/blob/master/codemeta.json
    https://github.com/psi4/psi4/graphs/contributors
    http://psicode.org/psi4manual/master/introduction.html#citing-psifour

    -----------------------------------------------------------------------


    Psi4 started on: Monday, 14 March 2022 05:37PM

    Process ID: 20932
    Host:       n054
    PSIDATADIR: /opt/psi/4/master/share/psi4
    Memory:     500.0 MiB
    Threads:    4
    
  ==> Input File <==

--------------------------------------------------------------------------
import os
memory 14 GB 
 
molecule {
 X   -2.6056733900   -0.0000000000    0.0000000000
 N   -0.7160158542   -0.0003659662    0.0000000003
 C    0.1772915730   -1.3013931327   -2.2540155753
 C    0.1769255681    2.6014734138    0.0000000000
 C    0.1772915733   -1.3013931332    2.2540155762
 H    2.2627858305   -1.3636480401   -2.3618242798
 H   -0.5291877227   -0.3411687625   -3.9388339495
 H   -0.5294461523   -3.2396787774   -2.2646166391
 H    2.2690047658    2.7253382644    0.0000000000
 H   -0.5325391138    3.5826658517    1.6795784110
 H   -0.5325391136    3.5826658523   -1.6795784116
 H    2.2627858250   -1.3636480409    2.3618242813
 H   -0.5294461493   -3.2396787726    2.2646166409
 H   -0.5291877199   -0.3411687666    3.9388339455
units bohr
}

basis {

assign 6-31g_2dfp_

[ 6-31g_2dfp_ ]

spherical

!----------------------------------------------------------------------
! Basis Set Exchange
! Version v0.8.13
! https://www.basissetexchange.org
!----------------------------------------------------------------------
!   Basis set: 6-31G(2df,p)
! Description: 6-31G(2df,p)
!        Role: orbital
!     Version: 0  (Data from the original Basis Set Exchange)
!----------------------------------------------------------------------


****
H     0
S    3   1.00
     18.7311370              0.03349460
      2.8253937              0.23472695
      0.6401217              0.81375733
S    1   1.00
      0.1612778              1.00000000
P    1   1.00
      1.5000000              1.0000000
P    1   1.00
      0.3750000              1.0000000
****
B     0
S    6   1.00
   2068.8823000              0.0018663
    310.6495700              0.0142515
     70.6830330              0.0695516
     19.8610800              0.2325729
      6.2993048              0.4670787
      2.1270270              0.3634314
SP   3   1.00
      4.7279710             -0.1303938              0.0745976
      1.1903377             -0.1307889              0.3078467
      0.3594117              1.1309444              0.7434568
SP   1   1.00
      0.1267512              1.0000000              1.0000000
D    1   1.00
      0.8020000              1.0000000
D    1   1.00
      0.2005000              1.0000000
F    1   1.00
      0.5000000              1.0000000
****
C     0
S    6   1.00
   3047.5249000              0.0018347
    457.3695100              0.0140373
    103.9486900              0.0688426
     29.2101550              0.2321844
      9.2866630              0.4679413
      3.1639270              0.3623120
SP   3   1.00
      7.8682724             -0.1193324              0.0689991
      1.8812885             -0.1608542              0.3164240
      0.5442493              1.1434564              0.7443083
SP   1   1.00
      0.1687144              1.0000000              1.0000000
D    1   1.00
      1.2520000              1.0000000
D    1   1.00
      0.3130000              1.0000000
F    1   1.00
      0.8000000              1.0000000
****
N     0
S    6   1.00
   4173.5110000              0.0018348
    627.4579000              0.0139950
    142.9021000              0.0685870
     40.2343300              0.2322410
     12.8202100              0.4690700
      4.3904370              0.3604550
SP   3   1.00
     11.6263580             -0.1149610              0.0675800
      2.7162800             -0.1691180              0.3239070
      0.7722180              1.1458520              0.7408950
SP   1   1.00
      0.2120313              1.0000000              1.0000000
D    1   1.00
      1.8260000              1.0000000
D    1   1.00
      0.4565000              1.0000000
F    1   1.00
      1.0000000              1.0000000
****
O     0
S    6   1.00
   5484.6717000              0.0018311
    825.2349500              0.0139501
    188.0469600              0.0684451
     52.9645000              0.2327143
     16.8975700              0.4701930
      5.7996353              0.3585209
SP   3   1.00
     15.5396160             -0.1107775              0.0708743
      3.5999336             -0.1480263              0.3397528
      1.0137618              1.1307670              0.7271586
SP   1   1.00
      0.2700058              1.0000000              1.0000000
D    1   1.00
      2.5840000              1.0000000
D    1   1.00
      0.6460000              1.0000000
F    1   1.00
      1.4000000              1.0000000
****
F     0
S    6   1.00
   7001.7130900              0.0018196169
   1051.3660900              0.0139160796
    239.2856900              0.0684053245
     67.3974453              0.233185760
     21.5199573              0.471267439
      7.40310130             0.356618546
SP   3   1.00
     20.8479528             -0.108506975            0.0716287243
      4.80830834            -0.146451658            0.3459121030
      1.34406986             1.128688580            0.7224699570
SP   1   1.00
      0.358151393            1.0000000              1.0000000
D    1   1.00
      3.5000000              1.0000000
D    1   1.00
      0.8750000              1.0000000
F    1   1.00
      1.8500000              1.0000000
****
Al     0
S    6   1.00
  13983.1000000              0.00194267
   2098.7500000              0.0148599
    477.7050000              0.0728494
    134.3600000              0.2468300
     42.8709000              0.4872580
     14.5189000              0.3234960
SP   6   1.00
    239.6680000             -0.00292619             0.00460285
     57.4419000             -0.0374080              0.0331990
     18.2859000             -0.1144870              0.1362820
      6.5991400              0.1156350              0.3304760
      2.4904900              0.6125950              0.4491460
      0.9445400              0.3937990              0.2657040
SP   3   1.00
      1.2779000             -0.2276060             -0.0175130
      0.3975900              0.00144583             0.2445330
      0.1600950              1.0927900              0.8049340
SP   1   1.00
      0.0556577              1.0000000              1.0000000
D    1   1.00
      0.6500000              1.0000000
D    1   1.00
      0.1625000              1.0000000
F    1   1.00
      0.2500000              1.0000000
****
Si     0
S    6   1.00
  16115.9000000              0.00195948
   2425.5800000              0.01492880
    553.8670000              0.07284780
    156.3400000              0.24613000
     50.0683000              0.48591400
     17.0178000              0.32500200
SP   6   1.00
    292.7180000             -0.00278094             0.00443826
     69.8731000             -0.03571460             0.03266790
     22.3363000             -0.11498500             0.13472100
      8.1503900              0.09356340             0.32867800
      3.1345800              0.60301700             0.44964000
      1.2254300              0.41895900             0.26137200
SP   3   1.00
      1.7273800             -0.24463000            -0.01779510
      0.5729220              0.00431572             0.25353900
      0.2221920              1.09818000             0.80066900
SP   1   1.00
      0.0778369              1.00000000             1.00000000
D    1   1.00
      0.9000000              1.0000000
D    1   1.00
      0.2250000              1.0000000
F    1   1.00
      0.3200000              1.0000000
****
P     0
S    6   1.00
  19413.3000000              0.0018516
   2909.4200000              0.0142062
    661.3640000              0.0699995
    185.7590000              0.2400790
     59.1943000              0.4847620
     20.0310000              0.3352000
SP   6   1.00
    339.4780000             -0.00278217             0.00456462
     81.0101000             -0.0360499              0.03369360
     25.8780000             -0.1166310              0.13975500
      9.4522100              0.0968328              0.33936200
      3.6656600              0.6144180              0.45092100
      1.4674600              0.4037980              0.23858600
SP   3   1.00
      2.1562300             -0.2529230             -0.01776530
      0.7489970              0.0328517              0.27405800
      0.2831450              1.0812500              0.78542100
SP   1   1.00
      0.0998317              1.0000000              1.00000000
D    1   1.00
      1.1000000              1.0000000
D    1   1.00
      0.2750000              1.0000000
F    1   1.00
      0.4500000              1.0000000
****
S     0
S    6   1.00
  21917.1000000              0.0018690
   3301.4900000              0.0142300
    754.1460000              0.0696960
    212.7110000              0.2384870
     67.9896000              0.4833070
     23.0515000              0.3380740
SP   6   1.00
    423.7350000             -0.0023767              0.0040610
    100.7100000             -0.0316930              0.0306810
     32.1599000             -0.1133170              0.1304520
     11.8079000              0.0560900              0.3272050
      4.6311000              0.5922550              0.4528510
      1.8702500              0.4550060              0.2560420
SP   3   1.00
      2.6158400             -0.2503740             -0.0145110
      0.9221670              0.0669570              0.3102630
      0.3412870              1.0545100              0.7544830
SP   1   1.00
      0.1171670              1.0000000              1.0000000
D    1   1.00
      1.3000000              1.0000000
D    1   1.00
      0.3250000              1.0000000
F    1   1.00
      0.5500000              1.0000000
****
Cl     0
S    6   1.00
  25180.1000000              0.0018330
   3780.3500000              0.0140340
    860.4740000              0.0690970
    242.1450000              0.2374520
     77.3349000              0.4830340
     26.2470000              0.3398560
SP   6   1.00
    491.7650000             -0.0022974              0.0039894
    116.9840000             -0.0307140              0.0303180
     37.4153000             -0.1125280              0.1298800
     13.7834000              0.0450160              0.3279510
      5.4521500              0.5893530              0.4535270
      2.2258800              0.4652060              0.2521540
SP   3   1.00
      3.1864900             -0.2518300             -0.0142990
      1.1442700              0.0615890              0.3235720
      0.4203770              1.0601800              0.7435070
SP   1   1.00
      0.1426570              1.0000000              1.0000000
D    1   1.00
      1.5000000              1.0000000
D    1   1.00
      0.3750000              1.0000000
F    1   1.00
      0.7000000              1.0000000
****
}


set {
reference rhf                          
freeze_core true
e_convergence 10                       
d_convergence 10                      
dft_spherical_points 1202
dft_radial_points 99
}

e = energy('b3lyp')

print_out('Grab this energy {0}'.format(e))
--------------------------------------------------------------------------

  Memory set to  13.039 GiB by Python driver.

Scratch directory: /tmp/

*** tstart() called on n054
*** at Mon Mar 14 17:37:47 2022

   => Loading Basis Set <=

    Name: ANONYMOUS766CFD2C
    Role: ORBITAL
    Keyword: BASIS
    atoms 1    entry N          line    69 inputblock 6-31g_2dfp_ 
    atoms 2-4  entry C          line    48 inputblock 6-31g_2dfp_ 
    atoms 5-13 entry H          line    15 inputblock 6-31g_2dfp_ 


         ---------------------------------------------------------
                                   SCF
               by Justin Turney, Rob Parrish, Andy Simmonett
                          and Daniel G. A. Smith
                              RKS Reference
                        4 Threads,  13351 MiB Core
         ---------------------------------------------------------

  ==> Geometry <==

    Molecular point group: cs
    Full point group: Cs

    Geometry (in Bohr), charge = 0, multiplicity = 1:

       Center              X                  Y                   Z               Mass       
    ------------   -----------------  -----------------  -----------------  -----------------
         N           -0.000041168580     0.715883440299     0.000000000000    14.003074004430
         C           -1.301068335330    -0.177423987051    -2.254015575750    12.000000000000
         C            2.601798211420    -0.177057982001     0.000000000000    12.000000000000
         C           -1.301068335330    -0.177423987051     2.254015575750    12.000000000000
         H           -1.363323242880    -2.262918241651    -2.361824280550     1.007825032230
         H           -0.340843966930     0.529055307399    -3.938833947500     1.007825032230
         H           -3.239353977380     0.529313736899    -2.264616640000     1.007825032230
         H            2.725663062020    -2.269137179701     0.000000000000     1.007825032230
         H            3.582990649620     0.532406699799     1.679578411300     1.007825032230
         H            3.582990649620     0.532406699799    -1.679578411300     1.007825032230
         H           -1.363323242880    -2.262918241651     2.361824280550     1.007825032230
         H           -3.239353977380     0.529313736899     2.264616640000     1.007825032230
         H           -0.340843966930     0.529055307399     3.938833947500     1.007825032230

  Running in cs symmetry.

  Rotational constants: A =      0.29241  B =      0.29224  C =      0.16684 [cm^-1]
  Rotational constants: A =   8766.24710  B =   8761.21274  C =   5001.67648 [MHz]
  Nuclear repulsion =  138.798918386105669

  Charge       = 0
  Multiplicity = 1
  Electrons    = 34
  Nalpha       = 17
  Nbeta        = 17

  ==> Algorithm <==

  SCF Algorithm Type is DF.
  DIIS enabled.
  MOM disabled.
  Fractional occupation disabled.
  Guess Type is SAD.
  Energy threshold   = 1.00e-10
  Density threshold  = 1.00e-10
  Integral threshold = 0.00e+00

  ==> Primary Basis <==

  Basis Set: ANONYMOUS766CFD2C
    Blend: 6-31G_2DFP_
    Number of shells: 68
    Number of basis function: 176
    Number of Cartesian functions: 196
    Spherical Harmonics?: true
    Max angular momentum: 3

  ==> DFT Potential <==

   => Composite Functional: B3LYP <= 

    B3LYP Hyb-GGA Exchange-Correlation Functional

    P. J. Stephens, F. J. Devlin, C. F. Chabalowski, and M. J. Frisch, J. Phys. Chem. 98, 11623 (1994)

    Deriv               =              1
    GGA                 =           TRUE
    Meta                =          FALSE

    Exchange Hybrid     =           TRUE
    MP2 Hybrid          =          FALSE

   => Exchange Functionals <=

    0.0800   Slater exchange
    0.7200         Becke 88

   => Exact (HF) Exchange <=

    0.2000               HF 

   => Correlation Functionals <=

    0.1900   Vosko, Wilk & Nusair (VWN5_RPA)
    0.8100   Lee, Yang & Parr

   => Molecular Quadrature <=

    Radial Scheme          =       TREUTLER
    Pruning Scheme         =           NONE
    Nuclear Scheme         =       TREUTLER

    BS radius alpha        =              1
    Pruning alpha          =              1
    Radial Points          =             99
    Spherical Points       =           1202
    Total Points           =        1438370
    Total Blocks           =           9515
    Max Points             =            256
    Max Functions          =            176
    Weights Tolerance      =       1.00E-15

   => Loading Basis Set <=

    Name: (ANONYMOUS766CFD2C AUX)
    Role: JKFIT
    Keyword: DF_BASIS_SCF
    atoms 1    entry N          line   258 file /opt/psi/4/master/share/psi4/basis/def2-universal-jkfit.gbs 
    atoms 2-4  entry C          line   198 file /opt/psi/4/master/share/psi4/basis/def2-universal-jkfit.gbs 
    atoms 5-13 entry H          line    18 file /opt/psi/4/master/share/psi4/basis/def2-universal-jkfit.gbs 

  ==> Integral Setup <==

  DFHelper Memory: AOs need 0.115 GiB; user supplied 3.770 GiB. Using in-core AOs.

  ==> MemDFJK: Density-Fitted J/K Matrices <==

    J tasked:                   Yes
    K tasked:                   Yes
    wK tasked:                   No
    OpenMP threads:               4
    Memory [MiB]:              3860
    Algorithm:                 Core
    Schwarz Cutoff:           1E-12
    Mask sparsity (%):       1.0589
    Fitting Condition:        1E-10

   => Auxiliary Basis Set <=

  Basis Set: (ANONYMOUS766CFD2C AUX)
    Blend: DEF2-UNIVERSAL-JKFIT
    Number of shells: 154
    Number of basis function: 464
    Number of Cartesian functions: 540
    Spherical Harmonics?: true
    Max angular momentum: 4

  Cached 100.0% of DFT collocation blocks in 6.008 [GiB].

  Minimum eigenvalue in the overlap matrix is 2.2094313881E-03.
  Reciprocal condition number of the overlap matrix is 3.8744503982E-04.
    Using symmetric orthogonalization.

  ==> Pre-Iterations <==

  SCF Guess: Superposition of Atomic Densities via on-the-fly atomic UHF (no occupation information).

   -------------------------
    Irrep   Nso     Nmo    
   -------------------------
     A'        98      98 
     A"        78      78 
   -------------------------
    Total     176     176
   -------------------------

  ==> Iterations <==

                           Total Energy        Delta E     RMS |[F,P]|

   @DF-RKS iter SAD:  -173.86844571569287   -1.73868e+02   0.00000e+00 
   @DF-RKS iter   1:  -174.14805057634138   -2.79605e-01   6.31348e-03 DIIS
   @DF-RKS iter   2:  -173.91196053006070    2.36090e-01   8.20485e-03 DIIS
   @DF-RKS iter   3:  -174.47944755491602   -5.67487e-01   1.24176e-03 DIIS
   @DF-RKS iter   4:  -174.48864878712135   -9.20123e-03   3.81272e-04 DIIS
   @DF-RKS iter   5:  -174.48958188874943   -9.33102e-04   5.81018e-05 DIIS
   @DF-RKS iter   6:  -174.48960503673322   -2.31480e-05   9.04095e-06 DIIS
   @DF-RKS iter   7:  -174.48960574921117   -7.12478e-07   2.39916e-06 DIIS
   @DF-RKS iter   8:  -174.48960580040756   -5.11964e-08   1.82209e-07 DIIS
   @DF-RKS iter   9:  -174.48960580049408   -8.65157e-11   1.55827e-07 DIIS
   @DF-RKS iter  10:  -174.48960580068166   -1.87583e-10   7.29699e-09 DIIS
   @DF-RKS iter  11:  -174.48960580068226   -5.96856e-13   7.51346e-10 DIIS
   @DF-RKS iter  12:  -174.48960580068223    2.84217e-14   1.55358e-10 DIIS
   @DF-RKS iter  13:  -174.48960580068234   -1.13687e-13   3.86405e-11 DIIS
  Energy and wave function converged.


  ==> Post-Iterations <==

    Orbital Energies [Eh]
    ---------------------

    Doubly Occupied:                                                      

       1Ap   -14.318195     2Ap   -10.192566     1App  -10.191609  
       3Ap   -10.191577     4Ap    -0.916139     2App   -0.698876  
       5Ap    -0.698278     6Ap    -0.586539     7Ap    -0.462300  
       8Ap    -0.460385     3App   -0.460375     4App   -0.388610  
       9Ap    -0.388232     5App   -0.364360    10Ap    -0.354049  
       6App   -0.353989    11Ap    -0.213800  

    Virtual:                                                              

      12Ap     0.073531     7App    0.133456    13Ap     0.133599  
      14Ap     0.139986     8App    0.145493    15Ap     0.145607  
      16Ap     0.164266    17Ap     0.185854     9App    0.186465  
      10App    0.215248    11App    0.239907    18Ap     0.240024  
      19Ap     0.404334    20Ap     0.409218    12App    0.409313  
      13App    0.434002    21Ap     0.434236    22Ap     0.478867  
      23Ap     0.494167    14App    0.494225    24Ap     0.524370  
      15App    0.537335    25Ap     0.591266    16App    0.591606  
      26Ap     0.609857    27Ap     0.613046    17App    0.613597  
      18App    0.615904    28Ap     0.616178    19App    0.629520  
      29Ap     0.635349    20App    0.680413    30Ap     0.680454  
      31Ap     0.727497    21App    0.727791    32Ap     0.785042  
      22App    0.822576    33Ap     0.823428    23App    0.886159  
      24App    0.961672    34Ap     0.961754    25App    0.980164  
      35Ap     0.997563    26App    1.025758    36Ap     1.026176  
      37Ap     1.065730    38Ap     1.121500    27App    1.121694  
      39Ap     1.125170    40Ap     1.222517    28App    1.223180  
      41Ap     1.223852    29App    1.294685    42Ap     1.295290  
      43Ap     1.329040    30App    1.344616    44Ap     1.345656  
      45Ap     1.362985    46Ap     1.399796    31App    1.400631  
      32App    1.435453    47Ap     1.436221    33App    1.436822  
      34App    1.449262    48Ap     1.477959    35App    1.478917  
      36App    1.513660    49Ap     1.655179    37App    1.667299  
      50Ap     1.667823    51Ap     1.737128    38App    1.757717  
      52Ap     1.757769    53Ap     1.806508    54Ap     1.816339  
      39App    1.818622    40App    1.864987    55Ap     1.865788  
      56Ap     1.965034    57Ap     2.019496    41App    2.021263  
      42App    2.067621    43App    2.195340    58Ap     2.196181  
      44App    2.858416    59Ap     2.858700    60Ap     2.887673  
      45App    2.925287    61Ap     2.926205    46App    2.962263  
      47App    2.978071    62Ap     2.984603    48App    2.984626  
      63Ap     3.022139    49App    3.022745    64Ap     3.043476  
      65Ap     3.094481    50App    3.095347    66Ap     3.155669  
      51App    3.186801    67Ap     3.234663    68Ap     3.324371  
      52App    3.324640    69Ap     3.366700    70Ap     3.375323  
      53App    3.375844    54App    3.448943    71Ap     3.450619  
      55App    3.519686    56App    3.561292    72Ap     3.561695  
      73Ap     3.652028    57App    3.652598    58App    3.665023  
      74Ap     3.759435    75Ap     3.777534    59App    3.780716  
      76Ap     3.788739    77Ap     3.804053    60App    3.805427  
      78Ap     3.971578    79Ap     4.074137    61App    4.113803  
      80Ap     4.117956    81Ap     4.162143    62App    4.162673  
      63App    4.221586    82Ap     4.231328    64App    4.233226  
      65App    4.331936    83Ap     4.332065    84Ap     4.352219  
      85Ap     4.387661    66App    4.387747    67App    4.432535  
      68App    4.466246    86Ap     4.466421    87Ap     4.486023  
      69App    4.538828    70App    4.759485    88Ap     4.760163  
      89Ap     4.777377    90Ap     4.970888    71App    4.972378  
      91Ap     4.988657    72App    4.989611    73App    5.092737  
      92Ap     5.140083    93Ap     5.233891    74App    5.239722  
      94Ap     5.242277    75App    5.294748    95Ap     5.297646  
      96Ap     5.450618    76App    5.454474    97Ap     5.516223  
      77App    5.555674    78App    5.838403    98Ap     5.839146  

    Final Occupation by Irrep:
             Ap   App 
    DOCC [    11,    6 ]

  @DF-RKS Final Energy:  -174.48960580068234

   => Energetics <=

    Nuclear Repulsion Energy =            138.7989183861056688
    One-Electron Energy =                -508.6259637331862109
    Two-Electron Energy =                 216.8596191760694296
    DFT Exchange-Correlation Energy =     -21.5221796296711929
    Empirical Dispersion Energy =           0.0000000000000000
    VV10 Nonlocal Energy =                  0.0000000000000000
    Total Energy =                       -174.4896058006823409

Computation Completed


Properties will be evaluated at   0.000000,   0.000000,   0.000000 [a0]

Properties computed using the SCF density matrix

  Nuclear Dipole Moment: [e a0]
     X:     0.0023      Y:    -1.7937      Z:    -0.0000

  Electronic Dipole Moment: [e a0]
     X:    -0.0052      Y:     1.5772      Z:     0.0000

  Dipole Moment: [e a0]
     X:    -0.0029      Y:    -0.2165      Z:    -0.0000     Total:     0.2165

  Dipole Moment: [D]
     X:    -0.0073      Y:    -0.5503      Z:    -0.0000     Total:     0.5503


*** tstop() called on n054 at Mon Mar 14 17:38:19 2022
Module time:
	user time   =     122.08 seconds =       2.03 minutes
	system time =       1.78 seconds =       0.03 minutes
	total time  =         32 seconds =       0.53 minutes
Total time:
	user time   =     122.08 seconds =       2.03 minutes
	system time =       1.78 seconds =       0.03 minutes
	total time  =         32 seconds =       0.53 minutes
Grab this energy -174.48960580068234
    Psi4 stopped on: Monday, 14 March 2022 05:38PM
    Psi4 wall time for execution: 0:00:31.87

*** Psi4 exiting successfully. Buy a developer a beer!
