
    -----------------------------------------------------------------------
          Psi4: An Open-Source Ab Initio Electronic Structure Package
                               Psi4 1.4a2.dev629 

                         Git: Rev {master} 2938fc2 dirty


    D. G. A. Smith, L. A. Burns, A. C. Simmonett, R. M. Parrish,
    M. C. Schieber, R. Galvelis, P. Kraus, H. Kruse, R. Di Remigio,
    A. Alenaizan, A. M. James, S. Lehtola, J. P. Misiewicz, M. Scheurer,
    R. A. Shaw, J. B. Schriber, Y. Xie, Z. L. Glick, D. A. Sirianni,
    J. S. O'Brien, J. M. Waldrop, A. Kumar, E. G. Hohenstein,
    B. P. Pritchard, B. R. Brooks, H. F. Schaefer III, A. Yu. Sokolov,
    K. Patkowski, A. E. DePrince III, U. Bozkaya, R. A. King,
    F. A. Evangelista, J. M. Turney, T. D. Crawford, C. D. Sherrill,
    J. Chem. Phys. 152(18) 184108 (2020). https://doi.org/10.1063/5.0006002

                            Additional Code Authors
    E. T. Seidl, C. L. Janssen, E. F. Valeev, M. L. Leininger,
    J. F. Gonthier, R. M. Richard, H. R. McAlexander, M. Saitow, X. Wang,
    P. Verma, and M. H. Lechner

             Previous Authors, Complete List of Code Contributors,
                       and Citations for Specific Modules
    https://github.com/psi4/psi4/blob/master/codemeta.json
    https://github.com/psi4/psi4/graphs/contributors
    http://psicode.org/psi4manual/master/introduction.html#citing-psifour

    -----------------------------------------------------------------------


    Psi4 started on: Monday, 14 March 2022 05:34PM

    Process ID: 17846
    Host:       n062
    PSIDATADIR: /opt/psi/4/master/share/psi4
    Memory:     500.0 MiB
    Threads:    4
    
  ==> Input File <==

--------------------------------------------------------------------------
import os
memory 14 GB 
 
molecule {
 X   -2.6056733900    0.0000000000   -0.0000000000
 N   -0.7148596526    0.0000000004   -0.0000000000
 C    0.1785844487   -1.3015926989   -2.2544246942
 C    0.1785844488    2.6031853992   -0.0000000000
 C    0.1785844487   -1.3015926989    2.2544246942
 H    2.2551799520   -1.3641906769   -2.3628475589
 H   -0.5264517047   -0.3418993968   -3.9376161247
 H   -0.5264517084   -3.2391258967   -2.2649016257
 H    2.2551799517    2.7283813474   -0.0000000000
 H   -0.5264517065    3.5810252908    1.6727145008
 H   -0.5264517065    3.5810252908   -1.6727145008
 H    2.2551799520   -1.3641906769    2.3628475589
 H   -0.5264517084   -3.2391258967    2.2649016257
 H   -0.5264517047   -0.3418993968    3.9376161247
units bohr
}

basis {

assign 6-31g_2dfp_

[ 6-31g_2dfp_ ]

spherical

!----------------------------------------------------------------------
! Basis Set Exchange
! Version v0.8.13
! https://www.basissetexchange.org
!----------------------------------------------------------------------
!   Basis set: 6-31G(2df,p)
! Description: 6-31G(2df,p)
!        Role: orbital
!     Version: 0  (Data from the original Basis Set Exchange)
!----------------------------------------------------------------------


****
H     0
S    3   1.00
     18.7311370              0.03349460
      2.8253937              0.23472695
      0.6401217              0.81375733
S    1   1.00
      0.1612778              1.00000000
P    1   1.00
      1.5000000              1.0000000
P    1   1.00
      0.3750000              1.0000000
****
B     0
S    6   1.00
   2068.8823000              0.0018663
    310.6495700              0.0142515
     70.6830330              0.0695516
     19.8610800              0.2325729
      6.2993048              0.4670787
      2.1270270              0.3634314
SP   3   1.00
      4.7279710             -0.1303938              0.0745976
      1.1903377             -0.1307889              0.3078467
      0.3594117              1.1309444              0.7434568
SP   1   1.00
      0.1267512              1.0000000              1.0000000
D    1   1.00
      0.8020000              1.0000000
D    1   1.00
      0.2005000              1.0000000
F    1   1.00
      0.5000000              1.0000000
****
C     0
S    6   1.00
   3047.5249000              0.0018347
    457.3695100              0.0140373
    103.9486900              0.0688426
     29.2101550              0.2321844
      9.2866630              0.4679413
      3.1639270              0.3623120
SP   3   1.00
      7.8682724             -0.1193324              0.0689991
      1.8812885             -0.1608542              0.3164240
      0.5442493              1.1434564              0.7443083
SP   1   1.00
      0.1687144              1.0000000              1.0000000
D    1   1.00
      1.2520000              1.0000000
D    1   1.00
      0.3130000              1.0000000
F    1   1.00
      0.8000000              1.0000000
****
N     0
S    6   1.00
   4173.5110000              0.0018348
    627.4579000              0.0139950
    142.9021000              0.0685870
     40.2343300              0.2322410
     12.8202100              0.4690700
      4.3904370              0.3604550
SP   3   1.00
     11.6263580             -0.1149610              0.0675800
      2.7162800             -0.1691180              0.3239070
      0.7722180              1.1458520              0.7408950
SP   1   1.00
      0.2120313              1.0000000              1.0000000
D    1   1.00
      1.8260000              1.0000000
D    1   1.00
      0.4565000              1.0000000
F    1   1.00
      1.0000000              1.0000000
****
O     0
S    6   1.00
   5484.6717000              0.0018311
    825.2349500              0.0139501
    188.0469600              0.0684451
     52.9645000              0.2327143
     16.8975700              0.4701930
      5.7996353              0.3585209
SP   3   1.00
     15.5396160             -0.1107775              0.0708743
      3.5999336             -0.1480263              0.3397528
      1.0137618              1.1307670              0.7271586
SP   1   1.00
      0.2700058              1.0000000              1.0000000
D    1   1.00
      2.5840000              1.0000000
D    1   1.00
      0.6460000              1.0000000
F    1   1.00
      1.4000000              1.0000000
****
F     0
S    6   1.00
   7001.7130900              0.0018196169
   1051.3660900              0.0139160796
    239.2856900              0.0684053245
     67.3974453              0.233185760
     21.5199573              0.471267439
      7.40310130             0.356618546
SP   3   1.00
     20.8479528             -0.108506975            0.0716287243
      4.80830834            -0.146451658            0.3459121030
      1.34406986             1.128688580            0.7224699570
SP   1   1.00
      0.358151393            1.0000000              1.0000000
D    1   1.00
      3.5000000              1.0000000
D    1   1.00
      0.8750000              1.0000000
F    1   1.00
      1.8500000              1.0000000
****
Al     0
S    6   1.00
  13983.1000000              0.00194267
   2098.7500000              0.0148599
    477.7050000              0.0728494
    134.3600000              0.2468300
     42.8709000              0.4872580
     14.5189000              0.3234960
SP   6   1.00
    239.6680000             -0.00292619             0.00460285
     57.4419000             -0.0374080              0.0331990
     18.2859000             -0.1144870              0.1362820
      6.5991400              0.1156350              0.3304760
      2.4904900              0.6125950              0.4491460
      0.9445400              0.3937990              0.2657040
SP   3   1.00
      1.2779000             -0.2276060             -0.0175130
      0.3975900              0.00144583             0.2445330
      0.1600950              1.0927900              0.8049340
SP   1   1.00
      0.0556577              1.0000000              1.0000000
D    1   1.00
      0.6500000              1.0000000
D    1   1.00
      0.1625000              1.0000000
F    1   1.00
      0.2500000              1.0000000
****
Si     0
S    6   1.00
  16115.9000000              0.00195948
   2425.5800000              0.01492880
    553.8670000              0.07284780
    156.3400000              0.24613000
     50.0683000              0.48591400
     17.0178000              0.32500200
SP   6   1.00
    292.7180000             -0.00278094             0.00443826
     69.8731000             -0.03571460             0.03266790
     22.3363000             -0.11498500             0.13472100
      8.1503900              0.09356340             0.32867800
      3.1345800              0.60301700             0.44964000
      1.2254300              0.41895900             0.26137200
SP   3   1.00
      1.7273800             -0.24463000            -0.01779510
      0.5729220              0.00431572             0.25353900
      0.2221920              1.09818000             0.80066900
SP   1   1.00
      0.0778369              1.00000000             1.00000000
D    1   1.00
      0.9000000              1.0000000
D    1   1.00
      0.2250000              1.0000000
F    1   1.00
      0.3200000              1.0000000
****
P     0
S    6   1.00
  19413.3000000              0.0018516
   2909.4200000              0.0142062
    661.3640000              0.0699995
    185.7590000              0.2400790
     59.1943000              0.4847620
     20.0310000              0.3352000
SP   6   1.00
    339.4780000             -0.00278217             0.00456462
     81.0101000             -0.0360499              0.03369360
     25.8780000             -0.1166310              0.13975500
      9.4522100              0.0968328              0.33936200
      3.6656600              0.6144180              0.45092100
      1.4674600              0.4037980              0.23858600
SP   3   1.00
      2.1562300             -0.2529230             -0.01776530
      0.7489970              0.0328517              0.27405800
      0.2831450              1.0812500              0.78542100
SP   1   1.00
      0.0998317              1.0000000              1.00000000
D    1   1.00
      1.1000000              1.0000000
D    1   1.00
      0.2750000              1.0000000
F    1   1.00
      0.4500000              1.0000000
****
S     0
S    6   1.00
  21917.1000000              0.0018690
   3301.4900000              0.0142300
    754.1460000              0.0696960
    212.7110000              0.2384870
     67.9896000              0.4833070
     23.0515000              0.3380740
SP   6   1.00
    423.7350000             -0.0023767              0.0040610
    100.7100000             -0.0316930              0.0306810
     32.1599000             -0.1133170              0.1304520
     11.8079000              0.0560900              0.3272050
      4.6311000              0.5922550              0.4528510
      1.8702500              0.4550060              0.2560420
SP   3   1.00
      2.6158400             -0.2503740             -0.0145110
      0.9221670              0.0669570              0.3102630
      0.3412870              1.0545100              0.7544830
SP   1   1.00
      0.1171670              1.0000000              1.0000000
D    1   1.00
      1.3000000              1.0000000
D    1   1.00
      0.3250000              1.0000000
F    1   1.00
      0.5500000              1.0000000
****
Cl     0
S    6   1.00
  25180.1000000              0.0018330
   3780.3500000              0.0140340
    860.4740000              0.0690970
    242.1450000              0.2374520
     77.3349000              0.4830340
     26.2470000              0.3398560
SP   6   1.00
    491.7650000             -0.0022974              0.0039894
    116.9840000             -0.0307140              0.0303180
     37.4153000             -0.1125280              0.1298800
     13.7834000              0.0450160              0.3279510
      5.4521500              0.5893530              0.4535270
      2.2258800              0.4652060              0.2521540
SP   3   1.00
      3.1864900             -0.2518300             -0.0142990
      1.1442700              0.0615890              0.3235720
      0.4203770              1.0601800              0.7435070
SP   1   1.00
      0.1426570              1.0000000              1.0000000
D    1   1.00
      1.5000000              1.0000000
D    1   1.00
      0.3750000              1.0000000
F    1   1.00
      0.7000000              1.0000000
****
}


set {
reference rhf                          
freeze_core true
e_convergence 10                       
d_convergence 10                      
dft_spherical_points 1202
dft_radial_points 99
}

e = energy('b3lyp')

print_out('Grab this energy {0}'.format(e))
--------------------------------------------------------------------------

  Memory set to  13.039 GiB by Python driver.

Scratch directory: /tmp/

*** tstart() called on n062
*** at Mon Mar 14 17:34:33 2022

   => Loading Basis Set <=

    Name: ANONYMOUS41EE858B
    Role: ORBITAL
    Keyword: BASIS
    atoms 1    entry N          line    69 inputblock 6-31g_2dfp_ 
    atoms 2-4  entry C          line    48 inputblock 6-31g_2dfp_ 
    atoms 5-13 entry H          line    15 inputblock 6-31g_2dfp_ 


         ---------------------------------------------------------
                                   SCF
               by Justin Turney, Rob Parrish, Andy Simmonett
                          and Daniel G. A. Smith
                              RKS Reference
                        4 Threads,  13351 MiB Core
         ---------------------------------------------------------

  ==> Geometry <==

    Molecular point group: cs
    Full point group: C1v

    Geometry (in Bohr), charge = 0, multiplicity = 1:

       Center              X                  Y                   Z               Mass       
    ------------   -----------------  -----------------  -----------------  -----------------
         N           -0.715771410180     0.000000000222     0.000000000000    14.003074004430
         C            0.177672691120    -1.301592699078    -2.254424694200    12.000000000000
         C            0.177672691220     2.603185399022     0.000000000000    12.000000000000
         C            0.177672691120    -1.301592699078     2.254424694200    12.000000000000
         H            2.254268194420    -1.364190677078    -2.362847558900     1.007825032230
         H           -0.527363462280    -0.341899396978    -3.937616124700     1.007825032230
         H           -0.527363465980    -3.239125896878    -2.264901625700     1.007825032230
         H            2.254268194120     2.728381347222     0.000000000000     1.007825032230
         H           -0.527363464080     3.581025290622     1.672714500800     1.007825032230
         H           -0.527363464080     3.581025290622    -1.672714500800     1.007825032230
         H            2.254268194420    -1.364190677078     2.362847558900     1.007825032230
         H           -0.527363465980    -3.239125896878     2.264901625700     1.007825032230
         H           -0.527363462280    -0.341899396978     3.937616124700     1.007825032230

  Running in cs symmetry.

  Rotational constants: A =      0.29249  B =      0.29249  C =      0.16679 [cm^-1]
  Rotational constants: A =   8768.52070  B =   8768.52067  C =   5000.28933 [MHz]
  Nuclear repulsion =  138.884836476379917

  Charge       = 0
  Multiplicity = 1
  Electrons    = 34
  Nalpha       = 17
  Nbeta        = 17

  ==> Algorithm <==

  SCF Algorithm Type is DF.
  DIIS enabled.
  MOM disabled.
  Fractional occupation disabled.
  Guess Type is SAD.
  Energy threshold   = 1.00e-10
  Density threshold  = 1.00e-10
  Integral threshold = 0.00e+00

  ==> Primary Basis <==

  Basis Set: ANONYMOUS41EE858B
    Blend: 6-31G_2DFP_
    Number of shells: 68
    Number of basis function: 176
    Number of Cartesian functions: 196
    Spherical Harmonics?: true
    Max angular momentum: 3

  ==> DFT Potential <==

   => Composite Functional: B3LYP <= 

    B3LYP Hyb-GGA Exchange-Correlation Functional

    P. J. Stephens, F. J. Devlin, C. F. Chabalowski, and M. J. Frisch, J. Phys. Chem. 98, 11623 (1994)

    Deriv               =              1
    GGA                 =           TRUE
    Meta                =          FALSE

    Exchange Hybrid     =           TRUE
    MP2 Hybrid          =          FALSE

   => Exchange Functionals <=

    0.0800   Slater exchange
    0.7200         Becke 88

   => Exact (HF) Exchange <=

    0.2000               HF 

   => Correlation Functionals <=

    0.1900   Vosko, Wilk & Nusair (VWN5_RPA)
    0.8100   Lee, Yang & Parr

   => Molecular Quadrature <=

    Radial Scheme          =       TREUTLER
    Pruning Scheme         =           NONE
    Nuclear Scheme         =       TREUTLER

    BS radius alpha        =              1
    Pruning alpha          =              1
    Radial Points          =             99
    Spherical Points       =           1202
    Total Points           =        1438266
    Total Blocks           =           9532
    Max Points             =            256
    Max Functions          =            176
    Weights Tolerance      =       1.00E-15

   => Loading Basis Set <=

    Name: (ANONYMOUS41EE858B AUX)
    Role: JKFIT
    Keyword: DF_BASIS_SCF
    atoms 1    entry N          line   258 file /opt/psi/4/master/share/psi4/basis/def2-universal-jkfit.gbs 
    atoms 2-4  entry C          line   198 file /opt/psi/4/master/share/psi4/basis/def2-universal-jkfit.gbs 
    atoms 5-13 entry H          line    18 file /opt/psi/4/master/share/psi4/basis/def2-universal-jkfit.gbs 

  ==> Integral Setup <==

  DFHelper Memory: AOs need 0.115 GiB; user supplied 3.766 GiB. Using in-core AOs.

  ==> MemDFJK: Density-Fitted J/K Matrices <==

    J tasked:                   Yes
    K tasked:                   Yes
    wK tasked:                   No
    OpenMP threads:               4
    Memory [MiB]:              3856
    Algorithm:                 Core
    Schwarz Cutoff:           1E-12
    Mask sparsity (%):       1.0589
    Fitting Condition:        1E-10

   => Auxiliary Basis Set <=

  Basis Set: (ANONYMOUS41EE858B AUX)
    Blend: DEF2-UNIVERSAL-JKFIT
    Number of shells: 154
    Number of basis function: 464
    Number of Cartesian functions: 540
    Spherical Harmonics?: true
    Max angular momentum: 4

  Cached 100.0% of DFT collocation blocks in 6.013 [GiB].

  Minimum eigenvalue in the overlap matrix is 2.2131149947E-03.
  Reciprocal condition number of the overlap matrix is 3.8752074402E-04.
    Using symmetric orthogonalization.

  ==> Pre-Iterations <==

  SCF Guess: Superposition of Atomic Densities via on-the-fly atomic UHF (no occupation information).

   -------------------------
    Irrep   Nso     Nmo    
   -------------------------
     A'        98      98 
     A"        78      78 
   -------------------------
    Total     176     176
   -------------------------

  ==> Iterations <==

                           Total Energy        Delta E     RMS |[F,P]|

   @DF-RKS iter SAD:  -173.87572171024607   -1.73876e+02   0.00000e+00 
   @DF-RKS iter   1:  -174.14735060715054   -2.71629e-01   6.32270e-03 DIIS
   @DF-RKS iter   2:  -173.91808365661277    2.29267e-01   8.16506e-03 DIIS
   @DF-RKS iter   3:  -174.47945137305305   -5.61368e-01   1.23768e-03 DIIS
   @DF-RKS iter   4:  -174.48859791405116   -9.14654e-03   3.79095e-04 DIIS
   @DF-RKS iter   5:  -174.48951903576517   -9.21122e-04   5.81118e-05 DIIS
   @DF-RKS iter   6:  -174.48954213994551   -2.31042e-05   9.02380e-06 DIIS
   @DF-RKS iter   7:  -174.48954284835105   -7.08406e-07   2.36249e-06 DIIS
   @DF-RKS iter   8:  -174.48954289817519   -4.98241e-08   7.45852e-08 DIIS
   @DF-RKS iter   9:  -174.48954289823482   -5.96287e-11   9.37019e-09 DIIS
   @DF-RKS iter  10:  -174.48954289823595   -1.13687e-12   1.19433e-09 DIIS
   @DF-RKS iter  11:  -174.48954289823621   -2.55795e-13   1.18435e-10 DIIS
   @DF-RKS iter  12:  -174.48954289823590    3.12639e-13   2.17379e-11 DIIS
  Energy and wave function converged.


  ==> Post-Iterations <==

    Orbital Energies [Eh]
    ---------------------

    Doubly Occupied:                                                      

       1Ap   -14.317702     1App  -10.190839     2Ap   -10.190839  
       3Ap   -10.190793     4Ap    -0.915680     2App   -0.699135  
       5Ap    -0.699135     6Ap    -0.587367     7Ap    -0.462508  
       8Ap    -0.460595     3App   -0.460595     4App   -0.389174  
       9Ap    -0.389174     5App   -0.364784    10Ap    -0.354042  
       6App   -0.354042    11Ap    -0.213403  

    Virtual:                                                              

      12Ap     0.074060     7App    0.134204    13Ap     0.134204  
      14Ap     0.140857     8App    0.146222    15Ap     0.146222  
      16Ap     0.164198     9App    0.187355    17Ap     0.187355  
      10App    0.215834    11App    0.240206    18Ap     0.240206  
      19Ap     0.404949    12App    0.409389    20Ap     0.409389  
      13App    0.434403    21Ap     0.434403    22Ap     0.479408  
      14App    0.494403    23Ap     0.494403    24Ap     0.524797  
      15App    0.537847    25Ap     0.592540    16App    0.592540  
      26Ap     0.611681    17App    0.614987    27Ap     0.614987  
      18App    0.617306    28Ap     0.617306    19App    0.630396  
      29Ap     0.636732    30Ap     0.681110    20App    0.681110  
      21App    0.728218    31Ap     0.728218    32Ap     0.785718  
      33Ap     0.824709    22App    0.824709    23App    0.887588  
      24App    0.962892    34Ap     0.962892    25App    0.981150  
      35Ap     0.998738    26App    1.027495    36Ap     1.027495  
      37Ap     1.067075    27App    1.121533    38Ap     1.121533  
      39Ap     1.126279    28App    1.224033    40Ap     1.224034  
      41Ap     1.224889    42Ap     1.296127    29App    1.296127  
      43Ap     1.330504    30App    1.347261    44Ap     1.347261  
      45Ap     1.363555    31App    1.401288    46Ap     1.401288  
      32App    1.437322    33App    1.437890    47Ap     1.437890  
      34App    1.450948    35App    1.481796    48Ap     1.481796  
      36App    1.514867    49Ap     1.658766    50Ap     1.668233  
      37App    1.668233    51Ap     1.739811    38App    1.758923  
      52Ap     1.758923    53Ap     1.810998    39App    1.821583  
      54Ap     1.821583    55Ap     1.867038    40App    1.867038  
      56Ap     1.966988    41App    2.024062    57Ap     2.024062  
      42App    2.069833    43App    2.197353    58Ap     2.197353  
      59Ap     2.860880    44App    2.860880    60Ap     2.891298  
      61Ap     2.927015    45App    2.927015    46App    2.963219  
      47App    2.979059    48App    2.985030    62Ap     2.985030  
      49App    3.023370    63Ap     3.023370    64Ap     3.043098  
      50App    3.097008    65Ap     3.097008    66Ap     3.153012  
      51App    3.186606    67Ap     3.234428    68Ap     3.324863  
      52App    3.324863    69Ap     3.367369    70Ap     3.374359  
      53App    3.374359    54App    3.446613    71Ap     3.446613  
      55App    3.520200    56App    3.559869    72Ap     3.559869  
      73Ap     3.651541    57App    3.651541    58App    3.663328  
      74Ap     3.760990    59App    3.784971    75Ap     3.784971  
      76Ap     3.790950    77Ap     3.806668    60App    3.806668  
      78Ap     3.975634    79Ap     4.081894    80Ap     4.121706  
      61App    4.121706    62App    4.168011    81Ap     4.168011  
      63App    4.229130    64App    4.237571    82Ap     4.237571  
      65App    4.333358    83Ap     4.333359    84Ap     4.356554  
      66App    4.393818    85Ap     4.393818    67App    4.435947  
      68App    4.471166    86Ap     4.471166    87Ap     4.486397  
      69App    4.543473    88Ap     4.763592    70App    4.763592  
      89Ap     4.782906    71App    4.975180    90Ap     4.975180  
      72App    4.994702    91Ap     4.994702    73App    5.097564  
      92Ap     5.143197    93Ap     5.245613    94Ap     5.246057  
      74App    5.246057    95Ap     5.299711    75App    5.299711  
      76App    5.460140    96Ap     5.460141    97Ap     5.517653  
      77App    5.558645    98Ap     5.838915    78App    5.838915  

    Final Occupation by Irrep:
             Ap   App 
    DOCC [    11,    6 ]

  @DF-RKS Final Energy:  -174.48954289823590

   => Energetics <=

    Nuclear Repulsion Energy =            138.8848364763799168
    One-Electron Energy =                -508.7920930038619645
    Two-Electron Energy =                 216.9480713580330473
    DFT Exchange-Correlation Energy =     -21.5303577287869068
    Empirical Dispersion Energy =           0.0000000000000000
    VV10 Nonlocal Energy =                  0.0000000000000000
    Total Energy =                       -174.4895428982358965

Computation Completed


Properties will be evaluated at   0.000000,   0.000000,   0.000000 [a0]

Properties computed using the SCF density matrix

  Nuclear Dipole Moment: [e a0]
     X:     1.7863      Y:    -0.0000      Z:    -0.0000

  Electronic Dipole Moment: [e a0]
     X:    -1.5623      Y:    -0.0000      Z:     0.0000

  Dipole Moment: [e a0]
     X:     0.2240      Y:    -0.0000      Z:    -0.0000     Total:     0.2240

  Dipole Moment: [D]
     X:     0.5694      Y:    -0.0000      Z:    -0.0000     Total:     0.5694


*** tstop() called on n062 at Mon Mar 14 17:35:02 2022
Module time:
	user time   =     111.93 seconds =       1.87 minutes
	system time =       1.71 seconds =       0.03 minutes
	total time  =         29 seconds =       0.48 minutes
Total time:
	user time   =     111.93 seconds =       1.87 minutes
	system time =       1.71 seconds =       0.03 minutes
	total time  =         29 seconds =       0.48 minutes
Grab this energy -174.4895428982359
    Psi4 stopped on: Monday, 14 March 2022 05:35PM
    Psi4 wall time for execution: 0:00:29.07

*** Psi4 exiting successfully. Buy a developer a beer!
