
    -----------------------------------------------------------------------
          Psi4: An Open-Source Ab Initio Electronic Structure Package
                               Psi4 1.4a2.dev629 

                         Git: Rev {master} 2938fc2 dirty


    D. G. A. Smith, L. A. Burns, A. C. Simmonett, R. M. Parrish,
    M. C. Schieber, R. Galvelis, P. Kraus, H. Kruse, R. Di Remigio,
    A. Alenaizan, A. M. James, S. Lehtola, J. P. Misiewicz, M. Scheurer,
    R. A. Shaw, J. B. Schriber, Y. Xie, Z. L. Glick, D. A. Sirianni,
    J. S. O'Brien, J. M. Waldrop, A. Kumar, E. G. Hohenstein,
    B. P. Pritchard, B. R. Brooks, H. F. Schaefer III, A. Yu. Sokolov,
    K. Patkowski, A. E. DePrince III, U. Bozkaya, R. A. King,
    F. A. Evangelista, J. M. Turney, T. D. Crawford, C. D. Sherrill,
    J. Chem. Phys. 152(18) 184108 (2020). https://doi.org/10.1063/5.0006002

                            Additional Code Authors
    E. T. Seidl, C. L. Janssen, E. F. Valeev, M. L. Leininger,
    J. F. Gonthier, R. M. Richard, H. R. McAlexander, M. Saitow, X. Wang,
    P. Verma, and M. H. Lechner

             Previous Authors, Complete List of Code Contributors,
                       and Citations for Specific Modules
    https://github.com/psi4/psi4/blob/master/codemeta.json
    https://github.com/psi4/psi4/graphs/contributors
    http://psicode.org/psi4manual/master/introduction.html#citing-psifour

    -----------------------------------------------------------------------


    Psi4 started on: Friday, 12 November 2021 12:29PM

    Process ID: 23364
    Host:       n035
    PSIDATADIR: /opt/psi/4/master/share/psi4
    Memory:     500.0 MiB
    Threads:    4
    
  ==> Input File <==

--------------------------------------------------------------------------
import os
memory 14 GB 
 
molecule {
 N   -0.7149181580    0.0034676622   -0.0000000000
 C    0.1788058173   -1.3036861173   -2.2485514693
 C    0.1775137594    2.6093803159    0.0000000000
 C    0.1788058174   -1.3036861172    2.2485514692
 H    2.2589484098   -1.3694324850   -2.3536020184
 H   -0.5233119645   -0.3464801453   -3.9373133987
 H   -0.5307994042   -3.2431668240   -2.2535481653
 H    2.2573673397    2.7366650283    0.0000000001
 H   -0.5297626740    3.5880090632    1.6756942596
 H   -0.5297626740    3.5880090633   -1.6756942595
 H    2.2589484098   -1.3694324849    2.3536020184
 H   -0.5307994041   -3.2431668239    2.2535481653
 H   -0.5233119645   -0.3464801452    3.9373133986
units bohr
}

basis {

assign 6-31g_2dfp_

[ 6-31g_2dfp_ ]

spherical

!----------------------------------------------------------------------
! Basis Set Exchange
! Version v0.8.13
! https://www.basissetexchange.org
!----------------------------------------------------------------------
!   Basis set: 6-31G(2df,p)
! Description: 6-31G(2df,p)
!        Role: orbital
!     Version: 0  (Data from the original Basis Set Exchange)
!----------------------------------------------------------------------


****
H     0
S    3   1.00
     18.7311370              0.03349460
      2.8253937              0.23472695
      0.6401217              0.81375733
S    1   1.00
      0.1612778              1.00000000
P    1   1.00
      1.5000000              1.0000000
P    1   1.00
      0.3750000              1.0000000
****
B     0
S    6   1.00
   2068.8823000              0.0018663
    310.6495700              0.0142515
     70.6830330              0.0695516
     19.8610800              0.2325729
      6.2993048              0.4670787
      2.1270270              0.3634314
SP   3   1.00
      4.7279710             -0.1303938              0.0745976
      1.1903377             -0.1307889              0.3078467
      0.3594117              1.1309444              0.7434568
SP   1   1.00
      0.1267512              1.0000000              1.0000000
D    1   1.00
      0.8020000              1.0000000
D    1   1.00
      0.2005000              1.0000000
F    1   1.00
      0.5000000              1.0000000
****
C     0
S    6   1.00
   3047.5249000              0.0018347
    457.3695100              0.0140373
    103.9486900              0.0688426
     29.2101550              0.2321844
      9.2866630              0.4679413
      3.1639270              0.3623120
SP   3   1.00
      7.8682724             -0.1193324              0.0689991
      1.8812885             -0.1608542              0.3164240
      0.5442493              1.1434564              0.7443083
SP   1   1.00
      0.1687144              1.0000000              1.0000000
D    1   1.00
      1.2520000              1.0000000
D    1   1.00
      0.3130000              1.0000000
F    1   1.00
      0.8000000              1.0000000
****
N     0
S    6   1.00
   4173.5110000              0.0018348
    627.4579000              0.0139950
    142.9021000              0.0685870
     40.2343300              0.2322410
     12.8202100              0.4690700
      4.3904370              0.3604550
SP   3   1.00
     11.6263580             -0.1149610              0.0675800
      2.7162800             -0.1691180              0.3239070
      0.7722180              1.1458520              0.7408950
SP   1   1.00
      0.2120313              1.0000000              1.0000000
D    1   1.00
      1.8260000              1.0000000
D    1   1.00
      0.4565000              1.0000000
F    1   1.00
      1.0000000              1.0000000
****
O     0
S    6   1.00
   5484.6717000              0.0018311
    825.2349500              0.0139501
    188.0469600              0.0684451
     52.9645000              0.2327143
     16.8975700              0.4701930
      5.7996353              0.3585209
SP   3   1.00
     15.5396160             -0.1107775              0.0708743
      3.5999336             -0.1480263              0.3397528
      1.0137618              1.1307670              0.7271586
SP   1   1.00
      0.2700058              1.0000000              1.0000000
D    1   1.00
      2.5840000              1.0000000
D    1   1.00
      0.6460000              1.0000000
F    1   1.00
      1.4000000              1.0000000
****
F     0
S    6   1.00
   7001.7130900              0.0018196169
   1051.3660900              0.0139160796
    239.2856900              0.0684053245
     67.3974453              0.233185760
     21.5199573              0.471267439
      7.40310130             0.356618546
SP   3   1.00
     20.8479528             -0.108506975            0.0716287243
      4.80830834            -0.146451658            0.3459121030
      1.34406986             1.128688580            0.7224699570
SP   1   1.00
      0.358151393            1.0000000              1.0000000
D    1   1.00
      3.5000000              1.0000000
D    1   1.00
      0.8750000              1.0000000
F    1   1.00
      1.8500000              1.0000000
****
Al     0
S    6   1.00
  13983.1000000              0.00194267
   2098.7500000              0.0148599
    477.7050000              0.0728494
    134.3600000              0.2468300
     42.8709000              0.4872580
     14.5189000              0.3234960
SP   6   1.00
    239.6680000             -0.00292619             0.00460285
     57.4419000             -0.0374080              0.0331990
     18.2859000             -0.1144870              0.1362820
      6.5991400              0.1156350              0.3304760
      2.4904900              0.6125950              0.4491460
      0.9445400              0.3937990              0.2657040
SP   3   1.00
      1.2779000             -0.2276060             -0.0175130
      0.3975900              0.00144583             0.2445330
      0.1600950              1.0927900              0.8049340
SP   1   1.00
      0.0556577              1.0000000              1.0000000
D    1   1.00
      0.6500000              1.0000000
D    1   1.00
      0.1625000              1.0000000
F    1   1.00
      0.2500000              1.0000000
****
Si     0
S    6   1.00
  16115.9000000              0.00195948
   2425.5800000              0.01492880
    553.8670000              0.07284780
    156.3400000              0.24613000
     50.0683000              0.48591400
     17.0178000              0.32500200
SP   6   1.00
    292.7180000             -0.00278094             0.00443826
     69.8731000             -0.03571460             0.03266790
     22.3363000             -0.11498500             0.13472100
      8.1503900              0.09356340             0.32867800
      3.1345800              0.60301700             0.44964000
      1.2254300              0.41895900             0.26137200
SP   3   1.00
      1.7273800             -0.24463000            -0.01779510
      0.5729220              0.00431572             0.25353900
      0.2221920              1.09818000             0.80066900
SP   1   1.00
      0.0778369              1.00000000             1.00000000
D    1   1.00
      0.9000000              1.0000000
D    1   1.00
      0.2250000              1.0000000
F    1   1.00
      0.3200000              1.0000000
****
P     0
S    6   1.00
  19413.3000000              0.0018516
   2909.4200000              0.0142062
    661.3640000              0.0699995
    185.7590000              0.2400790
     59.1943000              0.4847620
     20.0310000              0.3352000
SP   6   1.00
    339.4780000             -0.00278217             0.00456462
     81.0101000             -0.0360499              0.03369360
     25.8780000             -0.1166310              0.13975500
      9.4522100              0.0968328              0.33936200
      3.6656600              0.6144180              0.45092100
      1.4674600              0.4037980              0.23858600
SP   3   1.00
      2.1562300             -0.2529230             -0.01776530
      0.7489970              0.0328517              0.27405800
      0.2831450              1.0812500              0.78542100
SP   1   1.00
      0.0998317              1.0000000              1.00000000
D    1   1.00
      1.1000000              1.0000000
D    1   1.00
      0.2750000              1.0000000
F    1   1.00
      0.4500000              1.0000000
****
S     0
S    6   1.00
  21917.1000000              0.0018690
   3301.4900000              0.0142300
    754.1460000              0.0696960
    212.7110000              0.2384870
     67.9896000              0.4833070
     23.0515000              0.3380740
SP   6   1.00
    423.7350000             -0.0023767              0.0040610
    100.7100000             -0.0316930              0.0306810
     32.1599000             -0.1133170              0.1304520
     11.8079000              0.0560900              0.3272050
      4.6311000              0.5922550              0.4528510
      1.8702500              0.4550060              0.2560420
SP   3   1.00
      2.6158400             -0.2503740             -0.0145110
      0.9221670              0.0669570              0.3102630
      0.3412870              1.0545100              0.7544830
SP   1   1.00
      0.1171670              1.0000000              1.0000000
D    1   1.00
      1.3000000              1.0000000
D    1   1.00
      0.3250000              1.0000000
F    1   1.00
      0.5500000              1.0000000
****
Cl     0
S    6   1.00
  25180.1000000              0.0018330
   3780.3500000              0.0140340
    860.4740000              0.0690970
    242.1450000              0.2374520
     77.3349000              0.4830340
     26.2470000              0.3398560
SP   6   1.00
    491.7650000             -0.0022974              0.0039894
    116.9840000             -0.0307140              0.0303180
     37.4153000             -0.1125280              0.1298800
     13.7834000              0.0450160              0.3279510
      5.4521500              0.5893530              0.4535270
      2.2258800              0.4652060              0.2521540
SP   3   1.00
      3.1864900             -0.2518300             -0.0142990
      1.1442700              0.0615890              0.3235720
      0.4203770              1.0601800              0.7435070
SP   1   1.00
      0.1426570              1.0000000              1.0000000
D    1   1.00
      1.5000000              1.0000000
D    1   1.00
      0.3750000              1.0000000
F    1   1.00
      0.7000000              1.0000000
****
}


set {
reference rhf                          
freeze_core true
e_convergence 10                       
d_convergence 10                      
dft_spherical_points 1202
dft_radial_points 99
}

e = energy('b3lyp')

print_out('Grab this energy {0}'.format(e))
--------------------------------------------------------------------------

  Memory set to  13.039 GiB by Python driver.

Scratch directory: /tmp/

*** tstart() called on n035
*** at Fri Nov 12 12:29:03 2021

   => Loading Basis Set <=

    Name: ANONYMOUSFC432909
    Role: ORBITAL
    Keyword: BASIS
    atoms 1    entry N          line    69 inputblock 6-31g_2dfp_ 
    atoms 2-4  entry C          line    48 inputblock 6-31g_2dfp_ 
    atoms 5-13 entry H          line    15 inputblock 6-31g_2dfp_ 


         ---------------------------------------------------------
                                   SCF
               by Justin Turney, Rob Parrish, Andy Simmonett
                          and Daniel G. A. Smith
                              RKS Reference
                        4 Threads,  13351 MiB Core
         ---------------------------------------------------------

  ==> Geometry <==

    Molecular point group: cs
    Full point group: Cs

    Geometry (in Bohr), charge = 0, multiplicity = 1:

       Center              X                  Y                   Z               Mass       
    ------------   -----------------  -----------------  -----------------  -----------------
         N           -0.715700198335     0.002331174493     0.000000000000    14.003074004430
         C            0.178023777015    -1.304822604957    -2.248551469250    12.000000000000
         C            0.176731719065     2.608243828193     0.000000000000    12.000000000000
         C            0.178023777015    -1.304822604957     2.248551469250    12.000000000000
         H            2.258166369465    -1.370568972657    -2.353602018400     1.007825032230
         H           -0.524094004835    -0.347616632957    -3.937313398650     1.007825032230
         H           -0.531581444485    -3.244303311657    -2.253548165300     1.007825032230
         H            2.256585299365     2.735528540593     0.000000000000     1.007825032230
         H           -0.530544714335     3.586872575543     1.675694259550     1.007825032230
         H           -0.530544714335     3.586872575543    -1.675694259550     1.007825032230
         H            2.258166369465    -1.370568972657     2.353602018400     1.007825032230
         H           -0.531581444485    -3.244303311657     2.253548165300     1.007825032230
         H           -0.524094004835    -0.347616632957     3.937313398650     1.007825032230

  Running in cs symmetry.

  Rotational constants: A =      0.29357  B =      0.29135  C =      0.16682 [cm^-1]
  Rotational constants: A =   8800.94759  B =   8734.33888  C =   5001.08771 [MHz]
  Nuclear repulsion =  138.847666217781352

  Charge       = 0
  Multiplicity = 1
  Electrons    = 34
  Nalpha       = 17
  Nbeta        = 17

  ==> Algorithm <==

  SCF Algorithm Type is DF.
  DIIS enabled.
  MOM disabled.
  Fractional occupation disabled.
  Guess Type is SAD.
  Energy threshold   = 1.00e-10
  Density threshold  = 1.00e-10
  Integral threshold = 0.00e+00

  ==> Primary Basis <==

  Basis Set: ANONYMOUSFC432909
    Blend: 6-31G_2DFP_
    Number of shells: 68
    Number of basis function: 176
    Number of Cartesian functions: 196
    Spherical Harmonics?: true
    Max angular momentum: 3

  ==> DFT Potential <==

   => Composite Functional: B3LYP <= 

    B3LYP Hyb-GGA Exchange-Correlation Functional

    P. J. Stephens, F. J. Devlin, C. F. Chabalowski, and M. J. Frisch, J. Phys. Chem. 98, 11623 (1994)

    Deriv               =              1
    GGA                 =           TRUE
    Meta                =          FALSE

    Exchange Hybrid     =           TRUE
    MP2 Hybrid          =          FALSE

   => Exchange Functionals <=

    0.0800   Slater exchange
    0.7200         Becke 88

   => Exact (HF) Exchange <=

    0.2000               HF 

   => Correlation Functionals <=

    0.1900   Vosko, Wilk & Nusair (VWN5_RPA)
    0.8100   Lee, Yang & Parr

   => Molecular Quadrature <=

    Radial Scheme          =       TREUTLER
    Pruning Scheme         =           NONE
    Nuclear Scheme         =       TREUTLER

    BS radius alpha        =              1
    Pruning alpha          =              1
    Radial Points          =             99
    Spherical Points       =           1202
    Total Points           =        1438282
    Total Blocks           =           9540
    Max Points             =            256
    Max Functions          =            176
    Weights Tolerance      =       1.00E-15

   => Loading Basis Set <=

    Name: (ANONYMOUSFC432909 AUX)
    Role: JKFIT
    Keyword: DF_BASIS_SCF
    atoms 1    entry N          line   258 file /opt/psi/4/master/share/psi4/basis/def2-universal-jkfit.gbs 
    atoms 2-4  entry C          line   198 file /opt/psi/4/master/share/psi4/basis/def2-universal-jkfit.gbs 
    atoms 5-13 entry H          line    18 file /opt/psi/4/master/share/psi4/basis/def2-universal-jkfit.gbs 

  ==> Integral Setup <==

  DFHelper Memory: AOs need 0.115 GiB; user supplied 3.765 GiB. Using in-core AOs.

  ==> MemDFJK: Density-Fitted J/K Matrices <==

    J tasked:                   Yes
    K tasked:                   Yes
    wK tasked:                   No
    OpenMP threads:               4
    Memory [MiB]:              3855
    Algorithm:                 Core
    Schwarz Cutoff:           1E-12
    Mask sparsity (%):       1.0589
    Fitting Condition:        1E-10

   => Auxiliary Basis Set <=

  Basis Set: (ANONYMOUSFC432909 AUX)
    Blend: DEF2-UNIVERSAL-JKFIT
    Number of shells: 154
    Number of basis function: 464
    Number of Cartesian functions: 540
    Spherical Harmonics?: true
    Max angular momentum: 4

  Cached 100.0% of DFT collocation blocks in 6.014 [GiB].

  Minimum eigenvalue in the overlap matrix is 2.2070157641E-03.
  Reciprocal condition number of the overlap matrix is 3.8692340749E-04.
    Using symmetric orthogonalization.

  ==> Pre-Iterations <==

  SCF Guess: Superposition of Atomic Densities via on-the-fly atomic UHF (no occupation information).

   -------------------------
    Irrep   Nso     Nmo    
   -------------------------
     A'        98      98 
     A"        78      78 
   -------------------------
    Total     176     176
   -------------------------

  ==> Iterations <==

                           Total Energy        Delta E     RMS |[F,P]|

   @DF-RKS iter SAD:  -173.87251532573237   -1.73873e+02   0.00000e+00 
   @DF-RKS iter   1:  -174.14768190756052   -2.75167e-01   6.31845e-03 DIIS
   @DF-RKS iter   2:  -173.91506829088513    2.32614e-01   8.18511e-03 DIIS
   @DF-RKS iter   3:  -174.47948931741792   -5.64421e-01   1.23780e-03 DIIS
   @DF-RKS iter   4:  -174.48863065761816   -9.14134e-03   3.80268e-04 DIIS
   @DF-RKS iter   5:  -174.48955809864307   -9.27441e-04   5.81296e-05 DIIS
   @DF-RKS iter   6:  -174.48958124079633   -2.31422e-05   9.02551e-06 DIIS
   @DF-RKS iter   7:  -174.48958195012528   -7.09329e-07   2.36912e-06 DIIS
   @DF-RKS iter   8:  -174.48958200028463   -5.01593e-08   7.96427e-08 DIIS
   @DF-RKS iter   9:  -174.48958200034212   -5.74971e-11   3.39373e-08 DIIS
   @DF-RKS iter  10:  -174.48958200034929   -7.16227e-12   1.76994e-08 DIIS
   @DF-RKS iter  11:  -174.48958200035156   -2.27374e-12   7.65413e-10 DIIS
   @DF-RKS iter  12:  -174.48958200035148    8.52651e-14   1.15251e-10 DIIS
   @DF-RKS iter  13:  -174.48958200035156   -8.52651e-14   3.72442e-11 DIIS
  Energy and wave function converged.


  ==> Post-Iterations <==

    Orbital Energies [Eh]
    ---------------------

    Doubly Occupied:                                                      

       1Ap   -14.317895     2Ap   -10.191670     1App  -10.191247  
       3Ap   -10.191215     4Ap    -0.915962     5Ap    -0.699112  
       2App   -0.698568     6Ap    -0.586961     7Ap    -0.462436  
       8Ap    -0.460760     3App   -0.460208     9Ap    -0.389141  
       4App   -0.388661     5App   -0.364466    10Ap    -0.354225  
       6App   -0.353730    11Ap    -0.213570  

    Virtual:                                                              

      12Ap     0.073741    13Ap     0.133578     7App    0.134061  
      14Ap     0.140511    15Ap     0.145704     8App    0.146023  
      16Ap     0.164263    17Ap     0.186517     9App    0.187150  
      10App    0.215416    18Ap     0.239955    11App    0.240352  
      19Ap     0.404588    12App    0.409230    20Ap     0.409627  
      21Ap     0.434021    13App    0.434324    22Ap     0.479242  
      23Ap     0.493591    14App    0.494833    24Ap     0.524665  
      15App    0.537582    25Ap     0.591845    16App    0.592078  
      26Ap     0.611084    27Ap     0.614149    17App    0.614430  
      18App    0.616506    28Ap     0.616576    19App    0.629761  
      29Ap     0.635822    30Ap     0.680451    20App    0.681174  
      31Ap     0.727493    21App    0.728322    32Ap     0.785424  
      33Ap     0.823246    22App    0.824565    23App    0.887029  
      34Ap     0.961591    24App    0.963049    25App    0.980489  
      35Ap     0.997982    26App    1.026379    36Ap     1.027272  
      37Ap     1.066690    38Ap     1.121397    27App    1.121425  
      39Ap     1.125825    40Ap     1.222106    41Ap     1.224377  
      28App    1.224945    42Ap     1.295119    29App    1.296408  
      43Ap     1.329641    30App    1.346094    44Ap     1.346344  
      45Ap     1.363425    46Ap     1.399213    31App    1.402079  
      32App    1.436012    47Ap     1.436541    33App    1.437394  
      34App    1.450167    48Ap     1.480095    35App    1.480985  
      36App    1.514517    49Ap     1.657334    50Ap     1.666963  
      37App    1.668964    51Ap     1.737430    38App    1.757256  
      52Ap     1.759105    53Ap     1.809564    54Ap     1.818701  
      39App    1.819789    55Ap     1.864731    40App    1.867293  
      56Ap     1.966192    57Ap     2.020960    41App    2.024544  
      42App    2.068095    58Ap     2.194752    43App    2.198951  
      59Ap     2.859129    44App    2.860295    60Ap     2.889870  
      61Ap     2.925887    45App    2.926685    46App    2.962625  
      47App    2.978523    62Ap     2.984372    48App    2.985158  
      63Ap     3.021878    49App    3.023808    64Ap     3.043371  
      65Ap     3.094857    50App    3.097283    66Ap     3.153927  
      51App    3.186169    67Ap     3.235016    68Ap     3.324863  
      52App    3.325648    69Ap     3.366798    70Ap     3.374292  
      53App    3.375907    71Ap     3.447248    54App    3.448561  
      55App    3.520469    72Ap     3.559301    56App    3.561238  
      57App    3.651425    73Ap     3.652792    58App    3.664798  
      74Ap     3.760190    75Ap     3.782245    59App    3.783064  
      76Ap     3.789690    60App    3.804683    77Ap     3.805972  
      78Ap     3.974179    79Ap     4.078048    80Ap     4.117672  
      61App    4.119249    81Ap     4.164941    62App    4.166289  
      63App    4.225832    82Ap     4.232691    64App    4.235813  
      83Ap     4.330498    65App    4.334617    84Ap     4.354110  
      85Ap     4.390476    66App    4.391738    67App    4.433401  
      86Ap     4.467866    68App    4.470113    87Ap     4.485956  
      69App    4.541403    70App    4.761513    88Ap     4.762048  
      89Ap     4.781015    90Ap     4.972325    71App    4.974119  
      91Ap     4.992519    72App    4.993160    73App    5.094091  
      92Ap     5.141805    93Ap     5.240913    74App    5.242888  
      94Ap     5.243227    75App    5.295737    95Ap     5.298665  
      76App    5.456692    96Ap     5.457611    97Ap     5.517161  
      77App    5.556814    98Ap     5.836532    78App    5.841665  

    Final Occupation by Irrep:
             Ap   App 
    DOCC [    11,    6 ]

  @DF-RKS Final Energy:  -174.48958200035156

   => Energetics <=

    Nuclear Repulsion Energy =            138.8476662177813523
    One-Electron Energy =                -508.7206208021565317
    Two-Electron Energy =                 216.9096912203131069
    DFT Exchange-Correlation Energy =     -21.5263186362894885
    Empirical Dispersion Energy =           0.0000000000000000
    VV10 Nonlocal Energy =                  0.0000000000000000
    Total Energy =                       -174.4895820003515610

Computation Completed


Properties will be evaluated at   0.000000,   0.000000,   0.000000 [a0]

Properties computed using the SCF density matrix

  Nuclear Dipole Moment: [e a0]
     X:     1.7873      Y:    -0.0078      Z:     0.0000

  Electronic Dipole Moment: [e a0]
     X:    -1.5651      Y:     0.0095      Z:     0.0000

  Dipole Moment: [e a0]
     X:     0.2221      Y:     0.0017      Z:     0.0000     Total:     0.2221

  Dipole Moment: [D]
     X:     0.5645      Y:     0.0043      Z:     0.0000     Total:     0.5645


*** tstop() called on n035 at Fri Nov 12 12:29:42 2021
Module time:
	user time   =     150.95 seconds =       2.52 minutes
	system time =       1.46 seconds =       0.02 minutes
	total time  =         39 seconds =       0.65 minutes
Total time:
	user time   =     150.95 seconds =       2.52 minutes
	system time =       1.46 seconds =       0.02 minutes
	total time  =         39 seconds =       0.65 minutes
Grab this energy -174.48958200035156
    Psi4 stopped on: Friday, 12 November 2021 12:29PM
    Psi4 wall time for execution: 0:00:39.06

*** Psi4 exiting successfully. Buy a developer a beer!
