
    -----------------------------------------------------------------------
          Psi4: An Open-Source Ab Initio Electronic Structure Package
                               Psi4 1.4a2.dev629 

                         Git: Rev {master} 2938fc2 dirty


    D. G. A. Smith, L. A. Burns, A. C. Simmonett, R. M. Parrish,
    M. C. Schieber, R. Galvelis, P. Kraus, H. Kruse, R. Di Remigio,
    A. Alenaizan, A. M. James, S. Lehtola, J. P. Misiewicz, M. Scheurer,
    R. A. Shaw, J. B. Schriber, Y. Xie, Z. L. Glick, D. A. Sirianni,
    J. S. O'Brien, J. M. Waldrop, A. Kumar, E. G. Hohenstein,
    B. P. Pritchard, B. R. Brooks, H. F. Schaefer III, A. Yu. Sokolov,
    K. Patkowski, A. E. DePrince III, U. Bozkaya, R. A. King,
    F. A. Evangelista, J. M. Turney, T. D. Crawford, C. D. Sherrill,
    J. Chem. Phys. 152(18) 184108 (2020). https://doi.org/10.1063/5.0006002

                            Additional Code Authors
    E. T. Seidl, C. L. Janssen, E. F. Valeev, M. L. Leininger,
    J. F. Gonthier, R. M. Richard, H. R. McAlexander, M. Saitow, X. Wang,
    P. Verma, and M. H. Lechner

             Previous Authors, Complete List of Code Contributors,
                       and Citations for Specific Modules
    https://github.com/psi4/psi4/blob/master/codemeta.json
    https://github.com/psi4/psi4/graphs/contributors
    http://psicode.org/psi4manual/master/introduction.html#citing-psifour

    -----------------------------------------------------------------------


    Psi4 started on: Friday, 12 November 2021 11:38AM

    Process ID: 17456
    Host:       n090
    PSIDATADIR: /opt/psi/4/master/share/psi4
    Memory:     500.0 MiB
    Threads:    4
    
  ==> Input File <==

--------------------------------------------------------------------------
import os
memory 14 GB 
 
molecule {
 N   -0.7159454761    0.0011246051   -0.0016469195
 C    0.1767234097   -1.3022853311   -2.2534512113
 C    0.1777981864    2.6024726187   -0.0009233687
 C    0.1776160435   -1.3035614700    2.2538176533
 H    2.2606874186   -1.3594094476   -2.3595554327
 H   -0.5286040210   -0.3443565120   -3.9406043834
 H   -0.5284760460   -3.2383473016   -2.2635093605
 H    2.2615726462    2.7275364463   -0.0037985133
 H   -0.5287020511    3.5758900978    1.6739563949
 H   -0.5293001149    3.5871082281   -1.6717630140
 H    2.2625697512   -1.3669360644    2.3649774726
 H   -0.5293496382   -3.2403918889    2.2670007792
 H   -0.5288667983   -0.3388439904    3.9354999034
units bohr
}

basis {

assign 6-31g_2dfp_

[ 6-31g_2dfp_ ]

spherical

!----------------------------------------------------------------------
! Basis Set Exchange
! Version v0.8.13
! https://www.basissetexchange.org
!----------------------------------------------------------------------
!   Basis set: 6-31G(2df,p)
! Description: 6-31G(2df,p)
!        Role: orbital
!     Version: 0  (Data from the original Basis Set Exchange)
!----------------------------------------------------------------------


****
H     0
S    3   1.00
     18.7311370              0.03349460
      2.8253937              0.23472695
      0.6401217              0.81375733
S    1   1.00
      0.1612778              1.00000000
P    1   1.00
      1.5000000              1.0000000
P    1   1.00
      0.3750000              1.0000000
****
B     0
S    6   1.00
   2068.8823000              0.0018663
    310.6495700              0.0142515
     70.6830330              0.0695516
     19.8610800              0.2325729
      6.2993048              0.4670787
      2.1270270              0.3634314
SP   3   1.00
      4.7279710             -0.1303938              0.0745976
      1.1903377             -0.1307889              0.3078467
      0.3594117              1.1309444              0.7434568
SP   1   1.00
      0.1267512              1.0000000              1.0000000
D    1   1.00
      0.8020000              1.0000000
D    1   1.00
      0.2005000              1.0000000
F    1   1.00
      0.5000000              1.0000000
****
C     0
S    6   1.00
   3047.5249000              0.0018347
    457.3695100              0.0140373
    103.9486900              0.0688426
     29.2101550              0.2321844
      9.2866630              0.4679413
      3.1639270              0.3623120
SP   3   1.00
      7.8682724             -0.1193324              0.0689991
      1.8812885             -0.1608542              0.3164240
      0.5442493              1.1434564              0.7443083
SP   1   1.00
      0.1687144              1.0000000              1.0000000
D    1   1.00
      1.2520000              1.0000000
D    1   1.00
      0.3130000              1.0000000
F    1   1.00
      0.8000000              1.0000000
****
N     0
S    6   1.00
   4173.5110000              0.0018348
    627.4579000              0.0139950
    142.9021000              0.0685870
     40.2343300              0.2322410
     12.8202100              0.4690700
      4.3904370              0.3604550
SP   3   1.00
     11.6263580             -0.1149610              0.0675800
      2.7162800             -0.1691180              0.3239070
      0.7722180              1.1458520              0.7408950
SP   1   1.00
      0.2120313              1.0000000              1.0000000
D    1   1.00
      1.8260000              1.0000000
D    1   1.00
      0.4565000              1.0000000
F    1   1.00
      1.0000000              1.0000000
****
O     0
S    6   1.00
   5484.6717000              0.0018311
    825.2349500              0.0139501
    188.0469600              0.0684451
     52.9645000              0.2327143
     16.8975700              0.4701930
      5.7996353              0.3585209
SP   3   1.00
     15.5396160             -0.1107775              0.0708743
      3.5999336             -0.1480263              0.3397528
      1.0137618              1.1307670              0.7271586
SP   1   1.00
      0.2700058              1.0000000              1.0000000
D    1   1.00
      2.5840000              1.0000000
D    1   1.00
      0.6460000              1.0000000
F    1   1.00
      1.4000000              1.0000000
****
F     0
S    6   1.00
   7001.7130900              0.0018196169
   1051.3660900              0.0139160796
    239.2856900              0.0684053245
     67.3974453              0.233185760
     21.5199573              0.471267439
      7.40310130             0.356618546
SP   3   1.00
     20.8479528             -0.108506975            0.0716287243
      4.80830834            -0.146451658            0.3459121030
      1.34406986             1.128688580            0.7224699570
SP   1   1.00
      0.358151393            1.0000000              1.0000000
D    1   1.00
      3.5000000              1.0000000
D    1   1.00
      0.8750000              1.0000000
F    1   1.00
      1.8500000              1.0000000
****
Al     0
S    6   1.00
  13983.1000000              0.00194267
   2098.7500000              0.0148599
    477.7050000              0.0728494
    134.3600000              0.2468300
     42.8709000              0.4872580
     14.5189000              0.3234960
SP   6   1.00
    239.6680000             -0.00292619             0.00460285
     57.4419000             -0.0374080              0.0331990
     18.2859000             -0.1144870              0.1362820
      6.5991400              0.1156350              0.3304760
      2.4904900              0.6125950              0.4491460
      0.9445400              0.3937990              0.2657040
SP   3   1.00
      1.2779000             -0.2276060             -0.0175130
      0.3975900              0.00144583             0.2445330
      0.1600950              1.0927900              0.8049340
SP   1   1.00
      0.0556577              1.0000000              1.0000000
D    1   1.00
      0.6500000              1.0000000
D    1   1.00
      0.1625000              1.0000000
F    1   1.00
      0.2500000              1.0000000
****
Si     0
S    6   1.00
  16115.9000000              0.00195948
   2425.5800000              0.01492880
    553.8670000              0.07284780
    156.3400000              0.24613000
     50.0683000              0.48591400
     17.0178000              0.32500200
SP   6   1.00
    292.7180000             -0.00278094             0.00443826
     69.8731000             -0.03571460             0.03266790
     22.3363000             -0.11498500             0.13472100
      8.1503900              0.09356340             0.32867800
      3.1345800              0.60301700             0.44964000
      1.2254300              0.41895900             0.26137200
SP   3   1.00
      1.7273800             -0.24463000            -0.01779510
      0.5729220              0.00431572             0.25353900
      0.2221920              1.09818000             0.80066900
SP   1   1.00
      0.0778369              1.00000000             1.00000000
D    1   1.00
      0.9000000              1.0000000
D    1   1.00
      0.2250000              1.0000000
F    1   1.00
      0.3200000              1.0000000
****
P     0
S    6   1.00
  19413.3000000              0.0018516
   2909.4200000              0.0142062
    661.3640000              0.0699995
    185.7590000              0.2400790
     59.1943000              0.4847620
     20.0310000              0.3352000
SP   6   1.00
    339.4780000             -0.00278217             0.00456462
     81.0101000             -0.0360499              0.03369360
     25.8780000             -0.1166310              0.13975500
      9.4522100              0.0968328              0.33936200
      3.6656600              0.6144180              0.45092100
      1.4674600              0.4037980              0.23858600
SP   3   1.00
      2.1562300             -0.2529230             -0.01776530
      0.7489970              0.0328517              0.27405800
      0.2831450              1.0812500              0.78542100
SP   1   1.00
      0.0998317              1.0000000              1.00000000
D    1   1.00
      1.1000000              1.0000000
D    1   1.00
      0.2750000              1.0000000
F    1   1.00
      0.4500000              1.0000000
****
S     0
S    6   1.00
  21917.1000000              0.0018690
   3301.4900000              0.0142300
    754.1460000              0.0696960
    212.7110000              0.2384870
     67.9896000              0.4833070
     23.0515000              0.3380740
SP   6   1.00
    423.7350000             -0.0023767              0.0040610
    100.7100000             -0.0316930              0.0306810
     32.1599000             -0.1133170              0.1304520
     11.8079000              0.0560900              0.3272050
      4.6311000              0.5922550              0.4528510
      1.8702500              0.4550060              0.2560420
SP   3   1.00
      2.6158400             -0.2503740             -0.0145110
      0.9221670              0.0669570              0.3102630
      0.3412870              1.0545100              0.7544830
SP   1   1.00
      0.1171670              1.0000000              1.0000000
D    1   1.00
      1.3000000              1.0000000
D    1   1.00
      0.3250000              1.0000000
F    1   1.00
      0.5500000              1.0000000
****
Cl     0
S    6   1.00
  25180.1000000              0.0018330
   3780.3500000              0.0140340
    860.4740000              0.0690970
    242.1450000              0.2374520
     77.3349000              0.4830340
     26.2470000              0.3398560
SP   6   1.00
    491.7650000             -0.0022974              0.0039894
    116.9840000             -0.0307140              0.0303180
     37.4153000             -0.1125280              0.1298800
     13.7834000              0.0450160              0.3279510
      5.4521500              0.5893530              0.4535270
      2.2258800              0.4652060              0.2521540
SP   3   1.00
      3.1864900             -0.2518300             -0.0142990
      1.1442700              0.0615890              0.3235720
      0.4203770              1.0601800              0.7435070
SP   1   1.00
      0.1426570              1.0000000              1.0000000
D    1   1.00
      1.5000000              1.0000000
D    1   1.00
      0.3750000              1.0000000
F    1   1.00
      0.7000000              1.0000000
****
}


set {
reference rhf                          
freeze_core true
e_convergence 10                       
d_convergence 10                      
dft_spherical_points 1202
dft_radial_points 99
}

e = energy('b3lyp')

print_out('Grab this energy {0}'.format(e))
--------------------------------------------------------------------------

  Memory set to  13.039 GiB by Python driver.

Scratch directory: /tmp/

*** tstart() called on n090
*** at Fri Nov 12 11:38:02 2021

   => Loading Basis Set <=

    Name: ANONYMOUSB009FB12
    Role: ORBITAL
    Keyword: BASIS
    atoms 1    entry N          line    69 inputblock 6-31g_2dfp_ 
    atoms 2-4  entry C          line    48 inputblock 6-31g_2dfp_ 
    atoms 5-13 entry H          line    15 inputblock 6-31g_2dfp_ 


         ---------------------------------------------------------
                                   SCF
               by Justin Turney, Rob Parrish, Andy Simmonett
                          and Daniel G. A. Smith
                              RKS Reference
                        4 Threads,  13351 MiB Core
         ---------------------------------------------------------

  ==> Geometry <==

    Molecular point group: c1
    Full point group: C1

    Geometry (in Bohr), charge = 0, multiplicity = 1:

       Center              X                  Y                   Z               Mass       
    ------------   -----------------  -----------------  -----------------  -----------------
         N           -0.715945572325     0.001505064873    -0.001180992054    14.003074004430
         C            0.176723313475    -1.301904871327    -2.252985283854    12.000000000000
         C            0.177798090175     2.602853078473    -0.000457441254    12.000000000000
         C            0.177615947275    -1.303181010227     2.254283580746    12.000000000000
         H            2.260687322375    -1.359028987827    -2.359089505254     1.007825032230
         H           -0.528604117225    -0.343976052227    -3.940138455954     1.007825032230
         H           -0.528476142225    -3.237966841827    -2.263043433054     1.007825032230
         H            2.261572549975     2.727916906073    -0.003332585854     1.007825032230
         H           -0.528702147325     3.576270557573     1.674422322346     1.007825032230
         H           -0.529300211125     3.587488687873    -1.671297086554     1.007825032230
         H            2.262569654975    -1.366555604627     2.365443400046     1.007825032230
         H           -0.529349734425    -3.240011429127     2.267466706646     1.007825032230
         H           -0.528866894525    -0.338463530627     3.935965830846     1.007825032230

  Running in c1 symmetry.

  Rotational constants: A =      0.29254  B =      0.29219  C =      0.16681 [cm^-1]
  Rotational constants: A =   8769.99097  B =   8759.48894  C =   5000.86648 [MHz]
  Nuclear repulsion =  138.836129071651754

  Charge       = 0
  Multiplicity = 1
  Electrons    = 34
  Nalpha       = 17
  Nbeta        = 17

  ==> Algorithm <==

  SCF Algorithm Type is DF.
  DIIS enabled.
  MOM disabled.
  Fractional occupation disabled.
  Guess Type is SAD.
  Energy threshold   = 1.00e-10
  Density threshold  = 1.00e-10
  Integral threshold = 0.00e+00

  ==> Primary Basis <==

  Basis Set: ANONYMOUSB009FB12
    Blend: 6-31G_2DFP_
    Number of shells: 68
    Number of basis function: 176
    Number of Cartesian functions: 196
    Spherical Harmonics?: true
    Max angular momentum: 3

  ==> DFT Potential <==

   => Composite Functional: B3LYP <= 

    B3LYP Hyb-GGA Exchange-Correlation Functional

    P. J. Stephens, F. J. Devlin, C. F. Chabalowski, and M. J. Frisch, J. Phys. Chem. 98, 11623 (1994)

    Deriv               =              1
    GGA                 =           TRUE
    Meta                =          FALSE

    Exchange Hybrid     =           TRUE
    MP2 Hybrid          =          FALSE

   => Exchange Functionals <=

    0.0800   Slater exchange
    0.7200         Becke 88

   => Exact (HF) Exchange <=

    0.2000               HF 

   => Correlation Functionals <=

    0.1900   Vosko, Wilk & Nusair (VWN5_RPA)
    0.8100   Lee, Yang & Parr

   => Molecular Quadrature <=

    Radial Scheme          =       TREUTLER
    Pruning Scheme         =           NONE
    Nuclear Scheme         =       TREUTLER

    BS radius alpha        =              1
    Pruning alpha          =              1
    Radial Points          =             99
    Spherical Points       =           1202
    Total Points           =        1438134
    Total Blocks           =           9562
    Max Points             =            256
    Max Functions          =            176
    Weights Tolerance      =       1.00E-15

   => Loading Basis Set <=

    Name: (ANONYMOUSB009FB12 AUX)
    Role: JKFIT
    Keyword: DF_BASIS_SCF
    atoms 1    entry N          line   258 file /opt/psi/4/master/share/psi4/basis/def2-universal-jkfit.gbs 
    atoms 2-4  entry C          line   198 file /opt/psi/4/master/share/psi4/basis/def2-universal-jkfit.gbs 
    atoms 5-13 entry H          line    18 file /opt/psi/4/master/share/psi4/basis/def2-universal-jkfit.gbs 

  ==> Integral Setup <==

  DFHelper Memory: AOs need 0.115 GiB; user supplied 3.768 GiB. Using in-core AOs.

  ==> MemDFJK: Density-Fitted J/K Matrices <==

    J tasked:                   Yes
    K tasked:                   Yes
    wK tasked:                   No
    OpenMP threads:               4
    Memory [MiB]:              3858
    Algorithm:                 Core
    Schwarz Cutoff:           1E-12
    Mask sparsity (%):       1.0589
    Fitting Condition:        1E-10

   => Auxiliary Basis Set <=

  Basis Set: (ANONYMOUSB009FB12 AUX)
    Blend: DEF2-UNIVERSAL-JKFIT
    Number of shells: 154
    Number of basis function: 464
    Number of Cartesian functions: 540
    Spherical Harmonics?: true
    Max angular momentum: 4

  Cached 100.0% of DFT collocation blocks in 6.011 [GiB].

  Minimum eigenvalue in the overlap matrix is 2.3753290208E-03.
  Reciprocal condition number of the overlap matrix is 3.8706818841E-04.
    Using symmetric orthogonalization.

  ==> Pre-Iterations <==

  SCF Guess: Superposition of Atomic Densities via on-the-fly atomic UHF (no occupation information).

   -------------------------
    Irrep   Nso     Nmo    
   -------------------------
     A        176     176 
   -------------------------
    Total     176     176
   -------------------------

  ==> Iterations <==

                           Total Energy        Delta E     RMS |[F,P]|

   @DF-RKS iter SAD:  -173.87170183140228   -1.73872e+02   0.00000e+00 
   @DF-RKS iter   1:  -174.14775436351749   -2.76053e-01   4.49602e-03 DIIS
   @DF-RKS iter   2:  -173.91500784626766    2.32747e-01   5.82484e-03 DIIS
   @DF-RKS iter   3:  -174.47943895547382   -5.64431e-01   8.83673e-04 DIIS
   @DF-RKS iter   4:  -174.48864639544655   -9.20744e-03   2.70486e-04 DIIS
   @DF-RKS iter   5:  -174.48957306299309   -9.26668e-04   4.13355e-05 DIIS
   @DF-RKS iter   6:  -174.48959617249585   -2.31095e-05   6.43152e-06 DIIS
   @DF-RKS iter   7:  -174.48959688399037   -7.11495e-07   1.69907e-06 DIIS
   @DF-RKS iter   8:  -174.48959693472710   -5.07367e-08   1.11758e-07 DIIS
   @DF-RKS iter   9:  -174.48959693478372   -5.66160e-11   9.97246e-08 DIIS
   @DF-RKS iter  10:  -174.48959693493541   -1.51687e-10   5.59718e-09 DIIS
   @DF-RKS iter  11:  -174.48959693493612   -7.10543e-13   5.04937e-10 DIIS
   @DF-RKS iter  12:  -174.48959693493586    2.55795e-13   7.07275e-11 DIIS
  Energy and wave function converged.


  ==> Post-Iterations <==

    Orbital Energies [Eh]
    ---------------------

    Doubly Occupied:                                                      

       1A    -14.318000     2A    -10.191530     3A    -10.191360  
       4A    -10.191204     5A     -0.915860     6A     -0.698997  
       7A     -0.698740     8A     -0.586946     9A     -0.462388  
      10A     -0.460570    11A     -0.460396    12A     -0.388760  
      13A     -0.388624    14A     -0.364679    15A     -0.354418  
      16A     -0.353746    17A     -0.213633  

    Virtual:                                                              

      18A      0.073852    19A      0.133891    20A      0.133939  
      21A      0.140332    22A      0.145834    23A      0.145971  
      24A      0.164208    25A      0.186595    26A      0.186769  
      27A      0.215669    28A      0.239638    29A      0.240401  
      30A      0.404647    31A      0.409017    32A      0.409475  
      33A      0.434237    34A      0.434473    35A      0.479032  
      36A      0.494280    37A      0.494492    38A      0.524511  
      39A      0.537601    40A      0.591703    41A      0.592334  
      42A      0.610518    43A      0.613697    44A      0.614273  
      45A      0.616661    46A      0.616911    47A      0.630145  
      48A      0.636253    49A      0.680650    50A      0.680799  
      51A      0.727912    52A      0.727995    53A      0.785339  
      54A      0.823580    55A      0.824029    56A      0.886708  
      57A      0.962037    58A      0.962527    59A      0.980795  
      60A      0.998248    61A      1.026254    62A      1.027142  
      63A      1.066125    64A      1.120859    65A      1.122541  
      66A      1.125678    67A      1.223131    68A      1.223509  
      69A      1.224434    70A      1.294945    71A      1.295770  
      72A      1.329938    73A      1.345791    74A      1.346548  
      75A      1.363114    76A      1.400444    77A      1.401265  
      78A      1.436361    79A      1.437054    80A      1.438248  
      81A      1.450076    82A      1.479553    83A      1.479852  
      84A      1.513989    85A      1.656645    86A      1.666971  
      87A      1.668701    88A      1.739508    89A      1.757695  
      90A      1.759286    91A      1.807956    92A      1.819239  
      93A      1.820363    94A      1.865792    95A      1.866919  
      96A      1.965836    97A      2.021290    98A      2.022120  
      99A      2.069397   100A      2.195555   101A      2.196995  
     102A      2.859491   103A      2.859914   104A      2.889097  
     105A      2.926295   106A      2.926624   107A      2.962840  
     108A      2.978593   109A      2.984248   110A      2.985528  
     111A      3.022603   112A      3.023308   113A      3.043201  
     114A      3.095605   115A      3.096085   116A      3.154787  
     117A      3.187270   118A      3.234086   119A      3.323724  
     120A      3.324470   121A      3.367214   122A      3.374403  
     123A      3.375361   124A      3.447639   125A      3.449315  
     126A      3.519402   127A      3.560680   128A      3.561482  
     129A      3.651214   130A      3.652277   131A      3.663532  
     132A      3.760281   133A      3.780631   134A      3.782809  
     135A      3.789668   136A      3.804456   137A      3.807471  
     138A      3.973022   139A      4.078035   140A      4.118857  
     141A      4.119517   142A      4.164225   143A      4.165332  
     144A      4.224880   145A      4.235201   146A      4.235729  
     147A      4.332556   148A      4.333021   149A      4.354592  
     150A      4.389858   151A      4.391008   152A      4.435018  
     153A      4.467263   154A      4.469770   155A      4.486441  
     156A      4.541034   157A      4.760720   158A      4.762554  
     159A      4.779231   160A      4.973242   161A      4.973820  
     162A      4.990593   163A      4.991498   164A      5.096359  
     165A      5.141498   166A      5.238673   167A      5.243789  
     168A      5.244185   169A      5.298112   170A      5.299195  
     171A      5.454956   172A      5.455947   173A      5.516686  
     174A      5.557455   175A      5.837484   176A      5.839705  

    Final Occupation by Irrep:
              A 
    DOCC [    17 ]

  @DF-RKS Final Energy:  -174.48959693493586

   => Energetics <=

    Nuclear Repulsion Energy =            138.8361290716517544
    One-Electron Energy =                -508.6975990596194492
    Two-Electron Energy =                 216.8980806044222902
    DFT Exchange-Correlation Energy =     -21.5262075513904954
    Empirical Dispersion Energy =           0.0000000000000000
    VV10 Nonlocal Energy =                  0.0000000000000000
    Total Energy =                       -174.4895969349358609

Computation Completed


Properties will be evaluated at   0.000000,   0.000000,   0.000000 [a0]

Properties computed using the SCF density matrix

  Nuclear Dipole Moment: [e a0]
     X:     1.7927      Y:     0.0028      Z:     0.0032

  Electronic Dipole Moment: [e a0]
     X:    -1.5743      Y:    -0.0041      Z:    -0.0019

  Dipole Moment: [e a0]
     X:     0.2184      Y:    -0.0013      Z:     0.0012     Total:     0.2184

  Dipole Moment: [D]
     X:     0.5552      Y:    -0.0033      Z:     0.0031     Total:     0.5552


*** tstop() called on n090 at Fri Nov 12 11:38:30 2021
Module time:
	user time   =     106.36 seconds =       1.77 minutes
	system time =       1.69 seconds =       0.03 minutes
	total time  =         28 seconds =       0.47 minutes
Total time:
	user time   =     106.36 seconds =       1.77 minutes
	system time =       1.69 seconds =       0.03 minutes
	total time  =         28 seconds =       0.47 minutes
Grab this energy -174.48959693493586
    Psi4 stopped on: Friday, 12 November 2021 11:38AM
    Psi4 wall time for execution: 0:00:27.74

*** Psi4 exiting successfully. Buy a developer a beer!
