
    -----------------------------------------------------------------------
          Psi4: An Open-Source Ab Initio Electronic Structure Package
                               Psi4 1.4a2.dev629 

                         Git: Rev {master} 2938fc2 dirty


    D. G. A. Smith, L. A. Burns, A. C. Simmonett, R. M. Parrish,
    M. C. Schieber, R. Galvelis, P. Kraus, H. Kruse, R. Di Remigio,
    A. Alenaizan, A. M. James, S. Lehtola, J. P. Misiewicz, M. Scheurer,
    R. A. Shaw, J. B. Schriber, Y. Xie, Z. L. Glick, D. A. Sirianni,
    J. S. O'Brien, J. M. Waldrop, A. Kumar, E. G. Hohenstein,
    B. P. Pritchard, B. R. Brooks, H. F. Schaefer III, A. Yu. Sokolov,
    K. Patkowski, A. E. DePrince III, U. Bozkaya, R. A. King,
    F. A. Evangelista, J. M. Turney, T. D. Crawford, C. D. Sherrill,
    J. Chem. Phys. 152(18) 184108 (2020). https://doi.org/10.1063/5.0006002

                            Additional Code Authors
    E. T. Seidl, C. L. Janssen, E. F. Valeev, M. L. Leininger,
    J. F. Gonthier, R. M. Richard, H. R. McAlexander, M. Saitow, X. Wang,
    P. Verma, and M. H. Lechner

             Previous Authors, Complete List of Code Contributors,
                       and Citations for Specific Modules
    https://github.com/psi4/psi4/blob/master/codemeta.json
    https://github.com/psi4/psi4/graphs/contributors
    http://psicode.org/psi4manual/master/introduction.html#citing-psifour

    -----------------------------------------------------------------------


    Psi4 started on: Monday, 14 March 2022 05:35PM

    Process ID: 16019
    Host:       n087
    PSIDATADIR: /opt/psi/4/master/share/psi4
    Memory:     500.0 MiB
    Threads:    4
    
  ==> Input File <==

--------------------------------------------------------------------------
import os
memory 14 GB 
 
molecule {
 X   -2.6056733900   -0.0000000000   -0.0000000000
 N   -0.7169535563    0.0000022981    0.0034716865
 C    0.1771335821   -1.2963231447   -2.2507872185
 C    0.1763854066    2.6032995914   -0.0054804215
 C    0.1756403184   -1.3069754826    2.2582767749
 H    2.2657182552   -1.3551071830   -2.3577140217
 H   -0.5304066467   -0.3366417759   -3.9311952383
 H   -0.5260945918   -3.2323755119   -2.2658853713
 H    2.2647991512    2.7272695754   -0.0105955295
 H   -0.5255041671    3.5870172492    1.6627948078
 H   -0.5341290781    3.5756973317   -1.6781239468
 H    2.2638895885   -1.3721747669    2.3660848502
 H   -0.5335339250   -3.2423203257    2.2667665467
 H   -0.5292210270   -0.3513678652    3.9423870815
units bohr
}

basis {

assign 6-31g_2dfp_

[ 6-31g_2dfp_ ]

spherical

!----------------------------------------------------------------------
! Basis Set Exchange
! Version v0.8.13
! https://www.basissetexchange.org
!----------------------------------------------------------------------
!   Basis set: 6-31G(2df,p)
! Description: 6-31G(2df,p)
!        Role: orbital
!     Version: 0  (Data from the original Basis Set Exchange)
!----------------------------------------------------------------------


****
H     0
S    3   1.00
     18.7311370              0.03349460
      2.8253937              0.23472695
      0.6401217              0.81375733
S    1   1.00
      0.1612778              1.00000000
P    1   1.00
      1.5000000              1.0000000
P    1   1.00
      0.3750000              1.0000000
****
B     0
S    6   1.00
   2068.8823000              0.0018663
    310.6495700              0.0142515
     70.6830330              0.0695516
     19.8610800              0.2325729
      6.2993048              0.4670787
      2.1270270              0.3634314
SP   3   1.00
      4.7279710             -0.1303938              0.0745976
      1.1903377             -0.1307889              0.3078467
      0.3594117              1.1309444              0.7434568
SP   1   1.00
      0.1267512              1.0000000              1.0000000
D    1   1.00
      0.8020000              1.0000000
D    1   1.00
      0.2005000              1.0000000
F    1   1.00
      0.5000000              1.0000000
****
C     0
S    6   1.00
   3047.5249000              0.0018347
    457.3695100              0.0140373
    103.9486900              0.0688426
     29.2101550              0.2321844
      9.2866630              0.4679413
      3.1639270              0.3623120
SP   3   1.00
      7.8682724             -0.1193324              0.0689991
      1.8812885             -0.1608542              0.3164240
      0.5442493              1.1434564              0.7443083
SP   1   1.00
      0.1687144              1.0000000              1.0000000
D    1   1.00
      1.2520000              1.0000000
D    1   1.00
      0.3130000              1.0000000
F    1   1.00
      0.8000000              1.0000000
****
N     0
S    6   1.00
   4173.5110000              0.0018348
    627.4579000              0.0139950
    142.9021000              0.0685870
     40.2343300              0.2322410
     12.8202100              0.4690700
      4.3904370              0.3604550
SP   3   1.00
     11.6263580             -0.1149610              0.0675800
      2.7162800             -0.1691180              0.3239070
      0.7722180              1.1458520              0.7408950
SP   1   1.00
      0.2120313              1.0000000              1.0000000
D    1   1.00
      1.8260000              1.0000000
D    1   1.00
      0.4565000              1.0000000
F    1   1.00
      1.0000000              1.0000000
****
O     0
S    6   1.00
   5484.6717000              0.0018311
    825.2349500              0.0139501
    188.0469600              0.0684451
     52.9645000              0.2327143
     16.8975700              0.4701930
      5.7996353              0.3585209
SP   3   1.00
     15.5396160             -0.1107775              0.0708743
      3.5999336             -0.1480263              0.3397528
      1.0137618              1.1307670              0.7271586
SP   1   1.00
      0.2700058              1.0000000              1.0000000
D    1   1.00
      2.5840000              1.0000000
D    1   1.00
      0.6460000              1.0000000
F    1   1.00
      1.4000000              1.0000000
****
F     0
S    6   1.00
   7001.7130900              0.0018196169
   1051.3660900              0.0139160796
    239.2856900              0.0684053245
     67.3974453              0.233185760
     21.5199573              0.471267439
      7.40310130             0.356618546
SP   3   1.00
     20.8479528             -0.108506975            0.0716287243
      4.80830834            -0.146451658            0.3459121030
      1.34406986             1.128688580            0.7224699570
SP   1   1.00
      0.358151393            1.0000000              1.0000000
D    1   1.00
      3.5000000              1.0000000
D    1   1.00
      0.8750000              1.0000000
F    1   1.00
      1.8500000              1.0000000
****
Al     0
S    6   1.00
  13983.1000000              0.00194267
   2098.7500000              0.0148599
    477.7050000              0.0728494
    134.3600000              0.2468300
     42.8709000              0.4872580
     14.5189000              0.3234960
SP   6   1.00
    239.6680000             -0.00292619             0.00460285
     57.4419000             -0.0374080              0.0331990
     18.2859000             -0.1144870              0.1362820
      6.5991400              0.1156350              0.3304760
      2.4904900              0.6125950              0.4491460
      0.9445400              0.3937990              0.2657040
SP   3   1.00
      1.2779000             -0.2276060             -0.0175130
      0.3975900              0.00144583             0.2445330
      0.1600950              1.0927900              0.8049340
SP   1   1.00
      0.0556577              1.0000000              1.0000000
D    1   1.00
      0.6500000              1.0000000
D    1   1.00
      0.1625000              1.0000000
F    1   1.00
      0.2500000              1.0000000
****
Si     0
S    6   1.00
  16115.9000000              0.00195948
   2425.5800000              0.01492880
    553.8670000              0.07284780
    156.3400000              0.24613000
     50.0683000              0.48591400
     17.0178000              0.32500200
SP   6   1.00
    292.7180000             -0.00278094             0.00443826
     69.8731000             -0.03571460             0.03266790
     22.3363000             -0.11498500             0.13472100
      8.1503900              0.09356340             0.32867800
      3.1345800              0.60301700             0.44964000
      1.2254300              0.41895900             0.26137200
SP   3   1.00
      1.7273800             -0.24463000            -0.01779510
      0.5729220              0.00431572             0.25353900
      0.2221920              1.09818000             0.80066900
SP   1   1.00
      0.0778369              1.00000000             1.00000000
D    1   1.00
      0.9000000              1.0000000
D    1   1.00
      0.2250000              1.0000000
F    1   1.00
      0.3200000              1.0000000
****
P     0
S    6   1.00
  19413.3000000              0.0018516
   2909.4200000              0.0142062
    661.3640000              0.0699995
    185.7590000              0.2400790
     59.1943000              0.4847620
     20.0310000              0.3352000
SP   6   1.00
    339.4780000             -0.00278217             0.00456462
     81.0101000             -0.0360499              0.03369360
     25.8780000             -0.1166310              0.13975500
      9.4522100              0.0968328              0.33936200
      3.6656600              0.6144180              0.45092100
      1.4674600              0.4037980              0.23858600
SP   3   1.00
      2.1562300             -0.2529230             -0.01776530
      0.7489970              0.0328517              0.27405800
      0.2831450              1.0812500              0.78542100
SP   1   1.00
      0.0998317              1.0000000              1.00000000
D    1   1.00
      1.1000000              1.0000000
D    1   1.00
      0.2750000              1.0000000
F    1   1.00
      0.4500000              1.0000000
****
S     0
S    6   1.00
  21917.1000000              0.0018690
   3301.4900000              0.0142300
    754.1460000              0.0696960
    212.7110000              0.2384870
     67.9896000              0.4833070
     23.0515000              0.3380740
SP   6   1.00
    423.7350000             -0.0023767              0.0040610
    100.7100000             -0.0316930              0.0306810
     32.1599000             -0.1133170              0.1304520
     11.8079000              0.0560900              0.3272050
      4.6311000              0.5922550              0.4528510
      1.8702500              0.4550060              0.2560420
SP   3   1.00
      2.6158400             -0.2503740             -0.0145110
      0.9221670              0.0669570              0.3102630
      0.3412870              1.0545100              0.7544830
SP   1   1.00
      0.1171670              1.0000000              1.0000000
D    1   1.00
      1.3000000              1.0000000
D    1   1.00
      0.3250000              1.0000000
F    1   1.00
      0.5500000              1.0000000
****
Cl     0
S    6   1.00
  25180.1000000              0.0018330
   3780.3500000              0.0140340
    860.4740000              0.0690970
    242.1450000              0.2374520
     77.3349000              0.4830340
     26.2470000              0.3398560
SP   6   1.00
    491.7650000             -0.0022974              0.0039894
    116.9840000             -0.0307140              0.0303180
     37.4153000             -0.1125280              0.1298800
     13.7834000              0.0450160              0.3279510
      5.4521500              0.5893530              0.4535270
      2.2258800              0.4652060              0.2521540
SP   3   1.00
      3.1864900             -0.2518300             -0.0142990
      1.1442700              0.0615890              0.3235720
      0.4203770              1.0601800              0.7435070
SP   1   1.00
      0.1426570              1.0000000              1.0000000
D    1   1.00
      1.5000000              1.0000000
D    1   1.00
      0.3750000              1.0000000
F    1   1.00
      0.7000000              1.0000000
****
}


set {
reference rhf                          
freeze_core true
e_convergence 10                       
d_convergence 10                      
dft_spherical_points 1202
dft_radial_points 99
}

e = energy('b3lyp')

print_out('Grab this energy {0}'.format(e))
--------------------------------------------------------------------------

  Memory set to  13.039 GiB by Python driver.

Scratch directory: /tmp/

*** tstart() called on n087
*** at Mon Mar 14 17:35:46 2022

   => Loading Basis Set <=

    Name: ANONYMOUSBF9F1CB8
    Role: ORBITAL
    Keyword: BASIS
    atoms 1    entry N          line    69 inputblock 6-31g_2dfp_ 
    atoms 2-4  entry C          line    48 inputblock 6-31g_2dfp_ 
    atoms 5-13 entry H          line    15 inputblock 6-31g_2dfp_ 


         ---------------------------------------------------------
                                   SCF
               by Justin Turney, Rob Parrish, Andy Simmonett
                          and Daniel G. A. Smith
                              RKS Reference
                        4 Threads,  13351 MiB Core
         ---------------------------------------------------------

  ==> Geometry <==

    Molecular point group: c1
    Full point group: C1

    Geometry (in Bohr), charge = 0, multiplicity = 1:

       Center              X                  Y                   Z               Mass       
    ------------   -----------------  -----------------  -----------------  -----------------
         N           -0.716177693666     0.000001613330     0.002334117309    14.003074004430
         C            0.177909444734    -1.296323829470    -2.251924787691    12.000000000000
         C            0.177161269234     2.603298906630    -0.006617990691    12.000000000000
         C            0.176416181034    -1.306976167370     2.257139205709    12.000000000000
         H            2.266494117834    -1.355107867770    -2.358851590891     1.007825032230
         H           -0.529630784066    -0.336642460670    -3.932332807491     1.007825032230
         H           -0.525318729166    -3.232376196670    -2.267022940491     1.007825032230
         H            2.265575013834     2.727268890630    -0.011733098691     1.007825032230
         H           -0.524728304466     3.587016564430     1.661657238609     1.007825032230
         H           -0.533353215466     3.575696646930    -1.679261515991     1.007825032230
         H            2.264665451134    -1.372175451670     2.364947281009     1.007825032230
         H           -0.532758062366    -3.242321010470     2.265628977509     1.007825032230
         H           -0.528445164366    -0.351368549970     3.941249512309     1.007825032230

  Running in c1 symmetry.

  Rotational constants: A =      0.29338  B =      0.29116  C =      0.16680 [cm^-1]
  Rotational constants: A =   8795.31872  B =   8728.80354  C =   5000.62823 [MHz]
  Nuclear repulsion =  138.824951531771205

  Charge       = 0
  Multiplicity = 1
  Electrons    = 34
  Nalpha       = 17
  Nbeta        = 17

  ==> Algorithm <==

  SCF Algorithm Type is DF.
  DIIS enabled.
  MOM disabled.
  Fractional occupation disabled.
  Guess Type is SAD.
  Energy threshold   = 1.00e-10
  Density threshold  = 1.00e-10
  Integral threshold = 0.00e+00

  ==> Primary Basis <==

  Basis Set: ANONYMOUSBF9F1CB8
    Blend: 6-31G_2DFP_
    Number of shells: 68
    Number of basis function: 176
    Number of Cartesian functions: 196
    Spherical Harmonics?: true
    Max angular momentum: 3

  ==> DFT Potential <==

   => Composite Functional: B3LYP <= 

    B3LYP Hyb-GGA Exchange-Correlation Functional

    P. J. Stephens, F. J. Devlin, C. F. Chabalowski, and M. J. Frisch, J. Phys. Chem. 98, 11623 (1994)

    Deriv               =              1
    GGA                 =           TRUE
    Meta                =          FALSE

    Exchange Hybrid     =           TRUE
    MP2 Hybrid          =          FALSE

   => Exchange Functionals <=

    0.0800   Slater exchange
    0.7200         Becke 88

   => Exact (HF) Exchange <=

    0.2000               HF 

   => Correlation Functionals <=

    0.1900   Vosko, Wilk & Nusair (VWN5_RPA)
    0.8100   Lee, Yang & Parr

   => Molecular Quadrature <=

    Radial Scheme          =       TREUTLER
    Pruning Scheme         =           NONE
    Nuclear Scheme         =       TREUTLER

    BS radius alpha        =              1
    Pruning alpha          =              1
    Radial Points          =             99
    Spherical Points       =           1202
    Total Points           =        1438376
    Total Blocks           =           9587
    Max Points             =            256
    Max Functions          =            176
    Weights Tolerance      =       1.00E-15

   => Loading Basis Set <=

    Name: (ANONYMOUSBF9F1CB8 AUX)
    Role: JKFIT
    Keyword: DF_BASIS_SCF
    atoms 1    entry N          line   258 file /opt/psi/4/master/share/psi4/basis/def2-universal-jkfit.gbs 
    atoms 2-4  entry C          line   198 file /opt/psi/4/master/share/psi4/basis/def2-universal-jkfit.gbs 
    atoms 5-13 entry H          line    18 file /opt/psi/4/master/share/psi4/basis/def2-universal-jkfit.gbs 

  ==> Integral Setup <==

  DFHelper Memory: AOs need 0.115 GiB; user supplied 3.769 GiB. Using in-core AOs.

  ==> MemDFJK: Density-Fitted J/K Matrices <==

    J tasked:                   Yes
    K tasked:                   Yes
    wK tasked:                   No
    OpenMP threads:               4
    Memory [MiB]:              3859
    Algorithm:                 Core
    Schwarz Cutoff:           1E-12
    Mask sparsity (%):       1.0589
    Fitting Condition:        1E-10

   => Auxiliary Basis Set <=

  Basis Set: (ANONYMOUSBF9F1CB8 AUX)
    Blend: DEF2-UNIVERSAL-JKFIT
    Number of shells: 154
    Number of basis function: 464
    Number of Cartesian functions: 540
    Spherical Harmonics?: true
    Max angular momentum: 4

  Cached 100.0% of DFT collocation blocks in 6.010 [GiB].

  Minimum eigenvalue in the overlap matrix is 2.3765929655E-03.
  Reciprocal condition number of the overlap matrix is 3.8735781009E-04.
    Using symmetric orthogonalization.

  ==> Pre-Iterations <==

  SCF Guess: Superposition of Atomic Densities via on-the-fly atomic UHF (no occupation information).

   -------------------------
    Irrep   Nso     Nmo    
   -------------------------
     A        176     176 
   -------------------------
    Total     176     176
   -------------------------

  ==> Iterations <==

                           Total Energy        Delta E     RMS |[F,P]|

   @DF-RKS iter SAD:  -173.87090642356640   -1.73871e+02   0.00000e+00 
   @DF-RKS iter   1:  -174.14778639562292   -2.76880e-01   4.49553e-03 DIIS
   @DF-RKS iter   2:  -173.91488780075809    2.32899e-01   5.82482e-03 DIIS
   @DF-RKS iter   3:  -174.47935744402668   -5.64470e-01   8.86480e-04 DIIS
   @DF-RKS iter   4:  -174.48863163449229   -9.27419e-03   2.70369e-04 DIIS
   @DF-RKS iter   5:  -174.48955764676657   -9.26012e-04   4.12988e-05 DIIS
   @DF-RKS iter   6:  -174.48958072045829   -2.30737e-05   6.43027e-06 DIIS
   @DF-RKS iter   7:  -174.48958143307399   -7.12616e-07   1.69532e-06 DIIS
   @DF-RKS iter   8:  -174.48958148383355   -5.07596e-08   5.78834e-08 DIIS
   @DF-RKS iter   9:  -174.48958148389360   -6.00551e-11   2.38807e-08 DIIS
   @DF-RKS iter  10:  -174.48958148390008   -6.48015e-12   1.30283e-08 DIIS
   @DF-RKS iter  11:  -174.48958148390255   -2.47269e-12   5.63371e-10 DIIS
   @DF-RKS iter  12:  -174.48958148390290   -3.41061e-13   8.36299e-11 DIIS
  Energy and wave function converged.


  ==> Post-Iterations <==

    Orbital Energies [Eh]
    ---------------------

    Doubly Occupied:                                                      

       1A    -14.318106     2A    -10.191607     3A    -10.191352  
       4A    -10.191098     5A     -0.915762     6A     -0.699167  
       7A     -0.698626     8A     -0.586938     9A     -0.462319  
      10A     -0.460771    11A     -0.460218    12A     -0.388717  
      13A     -0.388239    14A     -0.364898    15A     -0.354426  
      16A     -0.353942    17A     -0.213697  

    Virtual:                                                              

      18A      0.073961    19A      0.133762    20A      0.134239  
      21A      0.140148    22A      0.145792    23A      0.146117  
      24A      0.164143    25A      0.186219    26A      0.186844  
      27A      0.215926    28A      0.239692    29A      0.240088  
      30A      0.404638    31A      0.408911    32A      0.409268  
      33A      0.434391    34A      0.434693    35A      0.478821  
      36A      0.493936    37A      0.495183    38A      0.524370  
      39A      0.537641    40A      0.591945    41A      0.592172  
      42A      0.609943    43A      0.613535    44A      0.613737  
      45A      0.617074    46A      0.617094    47A      0.630527  
      48A      0.636717    49A      0.680288    50A      0.681008  
      51A      0.727590    52A      0.728406    53A      0.785261  
      54A      0.823045    55A      0.824359    56A      0.886367  
      57A      0.961556    58A      0.962994    59A      0.981053  
      60A      0.998394    61A      1.026252    62A      1.027108  
      63A      1.065551    64A      1.121984    65A      1.122011  
      66A      1.125535    67A      1.221751    68A      1.224268  
      69A      1.224679    70A      1.294302    71A      1.295584  
      72A      1.330275    73A      1.345991    74A      1.346230  
      75A      1.362802    76A      1.399638    77A      1.402517  
      78A      1.436627    79A      1.438052    80A      1.438618  
      81A      1.450022    82A      1.478442    83A      1.479317  
      84A      1.513450    85A      1.655915    86A      1.666706  
      87A      1.668701    88A      1.741543    89A      1.757893  
      90A      1.759737    91A      1.806426    92A      1.819798  
      93A      1.820851    94A      1.865394    95A      1.867995  
      96A      1.965508    97A      2.018859    98A      2.022501  
      99A      2.070727   100A      2.193725   101A      2.197833  
     102A      2.859110   103A      2.860249   104A      2.888341  
     105A      2.926241   106A      2.927017   107A      2.963078  
     108A      2.978725   109A      2.984622   110A      2.985420  
     111A      3.022067   112A      3.024002   113A      3.043079  
     114A      3.094410   115A      3.096870   116A      3.155656  
     117A      3.188459   118A      3.233173   119A      3.322560  
     120A      3.323326   121A      3.367570   122A      3.373871  
     123A      3.375489   124A      3.448436   125A      3.449735  
     126A      3.518302   127A      3.560970   128A      3.562874  
     129A      3.650734   130A      3.652080   131A      3.662238  
     132A      3.760378   133A      3.780321   134A      3.781147  
     135A      3.789661   136A      3.805990   137A      3.807288  
     138A      3.971855   139A      4.078032   140A      4.119089  
     141A      4.120628   142A      4.163210   143A      4.164636  
     144A      4.223878   145A      4.235204   146A      4.238261  
     147A      4.331068   148A      4.335191   149A      4.355066  
     150A      4.389176   151A      4.390424   152A      4.436756  
     153A      4.466766   154A      4.469070   155A      4.486933  
     156A      4.540907   157A      4.761206   158A      4.761761  
     159A      4.777417   160A      4.972936   161A      4.974733  
     162A      4.988928   163A      4.989575   164A      5.098596  
     165A      5.141116   166A      5.236736   167A      5.244637  
     168A      5.244826   169A      5.298764   170A      5.301661  
     171A      5.453339   172A      5.454305   173A      5.516206  
     174A      5.558083   175A      5.835504   176A      5.840625  

    Final Occupation by Irrep:
              A 
    DOCC [    17 ]

  @DF-RKS Final Energy:  -174.48958148390290

   => Energetics <=

    Nuclear Repulsion Energy =            138.8249515317712053
    One-Electron Energy =                -508.6752054686940596
    Two-Electron Energy =                 216.8867837930223743
    DFT Exchange-Correlation Energy =     -21.5261113400024087
    Empirical Dispersion Energy =           0.0000000000000000
    VV10 Nonlocal Energy =                  0.0000000000000000
    Total Energy =                       -174.4895814839028958

Computation Completed


Properties will be evaluated at   0.000000,   0.000000,   0.000000 [a0]

Properties computed using the SCF density matrix

  Nuclear Dipole Moment: [e a0]
     X:     1.7982      Y:    -0.0000      Z:    -0.0078

  Electronic Dipole Moment: [e a0]
     X:    -1.5834      Y:    -0.0000      Z:     0.0095

  Dipole Moment: [e a0]
     X:     0.2148      Y:    -0.0000      Z:     0.0017     Total:     0.2148

  Dipole Moment: [D]
     X:     0.5459      Y:    -0.0000      Z:     0.0043     Total:     0.5459


*** tstop() called on n087 at Mon Mar 14 17:36:13 2022
Module time:
	user time   =     103.44 seconds =       1.72 minutes
	system time =       1.63 seconds =       0.03 minutes
	total time  =         27 seconds =       0.45 minutes
Total time:
	user time   =     103.44 seconds =       1.72 minutes
	system time =       1.63 seconds =       0.03 minutes
	total time  =         27 seconds =       0.45 minutes
Grab this energy -174.4895814839029
    Psi4 stopped on: Monday, 14 March 2022 05:36PM
    Psi4 wall time for execution: 0:00:27.00

*** Psi4 exiting successfully. Buy a developer a beer!
