
    -----------------------------------------------------------------------
          Psi4: An Open-Source Ab Initio Electronic Structure Package
                               Psi4 1.4a2.dev629 

                         Git: Rev {master} 2938fc2 dirty


    D. G. A. Smith, L. A. Burns, A. C. Simmonett, R. M. Parrish,
    M. C. Schieber, R. Galvelis, P. Kraus, H. Kruse, R. Di Remigio,
    A. Alenaizan, A. M. James, S. Lehtola, J. P. Misiewicz, M. Scheurer,
    R. A. Shaw, J. B. Schriber, Y. Xie, Z. L. Glick, D. A. Sirianni,
    J. S. O'Brien, J. M. Waldrop, A. Kumar, E. G. Hohenstein,
    B. P. Pritchard, B. R. Brooks, H. F. Schaefer III, A. Yu. Sokolov,
    K. Patkowski, A. E. DePrince III, U. Bozkaya, R. A. King,
    F. A. Evangelista, J. M. Turney, T. D. Crawford, C. D. Sherrill,
    J. Chem. Phys. 152(18) 184108 (2020). https://doi.org/10.1063/5.0006002

                            Additional Code Authors
    E. T. Seidl, C. L. Janssen, E. F. Valeev, M. L. Leininger,
    J. F. Gonthier, R. M. Richard, H. R. McAlexander, M. Saitow, X. Wang,
    P. Verma, and M. H. Lechner

             Previous Authors, Complete List of Code Contributors,
                       and Citations for Specific Modules
    https://github.com/psi4/psi4/blob/master/codemeta.json
    https://github.com/psi4/psi4/graphs/contributors
    http://psicode.org/psi4manual/master/introduction.html#citing-psifour

    -----------------------------------------------------------------------


    Psi4 started on: Monday, 14 March 2022 05:42PM

    Process ID: 21134
    Host:       n078
    PSIDATADIR: /opt/psi/4/master/share/psi4
    Memory:     500.0 MiB
    Threads:    4
    
  ==> Input File <==

--------------------------------------------------------------------------
import os
memory 14 GB 
 
molecule {
 X   -2.6056733900    0.0000000000    0.0000000000
 N   -0.7159353270    0.0034682595   -0.0003673620
 C    0.1780249629   -1.3042229413   -2.2495112580
 C    0.1765199191    2.6097543349   -0.0000393169
 C    0.1775990598   -1.3035239684    2.2482373036
 H    2.2585505381   -1.3698908905   -2.3544340287
 H   -0.5224662793   -0.3512442335   -3.9334300659
 H   -0.5297827472   -3.2379411473   -2.2559120416
 H    2.2605589343    2.7365357510   -0.0000490724
 H   -0.5305436903    3.5883622015    1.6735841593
 H   -0.5308384667    3.5875970037   -1.6728764117
 H    2.2657277370   -1.3688504130    2.3525238778
 H   -0.5336660107   -3.2441005731    2.2536075305
 H   -0.5260253200   -0.3459433935    3.9386666859
units bohr
}

basis {

assign 6-31g_2dfp_

[ 6-31g_2dfp_ ]

spherical

!----------------------------------------------------------------------
! Basis Set Exchange
! Version v0.8.13
! https://www.basissetexchange.org
!----------------------------------------------------------------------
!   Basis set: 6-31G(2df,p)
! Description: 6-31G(2df,p)
!        Role: orbital
!     Version: 0  (Data from the original Basis Set Exchange)
!----------------------------------------------------------------------


****
H     0
S    3   1.00
     18.7311370              0.03349460
      2.8253937              0.23472695
      0.6401217              0.81375733
S    1   1.00
      0.1612778              1.00000000
P    1   1.00
      1.5000000              1.0000000
P    1   1.00
      0.3750000              1.0000000
****
B     0
S    6   1.00
   2068.8823000              0.0018663
    310.6495700              0.0142515
     70.6830330              0.0695516
     19.8610800              0.2325729
      6.2993048              0.4670787
      2.1270270              0.3634314
SP   3   1.00
      4.7279710             -0.1303938              0.0745976
      1.1903377             -0.1307889              0.3078467
      0.3594117              1.1309444              0.7434568
SP   1   1.00
      0.1267512              1.0000000              1.0000000
D    1   1.00
      0.8020000              1.0000000
D    1   1.00
      0.2005000              1.0000000
F    1   1.00
      0.5000000              1.0000000
****
C     0
S    6   1.00
   3047.5249000              0.0018347
    457.3695100              0.0140373
    103.9486900              0.0688426
     29.2101550              0.2321844
      9.2866630              0.4679413
      3.1639270              0.3623120
SP   3   1.00
      7.8682724             -0.1193324              0.0689991
      1.8812885             -0.1608542              0.3164240
      0.5442493              1.1434564              0.7443083
SP   1   1.00
      0.1687144              1.0000000              1.0000000
D    1   1.00
      1.2520000              1.0000000
D    1   1.00
      0.3130000              1.0000000
F    1   1.00
      0.8000000              1.0000000
****
N     0
S    6   1.00
   4173.5110000              0.0018348
    627.4579000              0.0139950
    142.9021000              0.0685870
     40.2343300              0.2322410
     12.8202100              0.4690700
      4.3904370              0.3604550
SP   3   1.00
     11.6263580             -0.1149610              0.0675800
      2.7162800             -0.1691180              0.3239070
      0.7722180              1.1458520              0.7408950
SP   1   1.00
      0.2120313              1.0000000              1.0000000
D    1   1.00
      1.8260000              1.0000000
D    1   1.00
      0.4565000              1.0000000
F    1   1.00
      1.0000000              1.0000000
****
O     0
S    6   1.00
   5484.6717000              0.0018311
    825.2349500              0.0139501
    188.0469600              0.0684451
     52.9645000              0.2327143
     16.8975700              0.4701930
      5.7996353              0.3585209
SP   3   1.00
     15.5396160             -0.1107775              0.0708743
      3.5999336             -0.1480263              0.3397528
      1.0137618              1.1307670              0.7271586
SP   1   1.00
      0.2700058              1.0000000              1.0000000
D    1   1.00
      2.5840000              1.0000000
D    1   1.00
      0.6460000              1.0000000
F    1   1.00
      1.4000000              1.0000000
****
F     0
S    6   1.00
   7001.7130900              0.0018196169
   1051.3660900              0.0139160796
    239.2856900              0.0684053245
     67.3974453              0.233185760
     21.5199573              0.471267439
      7.40310130             0.356618546
SP   3   1.00
     20.8479528             -0.108506975            0.0716287243
      4.80830834            -0.146451658            0.3459121030
      1.34406986             1.128688580            0.7224699570
SP   1   1.00
      0.358151393            1.0000000              1.0000000
D    1   1.00
      3.5000000              1.0000000
D    1   1.00
      0.8750000              1.0000000
F    1   1.00
      1.8500000              1.0000000
****
Al     0
S    6   1.00
  13983.1000000              0.00194267
   2098.7500000              0.0148599
    477.7050000              0.0728494
    134.3600000              0.2468300
     42.8709000              0.4872580
     14.5189000              0.3234960
SP   6   1.00
    239.6680000             -0.00292619             0.00460285
     57.4419000             -0.0374080              0.0331990
     18.2859000             -0.1144870              0.1362820
      6.5991400              0.1156350              0.3304760
      2.4904900              0.6125950              0.4491460
      0.9445400              0.3937990              0.2657040
SP   3   1.00
      1.2779000             -0.2276060             -0.0175130
      0.3975900              0.00144583             0.2445330
      0.1600950              1.0927900              0.8049340
SP   1   1.00
      0.0556577              1.0000000              1.0000000
D    1   1.00
      0.6500000              1.0000000
D    1   1.00
      0.1625000              1.0000000
F    1   1.00
      0.2500000              1.0000000
****
Si     0
S    6   1.00
  16115.9000000              0.00195948
   2425.5800000              0.01492880
    553.8670000              0.07284780
    156.3400000              0.24613000
     50.0683000              0.48591400
     17.0178000              0.32500200
SP   6   1.00
    292.7180000             -0.00278094             0.00443826
     69.8731000             -0.03571460             0.03266790
     22.3363000             -0.11498500             0.13472100
      8.1503900              0.09356340             0.32867800
      3.1345800              0.60301700             0.44964000
      1.2254300              0.41895900             0.26137200
SP   3   1.00
      1.7273800             -0.24463000            -0.01779510
      0.5729220              0.00431572             0.25353900
      0.2221920              1.09818000             0.80066900
SP   1   1.00
      0.0778369              1.00000000             1.00000000
D    1   1.00
      0.9000000              1.0000000
D    1   1.00
      0.2250000              1.0000000
F    1   1.00
      0.3200000              1.0000000
****
P     0
S    6   1.00
  19413.3000000              0.0018516
   2909.4200000              0.0142062
    661.3640000              0.0699995
    185.7590000              0.2400790
     59.1943000              0.4847620
     20.0310000              0.3352000
SP   6   1.00
    339.4780000             -0.00278217             0.00456462
     81.0101000             -0.0360499              0.03369360
     25.8780000             -0.1166310              0.13975500
      9.4522100              0.0968328              0.33936200
      3.6656600              0.6144180              0.45092100
      1.4674600              0.4037980              0.23858600
SP   3   1.00
      2.1562300             -0.2529230             -0.01776530
      0.7489970              0.0328517              0.27405800
      0.2831450              1.0812500              0.78542100
SP   1   1.00
      0.0998317              1.0000000              1.00000000
D    1   1.00
      1.1000000              1.0000000
D    1   1.00
      0.2750000              1.0000000
F    1   1.00
      0.4500000              1.0000000
****
S     0
S    6   1.00
  21917.1000000              0.0018690
   3301.4900000              0.0142300
    754.1460000              0.0696960
    212.7110000              0.2384870
     67.9896000              0.4833070
     23.0515000              0.3380740
SP   6   1.00
    423.7350000             -0.0023767              0.0040610
    100.7100000             -0.0316930              0.0306810
     32.1599000             -0.1133170              0.1304520
     11.8079000              0.0560900              0.3272050
      4.6311000              0.5922550              0.4528510
      1.8702500              0.4550060              0.2560420
SP   3   1.00
      2.6158400             -0.2503740             -0.0145110
      0.9221670              0.0669570              0.3102630
      0.3412870              1.0545100              0.7544830
SP   1   1.00
      0.1171670              1.0000000              1.0000000
D    1   1.00
      1.3000000              1.0000000
D    1   1.00
      0.3250000              1.0000000
F    1   1.00
      0.5500000              1.0000000
****
Cl     0
S    6   1.00
  25180.1000000              0.0018330
   3780.3500000              0.0140340
    860.4740000              0.0690970
    242.1450000              0.2374520
     77.3349000              0.4830340
     26.2470000              0.3398560
SP   6   1.00
    491.7650000             -0.0022974              0.0039894
    116.9840000             -0.0307140              0.0303180
     37.4153000             -0.1125280              0.1298800
     13.7834000              0.0450160              0.3279510
      5.4521500              0.5893530              0.4535270
      2.2258800              0.4652060              0.2521540
SP   3   1.00
      3.1864900             -0.2518300             -0.0142990
      1.1442700              0.0615890              0.3235720
      0.4203770              1.0601800              0.7435070
SP   1   1.00
      0.1426570              1.0000000              1.0000000
D    1   1.00
      1.5000000              1.0000000
D    1   1.00
      0.3750000              1.0000000
F    1   1.00
      0.7000000              1.0000000
****
}


set {
reference rhf                          
freeze_core true
e_convergence 10                       
d_convergence 10                      
dft_spherical_points 1202
dft_radial_points 99
}

e = energy('b3lyp')

print_out('Grab this energy {0}'.format(e))
--------------------------------------------------------------------------

  Memory set to  13.039 GiB by Python driver.

Scratch directory: /tmp/

*** tstart() called on n078
*** at Mon Mar 14 17:42:02 2022

   => Loading Basis Set <=

    Name: ANONYMOUSCF362264
    Role: ORBITAL
    Keyword: BASIS
    atoms 1    entry N          line    69 inputblock 6-31g_2dfp_ 
    atoms 2-4  entry C          line    48 inputblock 6-31g_2dfp_ 
    atoms 5-13 entry H          line    15 inputblock 6-31g_2dfp_ 


         ---------------------------------------------------------
                                   SCF
               by Justin Turney, Rob Parrish, Andy Simmonett
                          and Daniel G. A. Smith
                              RKS Reference
                        4 Threads,  13351 MiB Core
         ---------------------------------------------------------

  ==> Geometry <==

    Molecular point group: c1
    Full point group: C1

    Geometry (in Bohr), charge = 0, multiplicity = 1:

       Center              X                  Y                   Z               Mass       
    ------------   -----------------  -----------------  -----------------  -----------------
         N           -0.715938828559     0.002331762501    -0.000042179492    14.003074004430
         C            0.178021461341    -1.305359438299    -2.249186075492    12.000000000000
         C            0.176516417541     2.608617837901     0.000285865608    12.000000000000
         C            0.177595558241    -1.304660465399     2.248562486108    12.000000000000
         H            2.258547036541    -1.371027387499    -2.354108846192     1.007825032230
         H           -0.522469780859    -0.352380730499    -3.933104883392     1.007825032230
         H           -0.529786248759    -3.239077644299    -2.255586859092     1.007825032230
         H            2.260555432741     2.735399254001     0.000276110108     1.007825032230
         H           -0.530547191859     3.587225704501     1.673909341808     1.007825032230
         H           -0.530841968259     3.586460506701    -1.672551229192     1.007825032230
         H            2.265724235441    -1.369986909999     2.352849060308     1.007825032230
         H           -0.533669512259    -3.245237070099     2.253932713008     1.007825032230
         H           -0.526028821559    -0.347079890499     3.938991868408     1.007825032230

  Running in c1 symmetry.

  Rotational constants: A =      0.29348  B =      0.29125  C =      0.16681 [cm^-1]
  Rotational constants: A =   8798.24255  B =   8731.46021  C =   5000.85733 [MHz]
  Nuclear repulsion =  138.836319433636476

  Charge       = 0
  Multiplicity = 1
  Electrons    = 34
  Nalpha       = 17
  Nbeta        = 17

  ==> Algorithm <==

  SCF Algorithm Type is DF.
  DIIS enabled.
  MOM disabled.
  Fractional occupation disabled.
  Guess Type is SAD.
  Energy threshold   = 1.00e-10
  Density threshold  = 1.00e-10
  Integral threshold = 0.00e+00

  ==> Primary Basis <==

  Basis Set: ANONYMOUSCF362264
    Blend: 6-31G_2DFP_
    Number of shells: 68
    Number of basis function: 176
    Number of Cartesian functions: 196
    Spherical Harmonics?: true
    Max angular momentum: 3

  ==> DFT Potential <==

   => Composite Functional: B3LYP <= 

    B3LYP Hyb-GGA Exchange-Correlation Functional

    P. J. Stephens, F. J. Devlin, C. F. Chabalowski, and M. J. Frisch, J. Phys. Chem. 98, 11623 (1994)

    Deriv               =              1
    GGA                 =           TRUE
    Meta                =          FALSE

    Exchange Hybrid     =           TRUE
    MP2 Hybrid          =          FALSE

   => Exchange Functionals <=

    0.0800   Slater exchange
    0.7200         Becke 88

   => Exact (HF) Exchange <=

    0.2000               HF 

   => Correlation Functionals <=

    0.1900   Vosko, Wilk & Nusair (VWN5_RPA)
    0.8100   Lee, Yang & Parr

   => Molecular Quadrature <=

    Radial Scheme          =       TREUTLER
    Pruning Scheme         =           NONE
    Nuclear Scheme         =       TREUTLER

    BS radius alpha        =              1
    Pruning alpha          =              1
    Radial Points          =             99
    Spherical Points       =           1202
    Total Points           =        1438143
    Total Blocks           =           9534
    Max Points             =            256
    Max Functions          =            176
    Weights Tolerance      =       1.00E-15

   => Loading Basis Set <=

    Name: (ANONYMOUSCF362264 AUX)
    Role: JKFIT
    Keyword: DF_BASIS_SCF
    atoms 1    entry N          line   258 file /opt/psi/4/master/share/psi4/basis/def2-universal-jkfit.gbs 
    atoms 2-4  entry C          line   198 file /opt/psi/4/master/share/psi4/basis/def2-universal-jkfit.gbs 
    atoms 5-13 entry H          line    18 file /opt/psi/4/master/share/psi4/basis/def2-universal-jkfit.gbs 

  ==> Integral Setup <==

  DFHelper Memory: AOs need 0.115 GiB; user supplied 3.765 GiB. Using in-core AOs.

  ==> MemDFJK: Density-Fitted J/K Matrices <==

    J tasked:                   Yes
    K tasked:                   Yes
    wK tasked:                   No
    OpenMP threads:               4
    Memory [MiB]:              3855
    Algorithm:                 Core
    Schwarz Cutoff:           1E-12
    Mask sparsity (%):       1.0589
    Fitting Condition:        1E-10

   => Auxiliary Basis Set <=

  Basis Set: (ANONYMOUSCF362264 AUX)
    Blend: DEF2-UNIVERSAL-JKFIT
    Number of shells: 154
    Number of basis function: 464
    Number of Cartesian functions: 540
    Spherical Harmonics?: true
    Max angular momentum: 4

  Cached 100.0% of DFT collocation blocks in 6.014 [GiB].

  Minimum eigenvalue in the overlap matrix is 2.3752987062E-03.
  Reciprocal condition number of the overlap matrix is 3.8705771693E-04.
    Using symmetric orthogonalization.

  ==> Pre-Iterations <==

  SCF Guess: Superposition of Atomic Densities via on-the-fly atomic UHF (no occupation information).

   -------------------------
    Irrep   Nso     Nmo    
   -------------------------
     A        176     176 
   -------------------------
    Total     176     176
   -------------------------

  ==> Iterations <==

                           Total Energy        Delta E     RMS |[F,P]|

   @DF-RKS iter SAD:  -173.87171024010595   -1.73872e+02   0.00000e+00 
   @DF-RKS iter   1:  -174.14773400755615   -2.76024e-01   4.49605e-03 DIIS
   @DF-RKS iter   2:  -173.91498521538699    2.32749e-01   5.82487e-03 DIIS
   @DF-RKS iter   3:  -174.47942094697169   -5.64436e-01   8.83688e-04 DIIS
   @DF-RKS iter   4:  -174.48862876049890   -9.20781e-03   2.70489e-04 DIIS
   @DF-RKS iter   5:  -174.48955544195408   -9.26681e-04   4.13371e-05 DIIS
   @DF-RKS iter   6:  -174.48957855280850   -2.31109e-05   6.43345e-06 DIIS
   @DF-RKS iter   7:  -174.48957926448702   -7.11679e-07   1.70307e-06 DIIS
   @DF-RKS iter   8:  -174.48957931535833   -5.08713e-08   1.29452e-07 DIIS
   @DF-RKS iter   9:  -174.48957931544587   -8.75389e-11   1.10322e-07 DIIS
   @DF-RKS iter  10:  -174.48957931563132   -1.85452e-10   5.12601e-09 DIIS
   @DF-RKS iter  11:  -174.48957931563200   -6.82121e-13   5.53943e-10 DIIS
   @DF-RKS iter  12:  -174.48957931563203   -2.84217e-14   1.75215e-10 DIIS
   @DF-RKS iter  13:  -174.48957931563231   -2.84217e-13   6.31773e-11 DIIS
  Energy and wave function converged.


  ==> Post-Iterations <==

    Orbital Energies [Eh]
    ---------------------

    Doubly Occupied:                                                      

       1A    -14.318000     2A    -10.191784     3A    -10.191656  
       4A    -10.190655     5A     -0.915862     6A     -0.699273  
       7A     -0.698465     8A     -0.586946     9A     -0.462380  
      10A     -0.460765    11A     -0.460211    12A     -0.388999  
      13A     -0.388385    14A     -0.364686    15A     -0.354325  
      16A     -0.353830    17A     -0.213633  

    Virtual:                                                              

      18A      0.073851    19A      0.133659    20A      0.134159  
      21A      0.140326    22A      0.145738    23A      0.146084  
      24A      0.164203    25A      0.186242    26A      0.187124  
      27A      0.215674    28A      0.239815    29A      0.240227  
      30A      0.404613    31A      0.409059    32A      0.409461  
      33A      0.434166    34A      0.434548    35A      0.479029  
      36A      0.493763    37A      0.495007    38A      0.524518  
      39A      0.537612    40A      0.591812    41A      0.592205  
      42A      0.610446    43A      0.613668    44A      0.614371  
      45A      0.616642    46A      0.616907    47A      0.630167  
      48A      0.636285    49A      0.680368    50A      0.681091  
      51A      0.727513    52A      0.728394    53A      0.785341  
      54A      0.823017    55A      0.824585    56A      0.886698  
      57A      0.961567    58A      0.963029    59A      0.980771  
      60A      0.998192    61A      1.026264    62A      1.027247  
      63A      1.066121    64A      1.121598    65A      1.121808  
      66A      1.125680    67A      1.221880    68A      1.224399  
      69A      1.224790    70A      1.294640    71A      1.296060  
      72A      1.329944    73A      1.345639    74A      1.346693  
      75A      1.363108    76A      1.399369    77A      1.402360  
      78A      1.436164    79A      1.437425    80A      1.438030  
      81A      1.450093    82A      1.479072    83A      1.480344  
      84A      1.513981    85A      1.656618    86A      1.666805  
      87A      1.668884    88A      1.739440    89A      1.757579  
      90A      1.759413    91A      1.807932    92A      1.818459  
      93A      1.821204    94A      1.865034    95A      1.867713  
      96A      1.965841    97A      2.019693    98A      2.023735  
      99A      2.069413   100A      2.194181   101A      2.198443  
     102A      2.859104   103A      2.860282   104A      2.889116  
     105A      2.925849   106A      2.927055   107A      2.962862  
     108A      2.978605   109A      2.984518   110A      2.985294  
     111A      3.021925   112A      3.023959   113A      3.043226  
     114A      3.094561   115A      3.097157   116A      3.154783  
     117A      3.187313   118A      3.234089   119A      3.323687  
     120A      3.324514   121A      3.367175   122A      3.374047  
     123A      3.375745   124A      3.447437   125A      3.449563  
     126A      3.519387   127A      3.560105   128A      3.562069  
     129A      3.651016   130A      3.652463   131A      3.663552  
     132A      3.760234   133A      3.780039   134A      3.782867  
     135A      3.790052   136A      3.805029   137A      3.807093  
     138A      3.973019   139A      4.077959   140A      4.116983  
     141A      4.121325   142A      4.163981   143A      4.165508  
     144A      4.224745   145A      4.233997   146A      4.237347  
     147A      4.330759   148A      4.334808   149A      4.354654  
     150A      4.389756   151A      4.391051   152A      4.435091  
     153A      4.467331   154A      4.469568   155A      4.486491  
     156A      4.541192   157A      4.761144   158A      4.762087  
     159A      4.779234   160A      4.972352   161A      4.974733  
     162A      4.990440   163A      4.991574   164A      5.096259  
     165A      5.141513   166A      5.238250   167A      5.243229  
     168A      5.245073   169A      5.296580   170A      5.300901  
     171A      5.453454   172A      5.457559   173A      5.516693  
     174A      5.557474   175A      5.835992   176A      5.841174  

    Final Occupation by Irrep:
              A 
    DOCC [    17 ]

  @DF-RKS Final Energy:  -174.48957931563231

   => Energetics <=

    Nuclear Repulsion Energy =            138.8363194336364757
    One-Electron Energy =                -508.6979303519773339
    Two-Electron Energy =                 216.8982474424061877
    DFT Exchange-Correlation Energy =     -21.5262158396976631
    Empirical Dispersion Energy =           0.0000000000000000
    VV10 Nonlocal Energy =                  0.0000000000000000
    Total Energy =                       -174.4895793156323123

Computation Completed


Properties will be evaluated at   0.000000,   0.000000,   0.000000 [a0]

Properties computed using the SCF density matrix

  Nuclear Dipole Moment: [e a0]
     X:     1.7927      Y:    -0.0078      Z:     0.0023

  Electronic Dipole Moment: [e a0]
     X:    -1.5743      Y:     0.0095      Z:    -0.0051

  Dipole Moment: [e a0]
     X:     0.2184      Y:     0.0017      Z:    -0.0029     Total:     0.2185

  Dipole Moment: [D]
     X:     0.5552      Y:     0.0043      Z:    -0.0073     Total:     0.5553


*** tstop() called on n078 at Mon Mar 14 17:42:35 2022
Module time:
	user time   =     127.37 seconds =       2.12 minutes
	system time =       1.76 seconds =       0.03 minutes
	total time  =         33 seconds =       0.55 minutes
Total time:
	user time   =     127.37 seconds =       2.12 minutes
	system time =       1.76 seconds =       0.03 minutes
	total time  =         33 seconds =       0.55 minutes
Grab this energy -174.4895793156323
    Psi4 stopped on: Monday, 14 March 2022 05:42PM
    Psi4 wall time for execution: 0:00:33.30

*** Psi4 exiting successfully. Buy a developer a beer!
