
    -----------------------------------------------------------------------
          Psi4: An Open-Source Ab Initio Electronic Structure Package
                               Psi4 1.4a2.dev629 

                         Git: Rev {master} 2938fc2 dirty


    D. G. A. Smith, L. A. Burns, A. C. Simmonett, R. M. Parrish,
    M. C. Schieber, R. Galvelis, P. Kraus, H. Kruse, R. Di Remigio,
    A. Alenaizan, A. M. James, S. Lehtola, J. P. Misiewicz, M. Scheurer,
    R. A. Shaw, J. B. Schriber, Y. Xie, Z. L. Glick, D. A. Sirianni,
    J. S. O'Brien, J. M. Waldrop, A. Kumar, E. G. Hohenstein,
    B. P. Pritchard, B. R. Brooks, H. F. Schaefer III, A. Yu. Sokolov,
    K. Patkowski, A. E. DePrince III, U. Bozkaya, R. A. King,
    F. A. Evangelista, J. M. Turney, T. D. Crawford, C. D. Sherrill,
    J. Chem. Phys. 152(18) 184108 (2020). https://doi.org/10.1063/5.0006002

                            Additional Code Authors
    E. T. Seidl, C. L. Janssen, E. F. Valeev, M. L. Leininger,
    J. F. Gonthier, R. M. Richard, H. R. McAlexander, M. Saitow, X. Wang,
    P. Verma, and M. H. Lechner

             Previous Authors, Complete List of Code Contributors,
                       and Citations for Specific Modules
    https://github.com/psi4/psi4/blob/master/codemeta.json
    https://github.com/psi4/psi4/graphs/contributors
    http://psicode.org/psi4manual/master/introduction.html#citing-psifour

    -----------------------------------------------------------------------


    Psi4 started on: Monday, 14 March 2022 05:11PM

    Process ID: 14298
    Host:       n029
    PSIDATADIR: /opt/psi/4/master/share/psi4
    Memory:     500.0 MiB
    Threads:    4
    
  ==> Input File <==

--------------------------------------------------------------------------
import os
memory 14 GB 
 
molecule {
 X   -2.6056733900    0.0000000000   -0.0000000000
 N   -0.7159483765    0.0000022785   -0.0001616027
 C    0.1764257121   -1.2998123395   -2.2531813256
 C    0.1773780758    2.6029376636    0.0004564416
 C    0.1783308283   -1.3031194062    2.2552341617
 H    2.2616958499   -1.3624250224   -2.3634113152
 H   -0.5274017865   -0.3435074772   -3.9426111161
 H   -0.5296605010   -3.2367251690   -2.2623867487
 H    2.2616121966    2.7274275376    0.0020070314
 H   -0.5277257289    3.5856460878    1.6739738388
 H   -0.5300420820    3.5771692314   -1.6718921970
 H    2.2615270687   -1.3650019267    2.3606294785
 H   -0.5281092980   -3.2422870855    2.2678510366
 H   -0.5303586484   -0.3403043823    3.9334923167
units bohr
}

basis {

assign 6-31g_2dfp_

[ 6-31g_2dfp_ ]

spherical

!----------------------------------------------------------------------
! Basis Set Exchange
! Version v0.8.13
! https://www.basissetexchange.org
!----------------------------------------------------------------------
!   Basis set: 6-31G(2df,p)
! Description: 6-31G(2df,p)
!        Role: orbital
!     Version: 0  (Data from the original Basis Set Exchange)
!----------------------------------------------------------------------


****
H     0
S    3   1.00
     18.7311370              0.03349460
      2.8253937              0.23472695
      0.6401217              0.81375733
S    1   1.00
      0.1612778              1.00000000
P    1   1.00
      1.5000000              1.0000000
P    1   1.00
      0.3750000              1.0000000
****
B     0
S    6   1.00
   2068.8823000              0.0018663
    310.6495700              0.0142515
     70.6830330              0.0695516
     19.8610800              0.2325729
      6.2993048              0.4670787
      2.1270270              0.3634314
SP   3   1.00
      4.7279710             -0.1303938              0.0745976
      1.1903377             -0.1307889              0.3078467
      0.3594117              1.1309444              0.7434568
SP   1   1.00
      0.1267512              1.0000000              1.0000000
D    1   1.00
      0.8020000              1.0000000
D    1   1.00
      0.2005000              1.0000000
F    1   1.00
      0.5000000              1.0000000
****
C     0
S    6   1.00
   3047.5249000              0.0018347
    457.3695100              0.0140373
    103.9486900              0.0688426
     29.2101550              0.2321844
      9.2866630              0.4679413
      3.1639270              0.3623120
SP   3   1.00
      7.8682724             -0.1193324              0.0689991
      1.8812885             -0.1608542              0.3164240
      0.5442493              1.1434564              0.7443083
SP   1   1.00
      0.1687144              1.0000000              1.0000000
D    1   1.00
      1.2520000              1.0000000
D    1   1.00
      0.3130000              1.0000000
F    1   1.00
      0.8000000              1.0000000
****
N     0
S    6   1.00
   4173.5110000              0.0018348
    627.4579000              0.0139950
    142.9021000              0.0685870
     40.2343300              0.2322410
     12.8202100              0.4690700
      4.3904370              0.3604550
SP   3   1.00
     11.6263580             -0.1149610              0.0675800
      2.7162800             -0.1691180              0.3239070
      0.7722180              1.1458520              0.7408950
SP   1   1.00
      0.2120313              1.0000000              1.0000000
D    1   1.00
      1.8260000              1.0000000
D    1   1.00
      0.4565000              1.0000000
F    1   1.00
      1.0000000              1.0000000
****
O     0
S    6   1.00
   5484.6717000              0.0018311
    825.2349500              0.0139501
    188.0469600              0.0684451
     52.9645000              0.2327143
     16.8975700              0.4701930
      5.7996353              0.3585209
SP   3   1.00
     15.5396160             -0.1107775              0.0708743
      3.5999336             -0.1480263              0.3397528
      1.0137618              1.1307670              0.7271586
SP   1   1.00
      0.2700058              1.0000000              1.0000000
D    1   1.00
      2.5840000              1.0000000
D    1   1.00
      0.6460000              1.0000000
F    1   1.00
      1.4000000              1.0000000
****
F     0
S    6   1.00
   7001.7130900              0.0018196169
   1051.3660900              0.0139160796
    239.2856900              0.0684053245
     67.3974453              0.233185760
     21.5199573              0.471267439
      7.40310130             0.356618546
SP   3   1.00
     20.8479528             -0.108506975            0.0716287243
      4.80830834            -0.146451658            0.3459121030
      1.34406986             1.128688580            0.7224699570
SP   1   1.00
      0.358151393            1.0000000              1.0000000
D    1   1.00
      3.5000000              1.0000000
D    1   1.00
      0.8750000              1.0000000
F    1   1.00
      1.8500000              1.0000000
****
Al     0
S    6   1.00
  13983.1000000              0.00194267
   2098.7500000              0.0148599
    477.7050000              0.0728494
    134.3600000              0.2468300
     42.8709000              0.4872580
     14.5189000              0.3234960
SP   6   1.00
    239.6680000             -0.00292619             0.00460285
     57.4419000             -0.0374080              0.0331990
     18.2859000             -0.1144870              0.1362820
      6.5991400              0.1156350              0.3304760
      2.4904900              0.6125950              0.4491460
      0.9445400              0.3937990              0.2657040
SP   3   1.00
      1.2779000             -0.2276060             -0.0175130
      0.3975900              0.00144583             0.2445330
      0.1600950              1.0927900              0.8049340
SP   1   1.00
      0.0556577              1.0000000              1.0000000
D    1   1.00
      0.6500000              1.0000000
D    1   1.00
      0.1625000              1.0000000
F    1   1.00
      0.2500000              1.0000000
****
Si     0
S    6   1.00
  16115.9000000              0.00195948
   2425.5800000              0.01492880
    553.8670000              0.07284780
    156.3400000              0.24613000
     50.0683000              0.48591400
     17.0178000              0.32500200
SP   6   1.00
    292.7180000             -0.00278094             0.00443826
     69.8731000             -0.03571460             0.03266790
     22.3363000             -0.11498500             0.13472100
      8.1503900              0.09356340             0.32867800
      3.1345800              0.60301700             0.44964000
      1.2254300              0.41895900             0.26137200
SP   3   1.00
      1.7273800             -0.24463000            -0.01779510
      0.5729220              0.00431572             0.25353900
      0.2221920              1.09818000             0.80066900
SP   1   1.00
      0.0778369              1.00000000             1.00000000
D    1   1.00
      0.9000000              1.0000000
D    1   1.00
      0.2250000              1.0000000
F    1   1.00
      0.3200000              1.0000000
****
P     0
S    6   1.00
  19413.3000000              0.0018516
   2909.4200000              0.0142062
    661.3640000              0.0699995
    185.7590000              0.2400790
     59.1943000              0.4847620
     20.0310000              0.3352000
SP   6   1.00
    339.4780000             -0.00278217             0.00456462
     81.0101000             -0.0360499              0.03369360
     25.8780000             -0.1166310              0.13975500
      9.4522100              0.0968328              0.33936200
      3.6656600              0.6144180              0.45092100
      1.4674600              0.4037980              0.23858600
SP   3   1.00
      2.1562300             -0.2529230             -0.01776530
      0.7489970              0.0328517              0.27405800
      0.2831450              1.0812500              0.78542100
SP   1   1.00
      0.0998317              1.0000000              1.00000000
D    1   1.00
      1.1000000              1.0000000
D    1   1.00
      0.2750000              1.0000000
F    1   1.00
      0.4500000              1.0000000
****
S     0
S    6   1.00
  21917.1000000              0.0018690
   3301.4900000              0.0142300
    754.1460000              0.0696960
    212.7110000              0.2384870
     67.9896000              0.4833070
     23.0515000              0.3380740
SP   6   1.00
    423.7350000             -0.0023767              0.0040610
    100.7100000             -0.0316930              0.0306810
     32.1599000             -0.1133170              0.1304520
     11.8079000              0.0560900              0.3272050
      4.6311000              0.5922550              0.4528510
      1.8702500              0.4550060              0.2560420
SP   3   1.00
      2.6158400             -0.2503740             -0.0145110
      0.9221670              0.0669570              0.3102630
      0.3412870              1.0545100              0.7544830
SP   1   1.00
      0.1171670              1.0000000              1.0000000
D    1   1.00
      1.3000000              1.0000000
D    1   1.00
      0.3250000              1.0000000
F    1   1.00
      0.5500000              1.0000000
****
Cl     0
S    6   1.00
  25180.1000000              0.0018330
   3780.3500000              0.0140340
    860.4740000              0.0690970
    242.1450000              0.2374520
     77.3349000              0.4830340
     26.2470000              0.3398560
SP   6   1.00
    491.7650000             -0.0022974              0.0039894
    116.9840000             -0.0307140              0.0303180
     37.4153000             -0.1125280              0.1298800
     13.7834000              0.0450160              0.3279510
      5.4521500              0.5893530              0.4535270
      2.2258800              0.4652060              0.2521540
SP   3   1.00
      3.1864900             -0.2518300             -0.0142990
      1.1442700              0.0615890              0.3235720
      0.4203770              1.0601800              0.7435070
SP   1   1.00
      0.1426570              1.0000000              1.0000000
D    1   1.00
      1.5000000              1.0000000
D    1   1.00
      0.3750000              1.0000000
F    1   1.00
      0.7000000              1.0000000
****
}


set {
reference rhf                          
freeze_core true
e_convergence 10                       
d_convergence 10                      
dft_spherical_points 1202
dft_radial_points 99
}

e = energy('b3lyp')

print_out('Grab this energy {0}'.format(e))
--------------------------------------------------------------------------

  Memory set to  13.039 GiB by Python driver.

Scratch directory: /tmp/

*** tstart() called on n029
*** at Mon Mar 14 17:11:38 2022

   => Loading Basis Set <=

    Name: ANONYMOUS07F5AE70
    Role: ORBITAL
    Keyword: BASIS
    atoms 1    entry N          line    69 inputblock 6-31g_2dfp_ 
    atoms 2-4  entry C          line    48 inputblock 6-31g_2dfp_ 
    atoms 5-13 entry H          line    15 inputblock 6-31g_2dfp_ 


         ---------------------------------------------------------
                                   SCF
               by Justin Turney, Rob Parrish, Andy Simmonett
                          and Daniel G. A. Smith
                              RKS Reference
                        4 Threads,  13351 MiB Core
         ---------------------------------------------------------

  ==> Geometry <==

    Molecular point group: c1
    Full point group: C1

    Geometry (in Bohr), charge = 0, multiplicity = 1:

       Center              X                  Y                   Z               Mass       
    ------------   -----------------  -----------------  -----------------  -----------------
         N           -0.715947272101     0.000000676254    -0.000592969599    14.003074004430
         C            0.176426816499    -1.299813941746    -2.253612692499    12.000000000000
         C            0.177379180199     2.602936061354     0.000025074701    12.000000000000
         C            0.178331932699    -1.303121008446     2.254802794801    12.000000000000
         H            2.261696954299    -1.362426624646    -2.363842682099     1.007825032230
         H           -0.527400682101    -0.343509079446    -3.943042482999     1.007825032230
         H           -0.529659396601    -3.236726771246    -2.262818115599     1.007825032230
         H            2.261613300999     2.727425935354     0.001575664501     1.007825032230
         H           -0.527724624501     3.585644485554     1.673542471901     1.007825032230
         H           -0.530040977601     3.577167629154    -1.672323563899     1.007825032230
         H            2.261528173099    -1.365003528946     2.360198111601     1.007825032230
         H           -0.528108193601    -3.242288687746     2.267419669701     1.007825032230
         H           -0.530357544001    -0.340305984546     3.933060949801     1.007825032230

  Running in c1 symmetry.

  Rotational constants: A =      0.29250  B =      0.29222  C =      0.16681 [cm^-1]
  Rotational constants: A =   8768.85846  B =   8760.60647  C =   5000.86471 [MHz]
  Nuclear repulsion =  138.836108060362164

  Charge       = 0
  Multiplicity = 1
  Electrons    = 34
  Nalpha       = 17
  Nbeta        = 17

  ==> Algorithm <==

  SCF Algorithm Type is DF.
  DIIS enabled.
  MOM disabled.
  Fractional occupation disabled.
  Guess Type is SAD.
  Energy threshold   = 1.00e-10
  Density threshold  = 1.00e-10
  Integral threshold = 0.00e+00

  ==> Primary Basis <==

  Basis Set: ANONYMOUS07F5AE70
    Blend: 6-31G_2DFP_
    Number of shells: 68
    Number of basis function: 176
    Number of Cartesian functions: 196
    Spherical Harmonics?: true
    Max angular momentum: 3

  ==> DFT Potential <==

   => Composite Functional: B3LYP <= 

    B3LYP Hyb-GGA Exchange-Correlation Functional

    P. J. Stephens, F. J. Devlin, C. F. Chabalowski, and M. J. Frisch, J. Phys. Chem. 98, 11623 (1994)

    Deriv               =              1
    GGA                 =           TRUE
    Meta                =          FALSE

    Exchange Hybrid     =           TRUE
    MP2 Hybrid          =          FALSE

   => Exchange Functionals <=

    0.0800   Slater exchange
    0.7200         Becke 88

   => Exact (HF) Exchange <=

    0.2000               HF 

   => Correlation Functionals <=

    0.1900   Vosko, Wilk & Nusair (VWN5_RPA)
    0.8100   Lee, Yang & Parr

   => Molecular Quadrature <=

    Radial Scheme          =       TREUTLER
    Pruning Scheme         =           NONE
    Nuclear Scheme         =       TREUTLER

    BS radius alpha        =              1
    Pruning alpha          =              1
    Radial Points          =             99
    Spherical Points       =           1202
    Total Points           =        1438362
    Total Blocks           =           9590
    Max Points             =            256
    Max Functions          =            176
    Weights Tolerance      =       1.00E-15

   => Loading Basis Set <=

    Name: (ANONYMOUS07F5AE70 AUX)
    Role: JKFIT
    Keyword: DF_BASIS_SCF
    atoms 1    entry N          line   258 file /opt/psi/4/master/share/psi4/basis/def2-universal-jkfit.gbs 
    atoms 2-4  entry C          line   198 file /opt/psi/4/master/share/psi4/basis/def2-universal-jkfit.gbs 
    atoms 5-13 entry H          line    18 file /opt/psi/4/master/share/psi4/basis/def2-universal-jkfit.gbs 

  ==> Integral Setup <==

  DFHelper Memory: AOs need 0.115 GiB; user supplied 3.770 GiB. Using in-core AOs.

  ==> MemDFJK: Density-Fitted J/K Matrices <==

    J tasked:                   Yes
    K tasked:                   Yes
    wK tasked:                   No
    OpenMP threads:               4
    Memory [MiB]:              3860
    Algorithm:                 Core
    Schwarz Cutoff:           1E-12
    Mask sparsity (%):       1.0589
    Fitting Condition:        1E-10

   => Auxiliary Basis Set <=

  Basis Set: (ANONYMOUS07F5AE70 AUX)
    Blend: DEF2-UNIVERSAL-JKFIT
    Number of shells: 154
    Number of basis function: 464
    Number of Cartesian functions: 540
    Spherical Harmonics?: true
    Max angular momentum: 4

  Cached 100.0% of DFT collocation blocks in 6.009 [GiB].

  Minimum eigenvalue in the overlap matrix is 2.3752758085E-03.
  Reciprocal condition number of the overlap matrix is 3.8705984783E-04.
    Using symmetric orthogonalization.

  ==> Pre-Iterations <==

  SCF Guess: Superposition of Atomic Densities via on-the-fly atomic UHF (no occupation information).

   -------------------------
    Irrep   Nso     Nmo    
   -------------------------
     A        176     176 
   -------------------------
    Total     176     176
   -------------------------

  ==> Iterations <==

                           Total Energy        Delta E     RMS |[F,P]|

   @DF-RKS iter SAD:  -173.87169930332490   -1.73872e+02   0.00000e+00 
   @DF-RKS iter   1:  -174.14775265765820   -2.76053e-01   4.49602e-03 DIIS
   @DF-RKS iter   2:  -173.91500526527304    2.32747e-01   5.82485e-03 DIIS
   @DF-RKS iter   3:  -174.47943772383761   -5.64432e-01   8.83678e-04 DIIS
   @DF-RKS iter   4:  -174.48864529374674   -9.20757e-03   2.70486e-04 DIIS
   @DF-RKS iter   5:  -174.48957196200990   -9.26668e-04   4.13333e-05 DIIS
   @DF-RKS iter   6:  -174.48959506967492   -2.31077e-05   6.42680e-06 DIIS
   @DF-RKS iter   7:  -174.48959578067718   -7.11002e-07   1.69061e-06 DIIS
   @DF-RKS iter   8:  -174.48959583113444   -5.04573e-08   5.68871e-08 DIIS
   @DF-RKS iter   9:  -174.48959583119313   -5.86908e-11   2.25475e-08 DIIS
   @DF-RKS iter  10:  -174.48959583119893   -5.79803e-12   1.28157e-08 DIIS
   @DF-RKS iter  11:  -174.48959583120171   -2.78533e-12   5.43499e-10 DIIS
   @DF-RKS iter  12:  -174.48959583120154    1.70530e-13   4.38267e-11 DIIS
  Energy and wave function converged.


  ==> Post-Iterations <==

    Orbital Energies [Eh]
    ---------------------

    Doubly Occupied:                                                      

       1A    -14.318001     2A    -10.191385     3A    -10.191377  
       4A    -10.191333     5A     -0.915860     6A     -0.698908  
       7A     -0.698829     8A     -0.586946     9A     -0.462375  
      10A     -0.460546    11A     -0.460434    12A     -0.388785  
      13A     -0.388598    14A     -0.364680    15A     -0.354195  
      16A     -0.353967    17A     -0.213633  

    Virtual:                                                              

      18A      0.073853    19A      0.133894    20A      0.133933  
      21A      0.140332    22A      0.145879    23A      0.145937  
      24A      0.164196    25A      0.186605    26A      0.186758  
      27A      0.215670    28A      0.239749    29A      0.240290  
      30A      0.404656    31A      0.409219    32A      0.409265  
      33A      0.434298    34A      0.434410    35A      0.479031  
      36A      0.494289    37A      0.494481    38A      0.524512  
      39A      0.537604    40A      0.591926    41A      0.592112  
      42A      0.610503    43A      0.613832    44A      0.614068  
      45A      0.616787    46A      0.616884    47A      0.630073  
      48A      0.636314    49A      0.680663    50A      0.680784  
      51A      0.727873    52A      0.728031    53A      0.785337  
      54A      0.823730    55A      0.823881    56A      0.886708  
      57A      0.962251    58A      0.962327    59A      0.980768  
      60A      0.998277    61A      1.026583    62A      1.026797  
      63A      1.066120    64A      1.121634    65A      1.121754  
      66A      1.125677    67A      1.222925    68A      1.223781  
      69A      1.224385    70A      1.295016    71A      1.295699  
      72A      1.329937    73A      1.346010    74A      1.346342  
      75A      1.363090    76A      1.400729    77A      1.400988  
      78A      1.436393    79A      1.437451    80A      1.437790  
      81A      1.450072    82A      1.479639    83A      1.479787  
      84A      1.513987    85A      1.656645    86A      1.667600  
      87A      1.668069    88A      1.739514    89A      1.758208  
      90A      1.758754    91A      1.807987    92A      1.819513  
      93A      1.820077    94A      1.866036    95A      1.866682  
      96A      1.965840    97A      2.021393    98A      2.022020  
      99A      2.069398   100A      2.195293   101A      2.197256  
     102A      2.859454   103A      2.859959   104A      2.889090  
     105A      2.926439   106A      2.926485   107A      2.962836  
     108A      2.978607   109A      2.984634   110A      2.985119  
     111A      3.022943   112A      3.022958   113A      3.043216  
     114A      3.095794   115A      3.095898   116A      3.154782  
     117A      3.187272   118A      3.234088   119A      3.323697  
     120A      3.324466   121A      3.367222   122A      3.374783  
     123A      3.374989   124A      3.448288   125A      3.448691  
     126A      3.519400   127A      3.560830   128A      3.561313  
     129A      3.651730   130A      3.651783   131A      3.663516  
     132A      3.760304   133A      3.781500   134A      3.781731  
     135A      3.789708   136A      3.805891   137A      3.806182  
     138A      3.973009   139A      4.078042   140A      4.118950  
     141A      4.119433   142A      4.164666   143A      4.164888  
     144A      4.224878   145A      4.235175   146A      4.235755  
     147A      4.332364   148A      4.333257   149A      4.354558  
     150A      4.389512   151A      4.391351   152A      4.435030  
     153A      4.468250   154A      4.468740   155A      4.486448  
     156A      4.541052   157A      4.761558   158A      4.761718  
     159A      4.779213   160A      4.972650   161A      4.974478  
     162A      4.990900   163A      4.991145   164A      5.096193  
     165A      5.141659   166A      5.238842   167A      5.243878  
     168A      5.243952   169A      5.298295   170A      5.299005  
     171A      5.455133   172A      5.455776   173A      5.516689  
     174A      5.557447   175A      5.837526   176A      5.839653  

    Final Occupation by Irrep:
              A 
    DOCC [    17 ]

  @DF-RKS Final Energy:  -174.48959583120154

   => Energetics <=

    Nuclear Repulsion Energy =            138.8361080603621645
    One-Electron Energy =                -508.6975501692799071
    Two-Electron Energy =                 216.8980538897078532
    DFT Exchange-Correlation Energy =     -21.5262076119916479
    Empirical Dispersion Energy =           0.0000000000000000
    VV10 Nonlocal Energy =                  0.0000000000000000
    Total Energy =                       -174.4895958312015409

Computation Completed


Properties will be evaluated at   0.000000,   0.000000,   0.000000 [a0]

Properties computed using the SCF density matrix

  Nuclear Dipole Moment: [e a0]
     X:     1.7927      Y:    -0.0000      Z:    -0.0031

  Electronic Dipole Moment: [e a0]
     X:    -1.5743      Y:     0.0000      Z:     0.0048

  Dipole Moment: [e a0]
     X:     0.2184      Y:    -0.0000      Z:     0.0017     Total:     0.2184

  Dipole Moment: [D]
     X:     0.5552      Y:    -0.0000      Z:     0.0044     Total:     0.5552


*** tstop() called on n029 at Mon Mar 14 17:12:14 2022
Module time:
	user time   =     141.35 seconds =       2.36 minutes
	system time =       1.41 seconds =       0.02 minutes
	total time  =         36 seconds =       0.60 minutes
Total time:
	user time   =     141.35 seconds =       2.36 minutes
	system time =       1.41 seconds =       0.02 minutes
	total time  =         36 seconds =       0.60 minutes
Grab this energy -174.48959583120154
    Psi4 stopped on: Monday, 14 March 2022 05:12PM
    Psi4 wall time for execution: 0:00:36.62

*** Psi4 exiting successfully. Buy a developer a beer!
