
    -----------------------------------------------------------------------
          Psi4: An Open-Source Ab Initio Electronic Structure Package
                               Psi4 1.4a2.dev629 

                         Git: Rev {master} 2938fc2 dirty


    D. G. A. Smith, L. A. Burns, A. C. Simmonett, R. M. Parrish,
    M. C. Schieber, R. Galvelis, P. Kraus, H. Kruse, R. Di Remigio,
    A. Alenaizan, A. M. James, S. Lehtola, J. P. Misiewicz, M. Scheurer,
    R. A. Shaw, J. B. Schriber, Y. Xie, Z. L. Glick, D. A. Sirianni,
    J. S. O'Brien, J. M. Waldrop, A. Kumar, E. G. Hohenstein,
    B. P. Pritchard, B. R. Brooks, H. F. Schaefer III, A. Yu. Sokolov,
    K. Patkowski, A. E. DePrince III, U. Bozkaya, R. A. King,
    F. A. Evangelista, J. M. Turney, T. D. Crawford, C. D. Sherrill,
    J. Chem. Phys. 152(18) 184108 (2020). https://doi.org/10.1063/5.0006002

                            Additional Code Authors
    E. T. Seidl, C. L. Janssen, E. F. Valeev, M. L. Leininger,
    J. F. Gonthier, R. M. Richard, H. R. McAlexander, M. Saitow, X. Wang,
    P. Verma, and M. H. Lechner

             Previous Authors, Complete List of Code Contributors,
                       and Citations for Specific Modules
    https://github.com/psi4/psi4/blob/master/codemeta.json
    https://github.com/psi4/psi4/graphs/contributors
    http://psicode.org/psi4manual/master/introduction.html#citing-psifour

    -----------------------------------------------------------------------


    Psi4 started on: Friday, 12 November 2021 12:28PM

    Process ID: 10303
    Host:       n091
    PSIDATADIR: /opt/psi/4/master/share/psi4
    Memory:     500.0 MiB
    Threads:    4
    
  ==> Input File <==

--------------------------------------------------------------------------
import os
memory 14 GB 
 
molecule {
 N   -0.7169650433    0.0016479368    0.0000000001
 C    0.1766430923   -1.3011000470   -2.2551691256
 C    0.1758675457    2.6027593710    0.0000000000
 C    0.1766430923   -1.3011000469    2.2551691256
 H    2.2653448944   -1.3620131450   -2.3656682532
 H   -0.5302374105   -0.3467588011   -3.9402924930
 H   -0.5297127159   -3.2358029807   -2.2610944297
 H    2.2637127550    2.7223926131    0.0000000002
 H   -0.5294838341    3.5822750085    1.6698253526
 H   -0.5294838340    3.5822750080   -1.6698253527
 H    2.2653448944   -1.3620131447    2.3656682529
 H   -0.5297127159   -3.2358029806    2.2610944295
 H   -0.5302374105   -0.3467588014    3.9402924932
units bohr
}

basis {

assign 6-31g_2dfp_

[ 6-31g_2dfp_ ]

spherical

!----------------------------------------------------------------------
! Basis Set Exchange
! Version v0.8.13
! https://www.basissetexchange.org
!----------------------------------------------------------------------
!   Basis set: 6-31G(2df,p)
! Description: 6-31G(2df,p)
!        Role: orbital
!     Version: 0  (Data from the original Basis Set Exchange)
!----------------------------------------------------------------------


****
H     0
S    3   1.00
     18.7311370              0.03349460
      2.8253937              0.23472695
      0.6401217              0.81375733
S    1   1.00
      0.1612778              1.00000000
P    1   1.00
      1.5000000              1.0000000
P    1   1.00
      0.3750000              1.0000000
****
B     0
S    6   1.00
   2068.8823000              0.0018663
    310.6495700              0.0142515
     70.6830330              0.0695516
     19.8610800              0.2325729
      6.2993048              0.4670787
      2.1270270              0.3634314
SP   3   1.00
      4.7279710             -0.1303938              0.0745976
      1.1903377             -0.1307889              0.3078467
      0.3594117              1.1309444              0.7434568
SP   1   1.00
      0.1267512              1.0000000              1.0000000
D    1   1.00
      0.8020000              1.0000000
D    1   1.00
      0.2005000              1.0000000
F    1   1.00
      0.5000000              1.0000000
****
C     0
S    6   1.00
   3047.5249000              0.0018347
    457.3695100              0.0140373
    103.9486900              0.0688426
     29.2101550              0.2321844
      9.2866630              0.4679413
      3.1639270              0.3623120
SP   3   1.00
      7.8682724             -0.1193324              0.0689991
      1.8812885             -0.1608542              0.3164240
      0.5442493              1.1434564              0.7443083
SP   1   1.00
      0.1687144              1.0000000              1.0000000
D    1   1.00
      1.2520000              1.0000000
D    1   1.00
      0.3130000              1.0000000
F    1   1.00
      0.8000000              1.0000000
****
N     0
S    6   1.00
   4173.5110000              0.0018348
    627.4579000              0.0139950
    142.9021000              0.0685870
     40.2343300              0.2322410
     12.8202100              0.4690700
      4.3904370              0.3604550
SP   3   1.00
     11.6263580             -0.1149610              0.0675800
      2.7162800             -0.1691180              0.3239070
      0.7722180              1.1458520              0.7408950
SP   1   1.00
      0.2120313              1.0000000              1.0000000
D    1   1.00
      1.8260000              1.0000000
D    1   1.00
      0.4565000              1.0000000
F    1   1.00
      1.0000000              1.0000000
****
O     0
S    6   1.00
   5484.6717000              0.0018311
    825.2349500              0.0139501
    188.0469600              0.0684451
     52.9645000              0.2327143
     16.8975700              0.4701930
      5.7996353              0.3585209
SP   3   1.00
     15.5396160             -0.1107775              0.0708743
      3.5999336             -0.1480263              0.3397528
      1.0137618              1.1307670              0.7271586
SP   1   1.00
      0.2700058              1.0000000              1.0000000
D    1   1.00
      2.5840000              1.0000000
D    1   1.00
      0.6460000              1.0000000
F    1   1.00
      1.4000000              1.0000000
****
F     0
S    6   1.00
   7001.7130900              0.0018196169
   1051.3660900              0.0139160796
    239.2856900              0.0684053245
     67.3974453              0.233185760
     21.5199573              0.471267439
      7.40310130             0.356618546
SP   3   1.00
     20.8479528             -0.108506975            0.0716287243
      4.80830834            -0.146451658            0.3459121030
      1.34406986             1.128688580            0.7224699570
SP   1   1.00
      0.358151393            1.0000000              1.0000000
D    1   1.00
      3.5000000              1.0000000
D    1   1.00
      0.8750000              1.0000000
F    1   1.00
      1.8500000              1.0000000
****
Al     0
S    6   1.00
  13983.1000000              0.00194267
   2098.7500000              0.0148599
    477.7050000              0.0728494
    134.3600000              0.2468300
     42.8709000              0.4872580
     14.5189000              0.3234960
SP   6   1.00
    239.6680000             -0.00292619             0.00460285
     57.4419000             -0.0374080              0.0331990
     18.2859000             -0.1144870              0.1362820
      6.5991400              0.1156350              0.3304760
      2.4904900              0.6125950              0.4491460
      0.9445400              0.3937990              0.2657040
SP   3   1.00
      1.2779000             -0.2276060             -0.0175130
      0.3975900              0.00144583             0.2445330
      0.1600950              1.0927900              0.8049340
SP   1   1.00
      0.0556577              1.0000000              1.0000000
D    1   1.00
      0.6500000              1.0000000
D    1   1.00
      0.1625000              1.0000000
F    1   1.00
      0.2500000              1.0000000
****
Si     0
S    6   1.00
  16115.9000000              0.00195948
   2425.5800000              0.01492880
    553.8670000              0.07284780
    156.3400000              0.24613000
     50.0683000              0.48591400
     17.0178000              0.32500200
SP   6   1.00
    292.7180000             -0.00278094             0.00443826
     69.8731000             -0.03571460             0.03266790
     22.3363000             -0.11498500             0.13472100
      8.1503900              0.09356340             0.32867800
      3.1345800              0.60301700             0.44964000
      1.2254300              0.41895900             0.26137200
SP   3   1.00
      1.7273800             -0.24463000            -0.01779510
      0.5729220              0.00431572             0.25353900
      0.2221920              1.09818000             0.80066900
SP   1   1.00
      0.0778369              1.00000000             1.00000000
D    1   1.00
      0.9000000              1.0000000
D    1   1.00
      0.2250000              1.0000000
F    1   1.00
      0.3200000              1.0000000
****
P     0
S    6   1.00
  19413.3000000              0.0018516
   2909.4200000              0.0142062
    661.3640000              0.0699995
    185.7590000              0.2400790
     59.1943000              0.4847620
     20.0310000              0.3352000
SP   6   1.00
    339.4780000             -0.00278217             0.00456462
     81.0101000             -0.0360499              0.03369360
     25.8780000             -0.1166310              0.13975500
      9.4522100              0.0968328              0.33936200
      3.6656600              0.6144180              0.45092100
      1.4674600              0.4037980              0.23858600
SP   3   1.00
      2.1562300             -0.2529230             -0.01776530
      0.7489970              0.0328517              0.27405800
      0.2831450              1.0812500              0.78542100
SP   1   1.00
      0.0998317              1.0000000              1.00000000
D    1   1.00
      1.1000000              1.0000000
D    1   1.00
      0.2750000              1.0000000
F    1   1.00
      0.4500000              1.0000000
****
S     0
S    6   1.00
  21917.1000000              0.0018690
   3301.4900000              0.0142300
    754.1460000              0.0696960
    212.7110000              0.2384870
     67.9896000              0.4833070
     23.0515000              0.3380740
SP   6   1.00
    423.7350000             -0.0023767              0.0040610
    100.7100000             -0.0316930              0.0306810
     32.1599000             -0.1133170              0.1304520
     11.8079000              0.0560900              0.3272050
      4.6311000              0.5922550              0.4528510
      1.8702500              0.4550060              0.2560420
SP   3   1.00
      2.6158400             -0.2503740             -0.0145110
      0.9221670              0.0669570              0.3102630
      0.3412870              1.0545100              0.7544830
SP   1   1.00
      0.1171670              1.0000000              1.0000000
D    1   1.00
      1.3000000              1.0000000
D    1   1.00
      0.3250000              1.0000000
F    1   1.00
      0.5500000              1.0000000
****
Cl     0
S    6   1.00
  25180.1000000              0.0018330
   3780.3500000              0.0140340
    860.4740000              0.0690970
    242.1450000              0.2374520
     77.3349000              0.4830340
     26.2470000              0.3398560
SP   6   1.00
    491.7650000             -0.0022974              0.0039894
    116.9840000             -0.0307140              0.0303180
     37.4153000             -0.1125280              0.1298800
     13.7834000              0.0450160              0.3279510
      5.4521500              0.5893530              0.4535270
      2.2258800              0.4652060              0.2521540
SP   3   1.00
      3.1864900             -0.2518300             -0.0142990
      1.1442700              0.0615890              0.3235720
      0.4203770              1.0601800              0.7435070
SP   1   1.00
      0.1426570              1.0000000              1.0000000
D    1   1.00
      1.5000000              1.0000000
D    1   1.00
      0.3750000              1.0000000
F    1   1.00
      0.7000000              1.0000000
****
}


set {
reference rhf                          
freeze_core true
e_convergence 10                       
d_convergence 10                      
dft_spherical_points 1202
dft_radial_points 99
}

e = energy('b3lyp')

print_out('Grab this energy {0}'.format(e))
--------------------------------------------------------------------------

  Memory set to  13.039 GiB by Python driver.

Scratch directory: /tmp/

*** tstart() called on n091
*** at Fri Nov 12 12:28:17 2021

   => Loading Basis Set <=

    Name: ANONYMOUSE58EC44A
    Role: ORBITAL
    Keyword: BASIS
    atoms 1    entry N          line    69 inputblock 6-31g_2dfp_ 
    atoms 2-4  entry C          line    48 inputblock 6-31g_2dfp_ 
    atoms 5-13 entry H          line    15 inputblock 6-31g_2dfp_ 


         ---------------------------------------------------------
                                   SCF
               by Justin Turney, Rob Parrish, Andy Simmonett
                          and Daniel G. A. Smith
                              RKS Reference
                        4 Threads,  13351 MiB Core
         ---------------------------------------------------------

  ==> Geometry <==

    Molecular point group: cs
    Full point group: Cs

    Geometry (in Bohr), charge = 0, multiplicity = 1:

       Center              X                  Y                   Z               Mass       
    ------------   -----------------  -----------------  -----------------  -----------------
         N            0.001181348381     0.716185615993     0.000000000000    14.003074004430
         C           -1.301566635369    -0.177422519607    -2.255169125600    12.000000000000
         C            2.602292782581    -0.176646973007     0.000000000000    12.000000000000
         C           -1.301566635369    -0.177422519607     2.255169125600    12.000000000000
         H           -1.362479733269    -2.266124321707    -2.365668253050     1.007825032230
         H           -0.347225389669     0.529457983193    -3.940292493100     1.007825032230
         H           -3.236269569069     0.528933288593    -2.261094429600     1.007825032230
         H            2.721926024681    -2.264492182307     0.000000000000     1.007825032230
         H            3.581808419831     0.528704406743     1.669825352650     1.007825032230
         H            3.581808419831     0.528704406743    -1.669825352650     1.007825032230
         H           -1.362479733269    -2.266124321707     2.365668253050     1.007825032230
         H           -3.236269569069     0.528933288593     2.261094429600     1.007825032230
         H           -0.347225389669     0.529457983193     3.940292493100     1.007825032230

  Running in cs symmetry.

  Rotational constants: A =      0.29242  B =      0.29211  C =      0.16680 [cm^-1]
  Rotational constants: A =   8766.55060  B =   8757.33890  C =   5000.63622 [MHz]
  Nuclear repulsion =  138.824808446308623

  Charge       = 0
  Multiplicity = 1
  Electrons    = 34
  Nalpha       = 17
  Nbeta        = 17

  ==> Algorithm <==

  SCF Algorithm Type is DF.
  DIIS enabled.
  MOM disabled.
  Fractional occupation disabled.
  Guess Type is SAD.
  Energy threshold   = 1.00e-10
  Density threshold  = 1.00e-10
  Integral threshold = 0.00e+00

  ==> Primary Basis <==

  Basis Set: ANONYMOUSE58EC44A
    Blend: 6-31G_2DFP_
    Number of shells: 68
    Number of basis function: 176
    Number of Cartesian functions: 196
    Spherical Harmonics?: true
    Max angular momentum: 3

  ==> DFT Potential <==

   => Composite Functional: B3LYP <= 

    B3LYP Hyb-GGA Exchange-Correlation Functional

    P. J. Stephens, F. J. Devlin, C. F. Chabalowski, and M. J. Frisch, J. Phys. Chem. 98, 11623 (1994)

    Deriv               =              1
    GGA                 =           TRUE
    Meta                =          FALSE

    Exchange Hybrid     =           TRUE
    MP2 Hybrid          =          FALSE

   => Exchange Functionals <=

    0.0800   Slater exchange
    0.7200         Becke 88

   => Exact (HF) Exchange <=

    0.2000               HF 

   => Correlation Functionals <=

    0.1900   Vosko, Wilk & Nusair (VWN5_RPA)
    0.8100   Lee, Yang & Parr

   => Molecular Quadrature <=

    Radial Scheme          =       TREUTLER
    Pruning Scheme         =           NONE
    Nuclear Scheme         =       TREUTLER

    BS radius alpha        =              1
    Pruning alpha          =              1
    Radial Points          =             99
    Spherical Points       =           1202
    Total Points           =        1438328
    Total Blocks           =           9493
    Max Points             =            256
    Max Functions          =            176
    Weights Tolerance      =       1.00E-15

   => Loading Basis Set <=

    Name: (ANONYMOUSE58EC44A AUX)
    Role: JKFIT
    Keyword: DF_BASIS_SCF
    atoms 1    entry N          line   258 file /opt/psi/4/master/share/psi4/basis/def2-universal-jkfit.gbs 
    atoms 2-4  entry C          line   198 file /opt/psi/4/master/share/psi4/basis/def2-universal-jkfit.gbs 
    atoms 5-13 entry H          line    18 file /opt/psi/4/master/share/psi4/basis/def2-universal-jkfit.gbs 

  ==> Integral Setup <==

  DFHelper Memory: AOs need 0.115 GiB; user supplied 3.771 GiB. Using in-core AOs.

  ==> MemDFJK: Density-Fitted J/K Matrices <==

    J tasked:                   Yes
    K tasked:                   Yes
    wK tasked:                   No
    OpenMP threads:               4
    Memory [MiB]:              3861
    Algorithm:                 Core
    Schwarz Cutoff:           1E-12
    Mask sparsity (%):       1.0589
    Fitting Condition:        1E-10

   => Auxiliary Basis Set <=

  Basis Set: (ANONYMOUSE58EC44A AUX)
    Blend: DEF2-UNIVERSAL-JKFIT
    Number of shells: 154
    Number of basis function: 464
    Number of Cartesian functions: 540
    Spherical Harmonics?: true
    Max angular momentum: 4

  Cached 100.0% of DFT collocation blocks in 6.008 [GiB].

  Minimum eigenvalue in the overlap matrix is 2.2139588375E-03.
  Reciprocal condition number of the overlap matrix is 3.8811252126E-04.
    Using symmetric orthogonalization.

  ==> Pre-Iterations <==

  SCF Guess: Superposition of Atomic Densities via on-the-fly atomic UHF (no occupation information).

   -------------------------
    Irrep   Nso     Nmo    
   -------------------------
     A'        98      98 
     A"        78      78 
   -------------------------
    Total     176     176
   -------------------------

  ==> Iterations <==

                           Total Energy        Delta E     RMS |[F,P]|

   @DF-RKS iter SAD:  -173.87088947474260   -1.73871e+02   0.00000e+00 
   @DF-RKS iter   1:  -174.14779094990570   -2.76901e-01   6.31698e-03 DIIS
   @DF-RKS iter   2:  -173.91489742879654    2.32894e-01   8.18482e-03 DIIS
   @DF-RKS iter   3:  -174.47936167725510   -5.64464e-01   1.24566e-03 DIIS
   @DF-RKS iter   4:  -174.48863590434902   -9.27423e-03   3.79910e-04 DIIS
   @DF-RKS iter   5:  -174.48956189688346   -9.25993e-04   5.80329e-05 DIIS
   @DF-RKS iter   6:  -174.48958497134652   -2.30745e-05   9.03793e-06 DIIS
   @DF-RKS iter   7:  -174.48958568413923   -7.12793e-07   2.38618e-06 DIIS
   @DF-RKS iter   8:  -174.48958573499303   -5.08538e-08   1.12640e-07 DIIS
   @DF-RKS iter   9:  -174.48958573503847   -4.54463e-11   9.53103e-08 DIIS
   @DF-RKS iter  10:  -174.48958573510805   -6.95763e-11   1.11608e-08 DIIS
   @DF-RKS iter  11:  -174.48958573510930   -1.25056e-12   7.08794e-10 DIIS
   @DF-RKS iter  12:  -174.48958573510916    1.42109e-13   5.61217e-11 DIIS
  Energy and wave function converged.


  ==> Post-Iterations <==

    Orbital Energies [Eh]
    ---------------------

    Doubly Occupied:                                                      

       1Ap   -14.318106     1App  -10.191461     2Ap   -10.191431  
       3Ap   -10.191165     4Ap    -0.915760     5Ap    -0.698992  
       2App   -0.698803     6Ap    -0.586937     7Ap    -0.462326  
       8Ap    -0.460566     3App   -0.460416     4App   -0.388549  
       9Ap    -0.388408     5App   -0.364895    10Ap    -0.354324  
       6App   -0.354048    11Ap    -0.213697  

    Virtual:                                                              

      12Ap     0.073961     7App    0.133990    13Ap     0.134013  
      14Ap     0.140150    15Ap     0.145904     8App    0.145997  
      16Ap     0.164148     9App    0.186474    17Ap     0.186588  
      10App    0.215923    11App    0.239580    18Ap     0.240196  
      19Ap     0.404674    12App    0.409074    20Ap     0.409076  
      21Ap     0.434439    13App    0.434640    22Ap     0.478823  
      23Ap     0.494465    14App    0.494656    24Ap     0.524363  
      15App    0.537631    16App    0.591756    25Ap     0.592367  
      26Ap     0.609946    17App    0.613353    27Ap     0.613919  
      28Ap     0.616997    18App    0.617179    19App    0.630526  
      29Ap     0.636706    20App    0.680613    30Ap     0.680677  
      31Ap     0.727995    21App    0.728004    32Ap     0.785258  
      33Ap     0.823480    22App    0.823925    23App    0.886378  
      24App    0.962030    34Ap     0.962487    25App    0.981078  
      35Ap     0.998450    36Ap     1.026187    26App    1.027066  
      37Ap     1.065557    38Ap     1.121143    27App    1.122865  
      39Ap     1.125513    28App    1.223014    40Ap     1.223245  
      41Ap     1.224446    29App    1.294600    42Ap     1.295295  
      43Ap     1.330264    30App    1.345825    44Ap     1.346390  
      45Ap     1.362807    31App    1.400738    46Ap     1.401398  
      32App    1.436761    33App    1.437911    47Ap     1.438652  
      34App    1.450009    35App    1.478743    48Ap     1.479014  
      36App    1.513454    49Ap     1.655928    37App    1.666839  
      50Ap     1.668562    51Ap     1.741568    52Ap     1.758221  
      38App    1.759396    53Ap     1.806395    39App    1.819786  
      54Ap     1.820880    55Ap     1.866339    40App    1.867059  
      56Ap     1.965498    57Ap     2.020263    41App    2.021090  
      42App    2.070707    43App    2.195034    58Ap     2.196462  
      59Ap     2.859544    44App    2.859828    60Ap     2.888336  
      61Ap     2.926483    45App    2.926787    46App    2.963066  
      47App    2.978706    48App    2.984533    62Ap     2.985488  
      49App    3.022863    63Ap     3.023245    64Ap     3.043058  
      65Ap     3.095404    50App    3.095857    66Ap     3.155653  
      51App    3.188423    67Ap     3.233166    52App    3.322575  
      68Ap     3.323309    69Ap     3.367620    53App    3.374464  
      70Ap     3.374855    54App    3.448312    71Ap     3.449834  
      55App    3.518319    56App    3.561725    72Ap     3.562112  
      73Ap     3.650890    57App    3.651919    58App    3.662248  
      74Ap     3.760371    59App    3.779749    75Ap     3.781767  
      76Ap     3.789644    77Ap     3.805131    60App    3.808105  
      78Ap     3.971857    79Ap     4.078028    80Ap     4.119842  
      61App    4.119870    62App    4.163401    81Ap     4.164476  
      63App    4.223883    64App    4.236442    82Ap     4.236959  
      65App    4.332908    83Ap     4.333298    84Ap     4.355102  
      85Ap     4.389579    66App    4.390024    67App    4.436709  
      68App    4.466912    86Ap     4.469038    87Ap     4.486931  
      69App    4.540787    70App    4.760595    88Ap     4.762397  
      89Ap     4.777426    90Ap     4.973619    71App    4.974021  
      91Ap     4.988786    72App    4.989776    73App    5.098602  
      92Ap     5.141117    93Ap     5.236658    94Ap     5.244672  
      74App    5.244852    75App    5.300156    95Ap     5.300261  
      76App    5.453474    96Ap     5.454129    97Ap     5.516211  
      77App    5.558092    78App    5.837041    98Ap     5.839109  

    Final Occupation by Irrep:
             Ap   App 
    DOCC [    11,    6 ]

  @DF-RKS Final Energy:  -174.48958573510916

   => Energetics <=

    Nuclear Repulsion Energy =            138.8248084463086229
    One-Electron Energy =                -508.6749296297459182
    Two-Electron Energy =                 216.8866436652842253
    DFT Exchange-Correlation Energy =     -21.5261082169560893
    Empirical Dispersion Energy =           0.0000000000000000
    VV10 Nonlocal Energy =                  0.0000000000000000
    Total Energy =                       -174.4895857351091593

Computation Completed


Properties will be evaluated at   0.000000,   0.000000,   0.000000 [a0]

Properties computed using the SCF density matrix

  Nuclear Dipole Moment: [e a0]
     X:    -0.0032      Y:    -1.7982      Z:     0.0000

  Electronic Dipole Moment: [e a0]
     X:     0.0020      Y:     1.5834      Z:     0.0000

  Dipole Moment: [e a0]
     X:    -0.0012      Y:    -0.2148      Z:     0.0000     Total:     0.2148

  Dipole Moment: [D]
     X:    -0.0031      Y:    -0.5459      Z:     0.0000     Total:     0.5459


*** tstop() called on n091 at Fri Nov 12 12:28:44 2021
Module time:
	user time   =     103.72 seconds =       1.73 minutes
	system time =       1.65 seconds =       0.03 minutes
	total time  =         27 seconds =       0.45 minutes
Total time:
	user time   =     103.72 seconds =       1.73 minutes
	system time =       1.65 seconds =       0.03 minutes
	total time  =         27 seconds =       0.45 minutes
Grab this energy -174.48958573510916
    Psi4 stopped on: Friday, 12 November 2021 12:28PM
    Psi4 wall time for execution: 0:00:27.08

*** Psi4 exiting successfully. Buy a developer a beer!
