
    -----------------------------------------------------------------------
          Psi4: An Open-Source Ab Initio Electronic Structure Package
                               Psi4 1.4a2.dev629 

                         Git: Rev {master} 2938fc2 dirty


    D. G. A. Smith, L. A. Burns, A. C. Simmonett, R. M. Parrish,
    M. C. Schieber, R. Galvelis, P. Kraus, H. Kruse, R. Di Remigio,
    A. Alenaizan, A. M. James, S. Lehtola, J. P. Misiewicz, M. Scheurer,
    R. A. Shaw, J. B. Schriber, Y. Xie, Z. L. Glick, D. A. Sirianni,
    J. S. O'Brien, J. M. Waldrop, A. Kumar, E. G. Hohenstein,
    B. P. Pritchard, B. R. Brooks, H. F. Schaefer III, A. Yu. Sokolov,
    K. Patkowski, A. E. DePrince III, U. Bozkaya, R. A. King,
    F. A. Evangelista, J. M. Turney, T. D. Crawford, C. D. Sherrill,
    J. Chem. Phys. 152(18) 184108 (2020). https://doi.org/10.1063/5.0006002

                            Additional Code Authors
    E. T. Seidl, C. L. Janssen, E. F. Valeev, M. L. Leininger,
    J. F. Gonthier, R. M. Richard, H. R. McAlexander, M. Saitow, X. Wang,
    P. Verma, and M. H. Lechner

             Previous Authors, Complete List of Code Contributors,
                       and Citations for Specific Modules
    https://github.com/psi4/psi4/blob/master/codemeta.json
    https://github.com/psi4/psi4/graphs/contributors
    http://psicode.org/psi4manual/master/introduction.html#citing-psifour

    -----------------------------------------------------------------------


    Psi4 started on: Friday, 12 November 2021 11:57AM

    Process ID: 66436
    Host:       n073
    PSIDATADIR: /opt/psi/4/master/share/psi4
    Memory:     500.0 MiB
    Threads:    4
    
  ==> Input File <==

--------------------------------------------------------------------------
import os
memory 14 GB 
 
molecule {
 N   -0.7159460871    0.0000015143    0.0007631208
 C    0.1783295574   -1.3031189159   -2.2553363373
 C    0.1773812686    2.6029364829    0.0017330052
 C    0.1764300403   -1.2998149256    2.2530796668
 H    2.2615196657   -1.3648771038   -2.3607213489
 H   -0.5307861161   -0.3412320836   -3.9389668174
 H   -0.5276188516   -3.2377430550   -2.2648552666
 H    2.2616155143    2.7274238696    0.0033146395
 H   -0.5257209934    3.5798304981    1.6705097863
 H   -0.5320524063    3.5829738621   -1.6753637329
 H    2.2617063281   -1.3625497649    2.3633195566
 H   -0.5301493779   -3.2412708800    2.2653857125
 H   -0.5269852319   -0.3425595082    3.9371380153
units bohr
}

basis {

assign 6-31g_2dfp_

[ 6-31g_2dfp_ ]

spherical

!----------------------------------------------------------------------
! Basis Set Exchange
! Version v0.8.13
! https://www.basissetexchange.org
!----------------------------------------------------------------------
!   Basis set: 6-31G(2df,p)
! Description: 6-31G(2df,p)
!        Role: orbital
!     Version: 0  (Data from the original Basis Set Exchange)
!----------------------------------------------------------------------


****
H     0
S    3   1.00
     18.7311370              0.03349460
      2.8253937              0.23472695
      0.6401217              0.81375733
S    1   1.00
      0.1612778              1.00000000
P    1   1.00
      1.5000000              1.0000000
P    1   1.00
      0.3750000              1.0000000
****
B     0
S    6   1.00
   2068.8823000              0.0018663
    310.6495700              0.0142515
     70.6830330              0.0695516
     19.8610800              0.2325729
      6.2993048              0.4670787
      2.1270270              0.3634314
SP   3   1.00
      4.7279710             -0.1303938              0.0745976
      1.1903377             -0.1307889              0.3078467
      0.3594117              1.1309444              0.7434568
SP   1   1.00
      0.1267512              1.0000000              1.0000000
D    1   1.00
      0.8020000              1.0000000
D    1   1.00
      0.2005000              1.0000000
F    1   1.00
      0.5000000              1.0000000
****
C     0
S    6   1.00
   3047.5249000              0.0018347
    457.3695100              0.0140373
    103.9486900              0.0688426
     29.2101550              0.2321844
      9.2866630              0.4679413
      3.1639270              0.3623120
SP   3   1.00
      7.8682724             -0.1193324              0.0689991
      1.8812885             -0.1608542              0.3164240
      0.5442493              1.1434564              0.7443083
SP   1   1.00
      0.1687144              1.0000000              1.0000000
D    1   1.00
      1.2520000              1.0000000
D    1   1.00
      0.3130000              1.0000000
F    1   1.00
      0.8000000              1.0000000
****
N     0
S    6   1.00
   4173.5110000              0.0018348
    627.4579000              0.0139950
    142.9021000              0.0685870
     40.2343300              0.2322410
     12.8202100              0.4690700
      4.3904370              0.3604550
SP   3   1.00
     11.6263580             -0.1149610              0.0675800
      2.7162800             -0.1691180              0.3239070
      0.7722180              1.1458520              0.7408950
SP   1   1.00
      0.2120313              1.0000000              1.0000000
D    1   1.00
      1.8260000              1.0000000
D    1   1.00
      0.4565000              1.0000000
F    1   1.00
      1.0000000              1.0000000
****
O     0
S    6   1.00
   5484.6717000              0.0018311
    825.2349500              0.0139501
    188.0469600              0.0684451
     52.9645000              0.2327143
     16.8975700              0.4701930
      5.7996353              0.3585209
SP   3   1.00
     15.5396160             -0.1107775              0.0708743
      3.5999336             -0.1480263              0.3397528
      1.0137618              1.1307670              0.7271586
SP   1   1.00
      0.2700058              1.0000000              1.0000000
D    1   1.00
      2.5840000              1.0000000
D    1   1.00
      0.6460000              1.0000000
F    1   1.00
      1.4000000              1.0000000
****
F     0
S    6   1.00
   7001.7130900              0.0018196169
   1051.3660900              0.0139160796
    239.2856900              0.0684053245
     67.3974453              0.233185760
     21.5199573              0.471267439
      7.40310130             0.356618546
SP   3   1.00
     20.8479528             -0.108506975            0.0716287243
      4.80830834            -0.146451658            0.3459121030
      1.34406986             1.128688580            0.7224699570
SP   1   1.00
      0.358151393            1.0000000              1.0000000
D    1   1.00
      3.5000000              1.0000000
D    1   1.00
      0.8750000              1.0000000
F    1   1.00
      1.8500000              1.0000000
****
Al     0
S    6   1.00
  13983.1000000              0.00194267
   2098.7500000              0.0148599
    477.7050000              0.0728494
    134.3600000              0.2468300
     42.8709000              0.4872580
     14.5189000              0.3234960
SP   6   1.00
    239.6680000             -0.00292619             0.00460285
     57.4419000             -0.0374080              0.0331990
     18.2859000             -0.1144870              0.1362820
      6.5991400              0.1156350              0.3304760
      2.4904900              0.6125950              0.4491460
      0.9445400              0.3937990              0.2657040
SP   3   1.00
      1.2779000             -0.2276060             -0.0175130
      0.3975900              0.00144583             0.2445330
      0.1600950              1.0927900              0.8049340
SP   1   1.00
      0.0556577              1.0000000              1.0000000
D    1   1.00
      0.6500000              1.0000000
D    1   1.00
      0.1625000              1.0000000
F    1   1.00
      0.2500000              1.0000000
****
Si     0
S    6   1.00
  16115.9000000              0.00195948
   2425.5800000              0.01492880
    553.8670000              0.07284780
    156.3400000              0.24613000
     50.0683000              0.48591400
     17.0178000              0.32500200
SP   6   1.00
    292.7180000             -0.00278094             0.00443826
     69.8731000             -0.03571460             0.03266790
     22.3363000             -0.11498500             0.13472100
      8.1503900              0.09356340             0.32867800
      3.1345800              0.60301700             0.44964000
      1.2254300              0.41895900             0.26137200
SP   3   1.00
      1.7273800             -0.24463000            -0.01779510
      0.5729220              0.00431572             0.25353900
      0.2221920              1.09818000             0.80066900
SP   1   1.00
      0.0778369              1.00000000             1.00000000
D    1   1.00
      0.9000000              1.0000000
D    1   1.00
      0.2250000              1.0000000
F    1   1.00
      0.3200000              1.0000000
****
P     0
S    6   1.00
  19413.3000000              0.0018516
   2909.4200000              0.0142062
    661.3640000              0.0699995
    185.7590000              0.2400790
     59.1943000              0.4847620
     20.0310000              0.3352000
SP   6   1.00
    339.4780000             -0.00278217             0.00456462
     81.0101000             -0.0360499              0.03369360
     25.8780000             -0.1166310              0.13975500
      9.4522100              0.0968328              0.33936200
      3.6656600              0.6144180              0.45092100
      1.4674600              0.4037980              0.23858600
SP   3   1.00
      2.1562300             -0.2529230             -0.01776530
      0.7489970              0.0328517              0.27405800
      0.2831450              1.0812500              0.78542100
SP   1   1.00
      0.0998317              1.0000000              1.00000000
D    1   1.00
      1.1000000              1.0000000
D    1   1.00
      0.2750000              1.0000000
F    1   1.00
      0.4500000              1.0000000
****
S     0
S    6   1.00
  21917.1000000              0.0018690
   3301.4900000              0.0142300
    754.1460000              0.0696960
    212.7110000              0.2384870
     67.9896000              0.4833070
     23.0515000              0.3380740
SP   6   1.00
    423.7350000             -0.0023767              0.0040610
    100.7100000             -0.0316930              0.0306810
     32.1599000             -0.1133170              0.1304520
     11.8079000              0.0560900              0.3272050
      4.6311000              0.5922550              0.4528510
      1.8702500              0.4550060              0.2560420
SP   3   1.00
      2.6158400             -0.2503740             -0.0145110
      0.9221670              0.0669570              0.3102630
      0.3412870              1.0545100              0.7544830
SP   1   1.00
      0.1171670              1.0000000              1.0000000
D    1   1.00
      1.3000000              1.0000000
D    1   1.00
      0.3250000              1.0000000
F    1   1.00
      0.5500000              1.0000000
****
Cl     0
S    6   1.00
  25180.1000000              0.0018330
   3780.3500000              0.0140340
    860.4740000              0.0690970
    242.1450000              0.2374520
     77.3349000              0.4830340
     26.2470000              0.3398560
SP   6   1.00
    491.7650000             -0.0022974              0.0039894
    116.9840000             -0.0307140              0.0303180
     37.4153000             -0.1125280              0.1298800
     13.7834000              0.0450160              0.3279510
      5.4521500              0.5893530              0.4535270
      2.2258800              0.4652060              0.2521540
SP   3   1.00
      3.1864900             -0.2518300             -0.0142990
      1.1442700              0.0615890              0.3235720
      0.4203770              1.0601800              0.7435070
SP   1   1.00
      0.1426570              1.0000000              1.0000000
D    1   1.00
      1.5000000              1.0000000
D    1   1.00
      0.3750000              1.0000000
F    1   1.00
      0.7000000              1.0000000
****
}


set {
reference rhf                          
freeze_core true
e_convergence 10                       
d_convergence 10                      
dft_spherical_points 1202
dft_radial_points 99
}

e = energy('b3lyp')

print_out('Grab this energy {0}'.format(e))
--------------------------------------------------------------------------

  Memory set to  13.039 GiB by Python driver.

Scratch directory: /tmp/

*** tstart() called on n073
*** at Fri Nov 12 11:57:03 2021

   => Loading Basis Set <=

    Name: ANONYMOUS03920892
    Role: ORBITAL
    Keyword: BASIS
    atoms 1    entry N          line    69 inputblock 6-31g_2dfp_ 
    atoms 2-4  entry C          line    48 inputblock 6-31g_2dfp_ 
    atoms 5-13 entry H          line    15 inputblock 6-31g_2dfp_ 


         ---------------------------------------------------------
                                   SCF
               by Justin Turney, Rob Parrish, Andy Simmonett
                          and Daniel G. A. Smith
                              RKS Reference
                        4 Threads,  13351 MiB Core
         ---------------------------------------------------------

  ==> Geometry <==

    Molecular point group: c1
    Full point group: C1

    Geometry (in Bohr), charge = 0, multiplicity = 1:

       Center              X                  Y                   Z               Mass       
    ------------   -----------------  -----------------  -----------------  -----------------
         N           -0.715946649329     0.000000689846     0.000692687795    14.003074004430
         C            0.178328995171    -1.303119740354    -2.255406770305    12.000000000000
         C            0.177380706371     2.602935658446     0.001662572195    12.000000000000
         C            0.176429478071    -1.299815750054     2.253009233795    12.000000000000
         H            2.261519103471    -1.364877928254    -2.360791781905     1.007825032230
         H           -0.530786678329    -0.341232908054    -3.939037250405     1.007825032230
         H           -0.527619413829    -3.237743879454    -2.264925699605     1.007825032230
         H            2.261614952071     2.727423045146     0.003244206495     1.007825032230
         H           -0.525721555629     3.579829673646     1.670439353295     1.007825032230
         H           -0.532052968529     3.582973037646    -1.675434165905     1.007825032230
         H            2.261705765871    -1.362550589354     2.363249123595     1.007825032230
         H           -0.530149940129    -3.241271704454     2.265315279495     1.007825032230
         H           -0.526985794129    -0.342560332654     3.937067582295     1.007825032230

  Running in c1 symmetry.

  Rotational constants: A =      0.29258  B =      0.29214  C =      0.16681 [cm^-1]
  Rotational constants: A =   8771.22921  B =   8758.23924  C =   5000.86572 [MHz]
  Nuclear repulsion =  138.836154717626926

  Charge       = 0
  Multiplicity = 1
  Electrons    = 34
  Nalpha       = 17
  Nbeta        = 17

  ==> Algorithm <==

  SCF Algorithm Type is DF.
  DIIS enabled.
  MOM disabled.
  Fractional occupation disabled.
  Guess Type is SAD.
  Energy threshold   = 1.00e-10
  Density threshold  = 1.00e-10
  Integral threshold = 0.00e+00

  ==> Primary Basis <==

  Basis Set: ANONYMOUS03920892
    Blend: 6-31G_2DFP_
    Number of shells: 68
    Number of basis function: 176
    Number of Cartesian functions: 196
    Spherical Harmonics?: true
    Max angular momentum: 3

  ==> DFT Potential <==

   => Composite Functional: B3LYP <= 

    B3LYP Hyb-GGA Exchange-Correlation Functional

    P. J. Stephens, F. J. Devlin, C. F. Chabalowski, and M. J. Frisch, J. Phys. Chem. 98, 11623 (1994)

    Deriv               =              1
    GGA                 =           TRUE
    Meta                =          FALSE

    Exchange Hybrid     =           TRUE
    MP2 Hybrid          =          FALSE

   => Exchange Functionals <=

    0.0800   Slater exchange
    0.7200         Becke 88

   => Exact (HF) Exchange <=

    0.2000               HF 

   => Correlation Functionals <=

    0.1900   Vosko, Wilk & Nusair (VWN5_RPA)
    0.8100   Lee, Yang & Parr

   => Molecular Quadrature <=

    Radial Scheme          =       TREUTLER
    Pruning Scheme         =           NONE
    Nuclear Scheme         =       TREUTLER

    BS radius alpha        =              1
    Pruning alpha          =              1
    Radial Points          =             99
    Spherical Points       =           1202
    Total Points           =        1438369
    Total Blocks           =           9584
    Max Points             =            256
    Max Functions          =            176
    Weights Tolerance      =       1.00E-15

   => Loading Basis Set <=

    Name: (ANONYMOUS03920892 AUX)
    Role: JKFIT
    Keyword: DF_BASIS_SCF
    atoms 1    entry N          line   258 file /opt/psi/4/master/share/psi4/basis/def2-universal-jkfit.gbs 
    atoms 2-4  entry C          line   198 file /opt/psi/4/master/share/psi4/basis/def2-universal-jkfit.gbs 
    atoms 5-13 entry H          line    18 file /opt/psi/4/master/share/psi4/basis/def2-universal-jkfit.gbs 

  ==> Integral Setup <==

  DFHelper Memory: AOs need 0.115 GiB; user supplied 3.770 GiB. Using in-core AOs.

  ==> MemDFJK: Density-Fitted J/K Matrices <==

    J tasked:                   Yes
    K tasked:                   Yes
    wK tasked:                   No
    OpenMP threads:               4
    Memory [MiB]:              3860
    Algorithm:                 Core
    Schwarz Cutoff:           1E-12
    Mask sparsity (%):       1.0589
    Fitting Condition:        1E-10

   => Auxiliary Basis Set <=

  Basis Set: (ANONYMOUS03920892 AUX)
    Blend: DEF2-UNIVERSAL-JKFIT
    Number of shells: 154
    Number of basis function: 464
    Number of Cartesian functions: 540
    Spherical Harmonics?: true
    Max angular momentum: 4

  Cached 100.0% of DFT collocation blocks in 6.009 [GiB].

  Minimum eigenvalue in the overlap matrix is 2.3752719449E-03.
  Reciprocal condition number of the overlap matrix is 3.8705924096E-04.
    Using symmetric orthogonalization.

  ==> Pre-Iterations <==

  SCF Guess: Superposition of Atomic Densities via on-the-fly atomic UHF (no occupation information).

   -------------------------
    Irrep   Nso     Nmo    
   -------------------------
     A        176     176 
   -------------------------
    Total     176     176
   -------------------------

  ==> Iterations <==

                           Total Energy        Delta E     RMS |[F,P]|

   @DF-RKS iter SAD:  -173.87169170297847   -1.73872e+02   0.00000e+00 
   @DF-RKS iter   1:  -174.14773933617258   -2.76048e-01   4.49605e-03 DIIS
   @DF-RKS iter   2:  -173.91499023794836    2.32749e-01   5.82487e-03 DIIS
   @DF-RKS iter   3:  -174.47942865639030   -5.64438e-01   8.83677e-04 DIIS
   @DF-RKS iter   4:  -174.48863617367471   -9.20752e-03   2.70493e-04 DIIS
   @DF-RKS iter   5:  -174.48956288919914   -9.26716e-04   4.13339e-05 DIIS
   @DF-RKS iter   6:  -174.48958599745401   -2.31083e-05   6.42684e-06 DIIS
   @DF-RKS iter   7:  -174.48958670848063   -7.11027e-07   1.69041e-06 DIIS
   @DF-RKS iter   8:  -174.48958675893084   -5.04502e-08   5.50278e-08 DIIS
   @DF-RKS iter   9:  -174.48958675899166   -6.08225e-11   1.38639e-08 DIIS
   @DF-RKS iter  10:  -174.48958675899385   -2.18847e-12   1.07704e-08 DIIS
   @DF-RKS iter  11:  -174.48958675899547   -1.62004e-12   6.45396e-10 DIIS
   @DF-RKS iter  12:  -174.48958675899513    3.41061e-13   7.46110e-11 DIIS
  Energy and wave function converged.


  ==> Post-Iterations <==

    Orbital Energies [Eh]
    ---------------------

    Doubly Occupied:                                                      

       1A    -14.318000     2A    -10.191383     3A    -10.191378  
       4A    -10.191334     5A     -0.915860     6A     -0.699002  
       7A     -0.698737     8A     -0.586949     9A     -0.462382  
      10A     -0.460737    11A     -0.460235    12A     -0.388783  
      13A     -0.388600    14A     -0.364693    15A     -0.354123  
      16A     -0.354027    17A     -0.213633  

    Virtual:                                                              

      18A      0.073850    19A      0.133737    20A      0.134086  
      21A      0.140335    22A      0.145649    23A      0.146165  
      24A      0.164202    25A      0.186658    26A      0.186702  
      27A      0.215666    28A      0.239606    29A      0.240438  
      30A      0.404657    31A      0.408998    32A      0.409480  
      33A      0.434248    34A      0.434459    35A      0.479032  
      36A      0.494293    37A      0.494479    38A      0.524513  
      39A      0.537603    40A      0.591994    41A      0.592049  
      42A      0.610505    43A      0.613725    44A      0.614253  
      45A      0.616356    46A      0.617198    47A      0.630148  
      48A      0.636271    49A      0.680657    50A      0.680800  
      51A      0.727723    52A      0.728188    53A      0.785338  
      54A      0.823657    55A      0.823952    56A      0.886707  
      57A      0.962032    58A      0.962545    59A      0.980795  
      60A      0.998257    61A      1.026469    62A      1.026903  
      63A      1.066120    64A      1.121343    65A      1.122024  
      66A      1.125720    67A      1.222717    68A      1.223942  
      69A      1.224413    70A      1.294933    71A      1.295778  
      72A      1.329934    73A      1.346053    74A      1.346284  
      75A      1.363101    76A      1.400684    77A      1.401050  
      78A      1.435765    79A      1.437400    80A      1.438492  
      81A      1.450066    82A      1.479422    83A      1.479974  
      84A      1.513991    85A      1.656611    86A      1.667805  
      87A      1.667902    88A      1.739419    89A      1.757976  
      90A      1.759097    91A      1.807972    92A      1.818564  
      93A      1.820994    94A      1.866224    95A      1.866510  
      96A      1.965848    97A      2.021133    98A      2.022235  
      99A      2.069437   100A      2.194515   101A      2.198049  
     102A      2.859543   103A      2.859852   104A      2.889106  
     105A      2.926303   106A      2.926626   107A      2.962844  
     108A      2.978605   109A      2.984504   110A      2.985259  
     111A      3.022400   112A      3.023494   113A      3.043211  
     114A      3.095492   115A      3.096206   116A      3.154785  
     117A      3.187280   118A      3.234081   119A      3.323836  
     120A      3.324363   121A      3.367221   122A      3.374548  
     123A      3.375200   124A      3.448303   125A      3.448659  
     126A      3.519399   127A      3.561012   128A      3.561160  
     129A      3.650774   130A      3.652679   131A      3.663550  
     132A      3.760319   133A      3.781504   134A      3.781916  
     135A      3.789687   136A      3.805827   137A      3.806113  
     138A      3.972999   139A      4.078010   140A      4.118243  
     141A      4.120068   142A      4.164108   143A      4.165479  
     144A      4.224882   145A      4.234816   146A      4.236125  
     147A      4.332435   148A      4.333219   149A      4.354582  
     150A      4.389047   151A      4.391820   152A      4.434983  
     153A      4.467819   154A      4.469261   155A      4.486437  
     156A      4.541038   157A      4.761392   158A      4.761900  
     159A      4.779215   160A      4.972689   161A      4.974404  
     162A      4.990629   163A      4.991432   164A      5.096361  
     165A      5.141528   166A      5.238056   167A      5.243183  
     168A      5.245315   169A      5.298402   170A      5.298981  
     171A      5.454746   172A      5.456202   173A      5.516688  
     174A      5.557471   175A      5.837147   176A      5.840032  

    Final Occupation by Irrep:
              A 
    DOCC [    17 ]

  @DF-RKS Final Energy:  -174.48958675899513

   => Energetics <=

    Nuclear Repulsion Energy =            138.8361547176269255
    One-Electron Energy =                -508.6976111237098621
    Two-Electron Energy =                 216.8980817268546275
    DFT Exchange-Correlation Energy =     -21.5262120797668182
    Empirical Dispersion Energy =           0.0000000000000000
    VV10 Nonlocal Energy =                  0.0000000000000000
    Total Energy =                       -174.4895867589951308

Computation Completed


Properties will be evaluated at   0.000000,   0.000000,   0.000000 [a0]

Properties computed using the SCF density matrix

  Nuclear Dipole Moment: [e a0]
     X:     1.7927      Y:    -0.0000      Z:    -0.0004

  Electronic Dipole Moment: [e a0]
     X:    -1.5743      Y:     0.0000      Z:     0.0001

  Dipole Moment: [e a0]
     X:     0.2184      Y:     0.0000      Z:    -0.0004     Total:     0.2184

  Dipole Moment: [D]
     X:     0.5552      Y:     0.0000      Z:    -0.0009     Total:     0.5552


*** tstop() called on n073 at Fri Nov 12 11:57:37 2021
Module time:
	user time   =     132.27 seconds =       2.20 minutes
	system time =       2.16 seconds =       0.04 minutes
	total time  =         34 seconds =       0.57 minutes
Total time:
	user time   =     132.27 seconds =       2.20 minutes
	system time =       2.16 seconds =       0.04 minutes
	total time  =         34 seconds =       0.57 minutes
Grab this energy -174.48958675899513
    Psi4 stopped on: Friday, 12 November 2021 11:57AM
    Psi4 wall time for execution: 0:00:34.46

*** Psi4 exiting successfully. Buy a developer a beer!
