
 Primary working directories    : /tmp/1065196.193.gen4.q
 Secondary working directories  : /tmp/1065196.193.gen4.q
 Wavefunction directory         : /home/vulcan/jj04645/wfu/
 Main file repository           : /tmp/1065196.193.gen4.q/

 ARCHNAME  : Linux/x86_64
 FC        : /opt/intel/compilers_and_libraries_2016.1.150/linux/bin/intel64/ifort
 FCVERSION : 16.0.1
 BLASLIB   : -mkl
 id        : ccgc

 Nodes     nprocs
 n064         1
 ga_uses_ma=false, calling ma_init with nominal heap.
 GA-space will be limited to   8.0 MW (determined by -G option)

 Using customized tuning parameters: mindgm=10; mindgv=16; mindgc=4; mindgr=1; noblas=0; mincuda=1000; minvec=7
 default implementation of scratch files=df  

 ***,Optimization of t-butanol
 memory,1000,m
 gthresh,energy=1.0d-12,orbital=1.0d-10,oneint=1.0d-16,twoint=1.0d-16,optgrad=1.0d-6,compress=1.0d-13
 geomtyp=xyz
 
 bohr
 geometry = {
  C    0.0005890669   -0.0574625085    0.0000719387
  O   -0.0277705387    2.6552917182    0.0004747453
  C   -2.7639003375   -0.8312983025    0.0000582588
  C    1.3343847242   -1.0173911980   -2.3808346605
  C    1.3345585592   -1.0180963876    2.3805966965
  H    1.7046053956    3.2104922740    0.0004937257
  H   -2.9328723077   -2.8881394501    0.0028437416
  H   -3.6992884406   -0.0803405275   -1.6779524661
  H   -3.7006062949   -0.0756913287    1.6752443756
  H    1.3117347239   -3.0808294323   -2.4630811996
  H    3.3082371343   -0.4002025110   -2.4032836637
  H    0.3996585436   -0.2738872688   -4.0625037203
  H    1.3119145421   -3.0815588937    2.4622336766
  H    3.3084126099   -0.4009143558    2.4030843889
  H    0.3999551812   -0.2750906266    4.0625541625
 }
 
 basis=VDZ
 {rhf;maxit,200}
 {ccsd(t);maxit,200}

 Variables initialized (661), CPU time= 0.00 sec
 Commands  initialized (458), CPU time= 0.01 sec, 486 directives.
 Default parameters read. Elapsed time= 0.05 sec

 Checking input...
 Passed
1


                                         ***  PROGRAM SYSTEM MOLPRO  ***
                         Copyright, University College Cardiff Consultants Limited, 2008

                                    Version 2010.1 linked May 16 2016 07:17:05


 **********************************************************************************************************************************
 LABEL *   Optimization of t-butanol                                                     
 Linux-4.4.3/n064(x86_64) 64 bit mpp version                                             DATE: 20-May-24          TIME: 10:50:21  
 **********************************************************************************************************************************

 SHA1:             9e8077add272b0f3cad6f7df79ec5211205f459d
 **********************************************************************************************************************************

 THRESHOLDS:

 ZERO    =  1.00D-12  ONEINT  =  1.00D-16  TWOINT  =  1.00D-16  PREFAC  =  1.00D-14  LOCALI  =  1.00D-09  EORDER  =  1.00D-04
 ENERGY  =  1.00D-12  ETEST   =  0.00D+00  EDENS   =  0.00D+00  THRDEDEF=  1.00D-06  GRADIENT=  1.00D-02  STEP    =  1.00D-03
 ORBITAL =  1.00D-10  CIVEC   =  1.00D-05  COEFF   =  1.00D-04  PRINTCI =  5.00D-02  PUNCHCI =  9.90D+01  OPTGRAD =  1.00D-06
 OPTENERG=  1.00D-06  OPTSTEP =  3.00D-04  THRGRAD =  1.00D-10  COMPRESS=  1.00D-13  VARMIN  =  1.00D-07  VARMAX  =  1.00D-03
 THRDOUB =  0.00D+00  THRDIV  =  1.00D-05  THRRED  =  1.00D-07  THRPSP  =  1.00D+00  THRDC   =  1.00D-10  THRCS   =  1.00D-10
 THRNRM  =  1.00D-08  THREQ   =  0.00D+00  THRDE   =  1.00D+00  THRREF  =  1.00D-05  SPARFAC =  1.00D+00  THRDLP  =  1.00D-07
 THRDIA  =  1.00D-10  THRDLS  =  1.00D-07  THRGPS  =  0.00D+00  THRKEX  =  0.00D+00  THRDIS  =  2.00D-01  THRVAR  =  1.00D-10
 THRLOC  =  1.00D-06  THRGAP  =  1.00D-06  THRLOCT = -1.00D+00  THRGAPT = -1.00D+00  THRORB  =  1.00D-06  THRMLTP =  0.00D+00
 THRCPQCI=  1.00D-10  KEXTA   =  0.00D+00  THRCOARS=  0.00D+00  SYMTOL  =  1.00D-06  GRADTOL =  1.00D-06  THROVL  =  1.00D-08
 THRORTH =  1.00D-08  GRID    =  1.00D-06  GRIDMAX =  1.00D-03  DTMAX   =  0.00D+00

 SETTING GEOMTYP        =    XYZ
 ZUNIT=BOHR
 

 Variable memory set to 1000000000 words,  buffer space   230000 words

 SETTING BASIS          =    VDZ


 Recomputing integrals since basis changed


 Using spherical harmonics

 Library entry C      S cc-pVDZ              selected for orbital group  1
 Library entry C      P cc-pVDZ              selected for orbital group  1
 Library entry C      D cc-pVDZ              selected for orbital group  1
 Library entry O      S cc-pVDZ              selected for orbital group  2
 Library entry O      P cc-pVDZ              selected for orbital group  2
 Library entry O      D cc-pVDZ              selected for orbital group  2
 Library entry H      S cc-pVDZ              selected for orbital group  4
 Library entry H      P cc-pVDZ              selected for orbital group  4

1PROGRAM * SEWARD (Integral evaluation for generally contracted gaussian basis sets)     Author: Roland Lindh, 1990

 Geometry written to block  1 of record 700


 Point group  C1  



 ATOMIC COORDINATES

 NR  ATOM    CHARGE       X              Y              Z

   1  C       6.00    0.000589067   -0.057462509    0.000071939
   2  O       8.00   -0.027770539    2.655291718    0.000474745
   3  C       6.00   -2.763900337   -0.831298303    0.000058259
   4  C       6.00    1.334384724   -1.017391198   -2.380834661
   5  C       6.00    1.334558559   -1.018096388    2.380596697
   6  H       1.00    1.704605396    3.210492274    0.000493726
   7  H       1.00   -2.932872308   -2.888139450    0.002843742
   8  H       1.00   -3.699288441   -0.080340527   -1.677952466
   9  H       1.00   -3.700606295   -0.075691329    1.675244376
  10  H       1.00    1.311734724   -3.080829432   -2.463081200
  11  H       1.00    3.308237134   -0.400202511   -2.403283664
  12  H       1.00    0.399658544   -0.273887269   -4.062503720
  13  H       1.00    1.311914542   -3.081558894    2.462233677
  14  H       1.00    3.308412610   -0.400914356    2.403084389
  15  H       1.00    0.399955181   -0.275090627    4.062554162

 Bond lengths in Bohr (Angstrom)

 1-2  2.712902491  1-3  2.870753125  1-4  2.892955267  1-5  2.892955267  2-6  1.819168501
     ( 1.435606168)     ( 1.519137126)     ( 1.530885994)     ( 1.530885994)     ( 0.962662510)

  3- 7  2.063771982   3- 8  2.062670230   3- 9  2.062670229   4-10  2.065200925   4-11  2.068216422
       ( 1.092101097)       ( 1.091518075)       ( 1.091518075)       ( 1.092857262)       ( 1.094452994)

  4-12  2.062649256   5-13  2.065200925   5-14  2.068216422   5-15  2.062649256
       ( 1.091506976)       ( 1.092857262)       ( 1.094452994)       ( 1.091506976)

 Bond angles

  1-2-6  107.17091859   1-3-7  110.33434572   1-3-8  109.78937664   1-3-9  109.78937259

  1- 4-10  111.05427786   1- 4-11  110.48289357   1- 4-12  110.02622484   1- 5-13  111.05427787

  1- 5-14  110.48289357   1- 5-15  110.02622484   2- 1- 3  105.03903603   2- 1- 4  109.67835923

  2-1-5  109.67835923   3-1-4  110.76498583   3-1-5  110.76498583   4-1-5  110.75948302

  7- 3- 8  109.07568616   7- 3- 9  109.07568204   8- 3- 9  108.74670998  10- 4-11  107.95054620

 10- 4-12  108.82712326  11- 4-12  108.42572227  13- 5-14  107.95054620  13- 5-15  108.82712327

 14- 5-15  108.42572227

 NUCLEAR CHARGE:                   42
 NUMBER OF PRIMITIVE AOS:         205
 NUMBER OF SYMMETRY AOS:          200
 NUMBER OF CONTRACTIONS:          120   ( 120A   )
 NUMBER OF CORE ORBITALS:           5   (   5A   )
 NUMBER OF VALENCE ORBITALS:       30   (  30A   )


 NUCLEAR REPULSION ENERGY  199.67145219


 Eigenvalues of metric

         1 0.260E-02 0.489E-02 0.489E-02 0.834E-02 0.169E-01 0.191E-01 0.192E-01 0.240E-01


 Contracted 2-electron integrals neglected if value below      1.0D-16
 AO integral compression algorithm  1   Integral accuracy      1.0D-16

     220.987 MB (compressed) written to integral file ( 96.6%)

     Node minimum: 220.987 MB, node maximum: 220.987 MB


 NUMBER OF SORTED TWO-ELECTRON INTEGRALS:   26357430.     BUFFER LENGTH:  32768
 NUMBER OF SEGMENTS:   2  SEGMENT LENGTH:   15997996      RECORD LENGTH: 524288

 Memory used in sort:      16.56 MW

 SORT1 READ    28587911. AND WROTE    26317980. INTEGRALS IN     76 RECORDS. CPU TIME:     0.29 SEC, REAL TIME:     0.43 SEC
 SORT2 READ    26317980. AND WROTE    26357430. INTEGRALS IN    843 RECORDS. CPU TIME:     0.22 SEC, REAL TIME:     0.34 SEC

 FILE SIZES:   FILE 1:   206.4 MBYTE,  FILE 4:   318.8 MBYTE,   TOTAL:    525.2 MBYTE

 OPERATOR DM      FOR CENTER  0  COORDINATES:    0.000000    0.000000    0.000000


 **********************************************************************************************************************************
 DATASETS  * FILE   NREC   LENGTH (MB)   RECORD NAMES
              1      19      206.53       500      610      700      900      950      970     1000      129      960     1100   
                                          VAR    BASINP    GEOM    SYMINP    ZMAT    AOBASIS   BASIS     P2S    ABASIS      S 
                                         1400     1410     1200     1210     1080     1600     1650     1300     1700   
                                           T        V       H0       H01     AOSYM     SMH    MOLCAS    ERIS     OPER   

 PROGRAMS   *        TOTAL       INT
 CPU TIMES  *         3.09      3.05
 REAL TIME  *         4.99 SEC
 DISK USED  *       747.10 MB      
 GA USED    *         0.01 MB       (max)       0.00 MB       (current)
 **********************************************************************************************************************************

1PROGRAM * RHF-SCF (CLOSED SHELL)       Authors: W. Meyer, H.-J. Werner


 NUMBER OF ELECTRONS:      21+   21-    SPACE SYMMETRY=1    SPIN SYMMETRY: Singlet 
 CONVERGENCE THRESHOLDS:    1.00E-10 (Density)    1.00E-13 (Energy)
 MAX. NUMBER OF ITERATIONS:      200
 INTERPOLATION TYPE:            DIIS
 INTERPOLATION STEPS:              2 (START)      1 (STEP)
 LEVEL SHIFTS:                  0.00 (CLOSED)  0.00 (OPEN) 



 Orbital guess generated from atomic densities. Full valence occupancy:   35

 Molecular orbital dump at record        2100.2

 ITERATION    DDIFF          GRAD             ENERGY        2-EL.EN.            DIPOLE MOMENTS         DIIS
    1      0.000D+00      0.000D+00      -232.08675422    561.161194    0.88941   -0.62351   -0.00012    0
    2      0.000D+00      0.616D-02      -232.16301500    555.934892    0.40962   -0.32333   -0.00006    1
    3      0.122D-01      0.265D-02      -232.17369823    557.934287    0.53098   -0.42944   -0.00007    2
    4      0.389D-02      0.733D-03      -232.17499814    557.706130    0.50407   -0.39327   -0.00007    3
    5      0.141D-02      0.192D-03      -232.17507527    557.643264    0.50332   -0.40551   -0.00007    4
    6      0.307D-03      0.357D-04      -232.17507831    557.663308    0.50270   -0.40386   -0.00007    5
    7      0.898D-04      0.658D-05      -232.17507845    557.657685    0.50263   -0.40402   -0.00007    6
    8      0.184D-04      0.211D-05      -232.17507846    557.659266    0.50264   -0.40412   -0.00007    7
    9      0.399D-05      0.682D-06      -232.17507846    557.658918    0.50260   -0.40413   -0.00007    7
   10      0.155D-05      0.190D-06      -232.17507846    557.658971    0.50261   -0.40415   -0.00007    7
   11      0.503D-06      0.388D-07      -232.17507846    557.658960    0.50261   -0.40415   -0.00007    7
   12      0.123D-06      0.119D-07      -232.17507846    557.658968    0.50261   -0.40415   -0.00007    7
   13      0.240D-07      0.517D-08      -232.17507846    557.658966    0.50261   -0.40415   -0.00007    7
   14      0.101D-07      0.168D-08      -232.17507846    557.658966    0.50261   -0.40415   -0.00007    8
   15      0.299D-08      0.439D-09      -232.17507846    557.658966    0.50261   -0.40415   -0.00007    8
   16      0.106D-08      0.108D-09      -232.17507846    557.658966    0.50261   -0.40415   -0.00007    7
   17      0.250D-09      0.296D-10      -232.17507846    557.658966    0.50261   -0.40415   -0.00007    7
   18      0.776D-10      0.852D-11      -232.17507846    557.658966    0.50261   -0.40415   -0.00007    8
   19      0.171D-10      0.231D-11      -232.17507846    557.658966    0.50261   -0.40415   -0.00007    8
   20      0.638D-11      0.767D-12      -232.17507846    557.658966    0.50261   -0.40415   -0.00007    7
   21      0.187D-11      0.266D-12      -232.17507846    557.658966    0.50261   -0.40415   -0.00007    7
   22      0.685D-12      0.917D-13      -232.17507846    557.658966    0.50261   -0.40415   -0.00007    7
   23      0.344D-12      0.434D-13      -232.17507846    557.658966    0.50261   -0.40415   -0.00007    8
   24      0.202D-12      0.291D-13      -232.17507846    557.658966    0.50261   -0.40415   -0.00007    9
   25      0.111D-12      0.257D-13      -232.17507846    557.658966    0.50261   -0.40415   -0.00007    0

 Final occupancy:  21

 !RHF STATE 1.1 Energy               -232.175078463108
 Nuclear energy                       199.67145219
 One-electron energy                 -710.67601359
 Two-electron energy                  278.82948294
 Virial quotient                       -1.00088599
 !RHF STATE 1.1 Dipole moment           0.50261036    -0.40415340    -0.00007108
 Dipole moment /Debye                   1.27742445    -1.02718821    -0.00018066

 Orbital energies:

         1.1          2.1          3.1          4.1          5.1          6.1          7.1          8.1          9.1         10.1
    -20.545163   -11.281962   -11.220579   -11.220560   -11.214126    -1.352197    -1.064365    -0.939788    -0.938336    -0.766400

        11.1         12.1         13.1         14.1         15.1         16.1         17.1         18.1         19.1         20.1
     -0.665650    -0.620420    -0.618517    -0.573283    -0.554022    -0.528001    -0.514659    -0.505503    -0.500169    -0.458347

        21.1         22.1         23.1
     -0.426477     0.166802     0.220260


 **********************************************************************************************************************************
 DATASETS  * FILE   NREC   LENGTH (MB)   RECORD NAMES
              1      19      206.53       500      610      700      900      950      970     1000      129      960     1100   
                                          VAR    BASINP    GEOM    SYMINP    ZMAT    AOBASIS   BASIS     P2S    ABASIS      S 
                                         1400     1410     1200     1210     1080     1600     1650     1300     1700   
                                           T        V       H0       H01     AOSYM     SMH    MOLCAS    ERIS     OPER   

              2       3        0.80       700     1000     2100   
                                         GEOM     BASIS     RHF  

 PROGRAMS   *        TOTAL       RHF       INT
 CPU TIMES  *         8.00      4.91      3.05
 REAL TIME  *        10.53 SEC
 DISK USED  *       747.10 MB      
 GA USED    *         0.01 MB       (max)       0.00 MB       (current)
 **********************************************************************************************************************************


1PROGRAM * CCSD (Closed-shell coupled cluster)     Authors: C. Hampel, H.-J. Werner, 1991, M. Deegan, P.J. Knowles, 1992


 Convergence thresholds:  THRVAR = 1.00D-08  THRDEN = 1.00D-12

 CCSD(T)     terms to be evaluated (factor= 1.000)


 Number of core orbitals:           5 (   5 )
 Number of closed-shell orbitals:  16 (  16 )
 Number of external orbitals:      99 (  99 )

 Molecular orbitals read from record     2100.2  Type=RHF/CANONICAL (state 1.1)

 Number of N-1 electron functions:              16
 Number of N-2 electron functions:             136
 Number of singly external CSFs:              1584
 Number of doubly external CSFs:           1255320
 Total number of CSFs:                     1256905

 Length of J-op  integral file:               0.00 MB
 Length of K-op  integral file:               1.03 MB
 Length of 3-ext integral record:             0.00 MB

 Memory could be reduced to 21.47 Mwords without degradation in triples

 Integral transformation finished. Total CPU:   1.40 sec, npass=  1  Memory used:  18.35 MW

 Reference energy:                   -232.17507846

 MP2 singlet pair energy:              -0.49760572
 MP2 triplet pair energy:              -0.27477312
 MP2 correlation energy:               -0.77237885
 MP2 total energy:                   -232.94745731

 SCS-MP2 correlation energy:           -0.76809681   (PS=  1.200000  PT=  0.333333)
 SCS-MP2 total energy:               -232.94317528

 ITER.      SQ.NORM     CORR.ENERGY   TOTAL ENERGY   ENERGY CHANGE        DEN1      VAR(S)    VAR(P)  DIIS     TIME
   1      1.27363833    -0.82956880  -233.00464726    -0.05718995    -0.03604839  0.25D-02  0.44D-02  1  1     5.31
   2      1.29482515    -0.83388934  -233.00896780    -0.00432054    -0.02220595  0.67D-04  0.42D-03  2  2     9.29
   3      1.29935302    -0.83409944  -233.00917790    -0.00021010    -0.00277801  0.25D-04  0.24D-04  3  3    13.27
   4      1.30062192    -0.83410522  -233.00918369    -0.00000579    -0.00060363  0.64D-06  0.21D-05  4  4    17.26
   5      1.30085371    -0.83411420  -233.00919266    -0.00000898    -0.00008113  0.19D-06  0.15D-06  5  5    21.25
   6      1.30089496    -0.83411093  -233.00918939     0.00000327    -0.00001322  0.26D-07  0.14D-07  6  6    25.24
   7      1.30090191    -0.83410971  -233.00918817     0.00000122    -0.00000072  0.38D-08  0.17D-08  6  1    29.25
   8      1.30090549    -0.83410972  -233.00918818    -0.00000001    -0.00000042  0.68D-09  0.22D-09  6  2    33.25
   9      1.30090607    -0.83410965  -233.00918812     0.00000006     0.00000056  0.64D-10  0.39D-10  6  4    37.26
  10      1.30090665    -0.83410964  -233.00918811     0.00000001    -0.00000001  0.51D-11  0.38D-11  6  3    41.25
  11      1.30090663    -0.83410965  -233.00918811    -0.00000000     0.00000005  0.79D-12  0.47D-12  6  5    45.25
  12      1.30090657    -0.83410965  -233.00918811    -0.00000000     0.00000003  0.14D-12  0.66D-13  6  6    49.23
  13      1.30090651    -0.83410965  -233.00918811    -0.00000000     0.00000003  0.11D-13  0.10D-13  6  2    53.22
  14      1.30090650    -0.83410965  -233.00918811    -0.00000000     0.00000001  0.17D-14  0.62D-15  6  1    57.21
  15      1.30090650    -0.83410965  -233.00918811    -0.00000000     0.00000000  0.22D-15  0.13D-15  6  4    61.22
  16      1.30090650    -0.83410965  -233.00918811     0.00000000    -0.00000000  0.35D-16  0.20D-16  6  3    65.21
  17      1.30090650    -0.83410965  -233.00918811     0.00000000    -0.00000000  0.33D-17  0.26D-17  6  5    69.21
  18      1.30090650    -0.83410965  -233.00918811    -0.00000000    -0.00000000  0.88D-18  0.34D-18  6  6    73.21
  19      1.30090650    -0.83410965  -233.00918811    -0.00000000    -0.00000000  0.22D-18  0.63D-19  6  2    77.22
  20      1.30090650    -0.83410965  -233.00918811    -0.00000000     0.00000000  0.32D-19  0.12D-19  6  1    81.19
  21      1.30090650    -0.83410965  -233.00918811    -0.00000000     0.00000000  0.40D-20  0.21D-20  6  4    85.20
  22      1.30090650    -0.83410965  -233.00918811     0.00000000    -0.00000000  0.69D-21  0.32D-21  6  3    89.20

 Norm of t1 vector:      0.06606654      S-energy:    -0.00000000      T1 diagnostic:  0.00825832
                                                                       D1 diagnostic:  0.02161172


 Total CPU time for triples:     60.26 sec


 RESULTS
 =======

  Reference energy                   -232.175078463108
  CCSD singlet pair energy             -0.581029718339
  CCSD triplet pair energy             -0.253079932395
  CCSD correlation energy              -0.834109650735

  Triples (T) contribution             -0.023264008782
  Total correlation energy             -0.857373659517

  CCSD total energy                  -233.009188113843
  CCSD[T] energy                     -233.033149275634
  CCSD-T energy                      -233.032116002607
 !CCSD(T) total energy               -233.032452122625

 Timing summary (sec):

 STEP                 CPU(USER)    SYS     CPU(TOT)    WALL
 Transformation          1.46      0.14      1.60      1.60
 CCSD iterations        87.74      1.88     89.62     94.54
 Triples                60.26      1.13     61.39     61.40

 Program statistics:

 Available memory in ccsd:               999998876
 Min. memory needed in ccsd:               3310297
 Max. memory used in ccsd:                 4412497
 Max. memory used in cckext:               4149679 (22 integral passes)



 **********************************************************************************************************************************
 DATASETS  * FILE   NREC   LENGTH (MB)   RECORD NAMES
              1      20      293.19       500      610      700      900      950      970     1000      129      960     1100   
                                          VAR    BASINP    GEOM    SYMINP    ZMAT    AOBASIS   BASIS     P2S    ABASIS      S 
                                         1400     1410     1200     1210     1080     1600     1650     1300     1700     1380   
                                           T        V       H0       H01     AOSYM     SMH    MOLCAS    ERIS     OPER     JKOP   

              2       3        0.80       700     1000     2100   
                                         GEOM     BASIS     RHF  

 PROGRAMS   *        TOTAL   CCSD(T)       RHF       INT
 CPU TIMES  *       157.47    149.47      4.91      3.05
 REAL TIME  *       168.25 SEC
 DISK USED  *       747.10 MB      
 GA USED    *         0.01 MB       (max)       0.00 MB       (current)
 **********************************************************************************************************************************

        CCSD(T)         RHF-SCF 
   -233.03245212   -232.17507846
 **********************************************************************************************************************************
 Variable memory released
