
 Primary working directories    : /tmp/1049502.1056.gen6.q
 Secondary working directories  : /tmp/1049502.1056.gen6.q
 Wavefunction directory         : /home/vulcan/jj04645/wfu/
 Main file repository           : /tmp/1049502.1056.gen6.q/

 ARCHNAME  : Linux/x86_64
 FC        : /opt/intel/compilers_and_libraries_2016.1.150/linux/bin/intel64/ifort
 FCVERSION : 16.0.1
 BLASLIB   : -mkl
 id        : ccgc

 Nodes     nprocs
 n084         1
 ga_uses_ma=false, calling ma_init with nominal heap.
 GA-space will be limited to   8.0 MW (determined by -G option)

 Using customized tuning parameters: mindgm=10; mindgv=16; mindgc=4; mindgr=1; noblas=0; mincuda=1000; minvec=7
 default implementation of scratch files=df  

 ***,Optimization of neopentane
 memory,1000,m
 gthresh,energy=1.0d-12,orbital=1.0d-10,oneint=1.0d-16,twoint=1.0d-16,optgrad=1.0d-6,compress=1.0d-13
 geomtyp=xyz
 
 bohr
 geometry = {
  C    0.0000000000   -0.0000000000   -0.0000000000
  C    2.3650360943   -0.0004057727   -1.6731936372
  C    0.0004057727   -2.3650360943    1.6731936372
  C    0.0004056336    2.3658475006    1.6720461354
  C   -2.3658475006   -0.0004056336   -1.6720461354
  H    2.4081526240    1.6721641623   -2.8871997558
  H   -1.6721641623   -2.4081526240    2.8871997558
  H    1.6735642952    2.4095527568    2.8852196689
  H   -2.4095527568   -1.6735642952   -2.8852196689
  H    4.0845229819    0.0048422306   -0.5194488965
  H   -0.0048422306   -4.0845229819    0.5194488965
  H    0.0050777316    4.0789046583    0.5214076688
  H   -4.0789046583   -0.0050777316   -0.5214076688
  H    2.4056043617   -1.6682225649   -2.8878116420
  H    1.6682225649   -2.4056043617    2.8878116420
  H   -1.6725345384    2.4071462129    2.8916178724
  H   -2.4071462129    1.6725345384   -2.8916178724
 }
 
 basis=VDZ
 {rhf;maxit,200}
 {ccsd(t);maxit,200}

 Variables initialized (661), CPU time= 0.00 sec
 Commands  initialized (458), CPU time= 0.01 sec, 486 directives.
 Default parameters read. Elapsed time= 0.04 sec

 Checking input...
 Passed
1


                                         ***  PROGRAM SYSTEM MOLPRO  ***
                         Copyright, University College Cardiff Consultants Limited, 2008

                                    Version 2010.1 linked May 16 2016 07:17:05


 **********************************************************************************************************************************
 LABEL *   Optimization of neopentane                                                    
 Linux-4.4.3/n084(x86_64) 64 bit mpp version                                             DATE: 30-Mar-24          TIME: 23:24:36  
 **********************************************************************************************************************************

 SHA1:             9e8077add272b0f3cad6f7df79ec5211205f459d
 **********************************************************************************************************************************

 THRESHOLDS:

 ZERO    =  1.00D-12  ONEINT  =  1.00D-16  TWOINT  =  1.00D-16  PREFAC  =  1.00D-14  LOCALI  =  1.00D-09  EORDER  =  1.00D-04
 ENERGY  =  1.00D-12  ETEST   =  0.00D+00  EDENS   =  0.00D+00  THRDEDEF=  1.00D-06  GRADIENT=  1.00D-02  STEP    =  1.00D-03
 ORBITAL =  1.00D-10  CIVEC   =  1.00D-05  COEFF   =  1.00D-04  PRINTCI =  5.00D-02  PUNCHCI =  9.90D+01  OPTGRAD =  1.00D-06
 OPTENERG=  1.00D-06  OPTSTEP =  3.00D-04  THRGRAD =  1.00D-10  COMPRESS=  1.00D-13  VARMIN  =  1.00D-07  VARMAX  =  1.00D-03
 THRDOUB =  0.00D+00  THRDIV  =  1.00D-05  THRRED  =  1.00D-07  THRPSP  =  1.00D+00  THRDC   =  1.00D-10  THRCS   =  1.00D-10
 THRNRM  =  1.00D-08  THREQ   =  0.00D+00  THRDE   =  1.00D+00  THRREF  =  1.00D-05  SPARFAC =  1.00D+00  THRDLP  =  1.00D-07
 THRDIA  =  1.00D-10  THRDLS  =  1.00D-07  THRGPS  =  0.00D+00  THRKEX  =  0.00D+00  THRDIS  =  2.00D-01  THRVAR  =  1.00D-10
 THRLOC  =  1.00D-06  THRGAP  =  1.00D-06  THRLOCT = -1.00D+00  THRGAPT = -1.00D+00  THRORB  =  1.00D-06  THRMLTP =  0.00D+00
 THRCPQCI=  1.00D-10  KEXTA   =  0.00D+00  THRCOARS=  0.00D+00  SYMTOL  =  1.00D-06  GRADTOL =  1.00D-06  THROVL  =  1.00D-08
 THRORTH =  1.00D-08  GRID    =  1.00D-06  GRIDMAX =  1.00D-03  DTMAX   =  0.00D+00

 SETTING GEOMTYP        =    XYZ
 ZUNIT=BOHR
 

 Variable memory set to 1000000000 words,  buffer space   230000 words

 SETTING BASIS          =    VDZ


 Recomputing integrals since basis changed


 Using spherical harmonics

 Library entry C      S cc-pVDZ              selected for orbital group  1
 Library entry C      P cc-pVDZ              selected for orbital group  1
 Library entry C      D cc-pVDZ              selected for orbital group  1
 Library entry H      S cc-pVDZ              selected for orbital group  2
 Library entry H      P cc-pVDZ              selected for orbital group  2

1PROGRAM * SEWARD (Integral evaluation for generally contracted gaussian basis sets)     Author: Roland Lindh, 1990

 Geometry written to block  1 of record 700


 Point group  C1  



 ATOMIC COORDINATES

 NR  ATOM    CHARGE       X              Y              Z

   1  C       6.00    0.000000000    0.000000000    0.000000000
   2  C       6.00    2.365036094   -0.000405773   -1.673193637
   3  C       6.00    0.000405773   -2.365036094    1.673193637
   4  C       6.00    0.000405634    2.365847501    1.672046135
   5  C       6.00   -2.365847501   -0.000405634   -1.672046135
   6  H       1.00    2.408152624    1.672164162   -2.887199756
   7  H       1.00   -1.672164162   -2.408152624    2.887199756
   8  H       1.00    1.673564295    2.409552757    2.885219669
   9  H       1.00   -2.409552757   -1.673564295   -2.885219669
  10  H       1.00    4.084522982    0.004842231   -0.519448897
  11  H       1.00   -0.004842231   -4.084522982    0.519448897
  12  H       1.00    0.005077732    4.078904658    0.521407669
  13  H       1.00   -4.078904658   -0.005077732   -0.521407669
  14  H       1.00    2.405604362   -1.668222565   -2.887811642
  15  H       1.00    1.668222565   -2.405604362    2.887811642
  16  H       1.00   -1.672534538    2.407146213    2.891617872
  17  H       1.00   -2.407146213    1.672534538   -2.891617872

 Bond lengths in Bohr (Angstrom)

 1-2  2.897062795  1-3  2.897062795  1-4  2.897062795  1-5  2.897062795  2-6  2.067162325
     ( 1.533059604)     ( 1.533059604)     ( 1.533059604)     ( 1.533059604)     ( 1.093895190)

  2-10  2.070697859   2-14  2.063626791   3- 7  2.067162325   3-11  2.070697859   3-15  2.063626791
       ( 1.095766114)       ( 1.092024266)       ( 1.093895190)       ( 1.095766114)       ( 1.092024266)

  4- 8  2.067162325   4-12  2.063626792   4-16  2.070697859   5- 9  2.067162325   5-13  2.063626792
       ( 1.093895190)       ( 1.092024266)       ( 1.095766114)       ( 1.093895190)       ( 1.092024266)

  5-17  2.070697859
       ( 1.095766114)

 Bond angles

  1- 2- 6  110.86072276   1- 2-10  110.86072172   1- 2-14  110.86072170   1- 3- 7  110.86072276

  1- 3-11  110.86072172   1- 3-15  110.86072170   1- 4- 8  110.86072276   1- 4-12  110.86072170

  1- 4-16  110.86072172   1- 5- 9  110.86072276   1- 5-13  110.86072170   1- 5-17  110.86072172

  2-1-3  109.47122064   2-1-4  109.47122063   2-1-5  109.47122063   3-1-4  109.47122063

  3- 1- 5  109.47122063   4- 1- 5  109.47122064   6- 2-10  107.92963821   6- 2-14  107.92963816

  7- 3-11  107.92963821   7- 3-15  107.92963816   8- 4-12  107.92963816   8- 4-16  107.92963821

  9- 5-13  107.92963816   9- 5-17  107.92963821  10- 2-14  108.28049974  11- 3-15  108.28049974

 12- 4-16  108.28049974  13- 5-17  108.28049974

 NUCLEAR CHARGE:                   42
 NUMBER OF PRIMITIVE AOS:         219
 NUMBER OF SYMMETRY AOS:          214
 NUMBER OF CONTRACTIONS:          130   ( 130A   )
 NUMBER OF CORE ORBITALS:           5   (   5A   )
 NUMBER OF VALENCE ORBITALS:       32   (  32A   )


 NUCLEAR REPULSION ENERGY  198.59914937


 Eigenvalues of metric

         1 0.280E-02 0.503E-02 0.503E-02 0.504E-02 0.171E-01 0.189E-01 0.189E-01 0.189E-01


 Contracted 2-electron integrals neglected if value below      1.0D-16
 AO integral compression algorithm  1   Integral accuracy      1.0D-16

     302.514 MB (compressed) written to integral file ( 97.0%)

     Node minimum: 302.514 MB, node maximum: 302.514 MB


 NUMBER OF SORTED TWO-ELECTRON INTEGRALS:   36256870.     BUFFER LENGTH:  32768
 NUMBER OF SEGMENTS:   3  SEGMENT LENGTH:   15998004      RECORD LENGTH: 524288

 Memory used in sort:      16.56 MW

 SORT1 READ    38982888. AND WROTE    36197648. INTEGRALS IN    105 RECORDS. CPU TIME:     0.35 SEC, REAL TIME:     0.57 SEC
 SORT2 READ    36197648. AND WROTE    36256870. INTEGRALS IN   1154 RECORDS. CPU TIME:     0.27 SEC, REAL TIME:     0.43 SEC

 FILE SIZES:   FILE 1:   283.1 MBYTE,  FILE 4:   440.4 MBYTE,   TOTAL:    723.5 MBYTE

 OPERATOR DM      FOR CENTER  0  COORDINATES:    0.000000    0.000000    0.000000


 **********************************************************************************************************************************
 DATASETS  * FILE   NREC   LENGTH (MB)   RECORD NAMES
              1      19      283.27       500      610      700      900      950      970     1000      129      960     1100   
                                          VAR    BASINP    GEOM    SYMINP    ZMAT    AOBASIS   BASIS     P2S    ABASIS      S 
                                         1400     1410     1200     1210     1080     1600     1650     1300     1700   
                                           T        V       H0       H01     AOSYM     SMH    MOLCAS    ERIS     OPER   

 PROGRAMS   *        TOTAL       INT
 CPU TIMES  *         3.48      3.44
 REAL TIME  *         4.53 SEC
 DISK USED  *         1.03 GB      
 GA USED    *         0.01 MB       (max)       0.00 MB       (current)
 **********************************************************************************************************************************

1PROGRAM * RHF-SCF (CLOSED SHELL)       Authors: W. Meyer, H.-J. Werner


 NUMBER OF ELECTRONS:      21+   21-    SPACE SYMMETRY=1    SPIN SYMMETRY: Singlet 
 CONVERGENCE THRESHOLDS:    1.00E-10 (Density)    1.00E-13 (Energy)
 MAX. NUMBER OF ITERATIONS:      200
 INTERPOLATION TYPE:            DIIS
 INTERPOLATION STEPS:              2 (START)      1 (STEP)
 LEVEL SHIFTS:                  0.00 (CLOSED)  0.00 (OPEN) 



 Orbital guess generated from atomic densities. Full valence occupancy:   37

 Molecular orbital dump at record        2100.2

 ITERATION    DDIFF          GRAD             ENERGY        2-EL.EN.            DIPOLE MOMENTS         DIIS
    1      0.000D+00      0.000D+00      -196.27088039    527.677239   -0.00000    0.00000   -0.00000    0
    2      0.000D+00      0.467D-02      -196.33873977    521.943714    0.00000   -0.00000   -0.00000    1
    3      0.930D-02      0.177D-02      -196.34653033    524.513822    0.00000   -0.00000    0.00000    2
    4      0.346D-02      0.571D-03      -196.34767710    523.812489    0.00000   -0.00000    0.00000    3
    5      0.114D-02      0.118D-03      -196.34771168    523.879002    0.00000   -0.00000   -0.00000    4
    6      0.198D-03      0.238D-04      -196.34771336    523.875243    0.00000   -0.00000    0.00000    5
    7      0.659D-04      0.226D-05      -196.34771338    523.875009    0.00000   -0.00000   -0.00000    6
    8      0.684D-05      0.488D-06      -196.34771338    523.874967    0.00000   -0.00000    0.00000    6
    9      0.138D-05      0.703D-07      -196.34771338    523.874959    0.00000   -0.00000    0.00000    5
   10      0.244D-06      0.934D-08      -196.34771338    523.874968    0.00000   -0.00000   -0.00000    5
   11      0.315D-07      0.278D-08      -196.34771338    523.874964    0.00000   -0.00000    0.00000    5
   12      0.584D-08      0.105D-08      -196.34771338    523.874965    0.00000   -0.00000   -0.00000    6
   13      0.216D-08      0.845D-10      -196.34771338    523.874965    0.00000   -0.00000    0.00000    6
   14      0.204D-09      0.259D-10      -196.34771338    523.874965    0.00000   -0.00000   -0.00000    6
   15      0.755D-10      0.741D-11      -196.34771338    523.874965    0.00000   -0.00000    0.00000    6
   16      0.259D-10      0.125D-11      -196.34771338    523.874965    0.00000   -0.00000    0.00000    0

 Final occupancy:  21

 !RHF STATE 1.1 Energy               -196.347713383171
 Nuclear energy                       198.59914937
 One-electron energy                 -656.88434520
 Two-electron energy                  261.93748245
 Virial quotient                       -1.00118110
 !RHF STATE 1.1 Dipole moment           0.00000000    -0.00000000     0.00000000
 Dipole moment /Debye                   0.00000000    -0.00000000     0.00000000

 Orbital energies:

         1.1          2.1          3.1          4.1          5.1          6.1          7.1          8.1          9.1         10.1
    -11.230715   -11.214104   -11.214104   -11.214104   -11.214056    -1.103748    -0.927611    -0.927611    -0.927465    -0.728614

        11.1         12.1         13.1         14.1         15.1         16.1         17.1         18.1         19.1         20.1
     -0.609132    -0.609132    -0.608967    -0.551002    -0.549973    -0.508276    -0.507540    -0.507540    -0.450449    -0.450449

        21.1         22.1         23.1
     -0.450098     0.170676     0.231133


 **********************************************************************************************************************************
 DATASETS  * FILE   NREC   LENGTH (MB)   RECORD NAMES
              1      19      283.27       500      610      700      900      950      970     1000      129      960     1100   
                                          VAR    BASINP    GEOM    SYMINP    ZMAT    AOBASIS   BASIS     P2S    ABASIS      S 
                                         1400     1410     1200     1210     1080     1600     1650     1300     1700   
                                           T        V       H0       H01     AOSYM     SMH    MOLCAS    ERIS     OPER   

              2       3        0.89       700     1000     2100   
                                         GEOM     BASIS     RHF  

 PROGRAMS   *        TOTAL       RHF       INT
 CPU TIMES  *         7.31      3.83      3.44
 REAL TIME  *         8.84 SEC
 DISK USED  *         1.03 GB      
 GA USED    *         0.01 MB       (max)       0.00 MB       (current)
 **********************************************************************************************************************************


1PROGRAM * CCSD (Closed-shell coupled cluster)     Authors: C. Hampel, H.-J. Werner, 1991, M. Deegan, P.J. Knowles, 1992


 Convergence thresholds:  THRVAR = 1.00D-08  THRDEN = 1.00D-12

 CCSD(T)     terms to be evaluated (factor= 1.000)


 Number of core orbitals:           5 (   5 )
 Number of closed-shell orbitals:  16 (  16 )
 Number of external orbitals:     109 ( 109 )

 Molecular orbitals read from record     2100.2  Type=RHF/CANONICAL (state 1.1)

 Number of N-1 electron functions:              16
 Number of N-2 electron functions:             136
 Number of singly external CSFs:              1744
 Number of doubly external CSFs:           1521640
 Total number of CSFs:                     1523385

 Length of J-op  integral file:               0.00 MB
 Length of K-op  integral file:               1.20 MB
 Length of 3-ext integral record:             0.00 MB

 Memory could be reduced to 28.13 Mwords without degradation in triples

 Integral transformation finished. Total CPU:   1.50 sec, npass=  1  Memory used:  22.98 MW

 Reference energy:                   -196.34771338

 MP2 singlet pair energy:              -0.48845272
 MP2 triplet pair energy:              -0.25007748
 MP2 correlation energy:               -0.73853020
 MP2 total energy:                   -197.08624359

 SCS-MP2 correlation energy:           -0.74174703   (PS=  1.200000  PT=  0.333333)
 SCS-MP2 total energy:               -197.08946041

 ITER.      SQ.NORM     CORR.ENERGY   TOTAL ENERGY   ENERGY CHANGE        DEN1      VAR(S)    VAR(P)  DIIS     TIME
   1      1.28821648    -0.80655555  -197.15426893    -0.06802535    -0.04667772  0.17D-02  0.47D-02  1  1     5.96
   2      1.31151790    -0.81148928  -197.15920267    -0.00493374    -0.02352693  0.47D-04  0.32D-03  2  2    10.48
   3      1.31554239    -0.81163868  -197.15935206    -0.00014939    -0.00244897  0.53D-05  0.22D-04  3  3    15.00
   4      1.31658427    -0.81170118  -197.15941456    -0.00006250    -0.00046148  0.25D-06  0.12D-05  4  4    19.51
   5      1.31671026    -0.81170557  -197.15941895    -0.00000439    -0.00005128  0.15D-07  0.93D-07  5  5    24.04
   6      1.31672266    -0.81170314  -197.15941653     0.00000243    -0.00000842  0.69D-09  0.61D-08  6  6    28.59
   7      1.31672113    -0.81170343  -197.15941681    -0.00000028     0.00000071  0.16D-09  0.52D-09  6  1    33.12
   8      1.31672083    -0.81170358  -197.15941696    -0.00000015     0.00000027  0.78D-11  0.30D-10  6  2    37.65
   9      1.31672054    -0.81170362  -197.15941701    -0.00000005     0.00000026  0.11D-11  0.25D-11  6  3    42.18
  10      1.31672043    -0.81170363  -197.15941701    -0.00000001     0.00000009  0.89D-13  0.22D-12  6  4    46.72
  11      1.31672037    -0.81170363  -197.15941702    -0.00000000     0.00000004  0.94D-14  0.24D-13  6  5    51.25
  12      1.31672034    -0.81170364  -197.15941702    -0.00000000     0.00000002  0.89D-15  0.12D-14  6  1    55.77
  13      1.31672033    -0.81170364  -197.15941702    -0.00000000     0.00000000  0.79D-16  0.70D-16  6  6    60.30
  14      1.31672033    -0.81170364  -197.15941702    -0.00000000     0.00000000  0.15D-16  0.96D-17  6  2    64.83
  15      1.31672033    -0.81170364  -197.15941702    -0.00000000     0.00000000  0.13D-17  0.11D-17  6  3    69.35
  16      1.31672033    -0.81170364  -197.15941702     0.00000000    -0.00000000  0.70D-19  0.92D-19  6  4    73.88
  17      1.31672033    -0.81170364  -197.15941702     0.00000000    -0.00000000  0.34D-20  0.85D-20  6  5    78.40
  18      1.31672033    -0.81170364  -197.15941702     0.00000000    -0.00000000  0.38D-21  0.12D-20  6  1    82.94
  19      1.31672033    -0.81170364  -197.15941702     0.00000000    -0.00000000  0.30D-22  0.16D-21  6  6    87.47

 Norm of t1 vector:      0.05469815      S-energy:    -0.00000000      T1 diagnostic:  0.00683727
                                                                       D1 diagnostic:  0.01260152


 Total CPU time for triples:     70.31 sec


 RESULTS
 =======

  Reference energy                   -196.347713383171
  CCSD singlet pair energy             -0.577587622638
  CCSD triplet pair energy             -0.234116012751
  CCSD correlation energy              -0.811703635389

  Triples (T) contribution             -0.023942392785
  Total correlation energy             -0.835646028174

  CCSD total energy                  -197.159417018560
  CCSD[T] energy                     -197.183818755063
  CCSD-T energy                      -197.183110749461
 !CCSD(T) total energy               -197.183359411346

 Timing summary (sec):

 STEP                 CPU(USER)    SYS     CPU(TOT)    WALL
 Transformation          1.56      0.17      1.73      1.73
 CCSD iterations        85.92      1.98     87.90     87.95
 Triples                70.31      1.45     71.76     71.78

 Program statistics:

 Available memory in ccsd:               999998876
 Min. memory needed in ccsd:               3966807
 Max. memory used in ccsd:                 5311887
 Max. memory used in cckext:               4858018 (19 integral passes)



 **********************************************************************************************************************************
 DATASETS  * FILE   NREC   LENGTH (MB)   RECORD NAMES
              1      20      394.98       500      610      700      900      950      970     1000      129      960     1100   
                                          VAR    BASINP    GEOM    SYMINP    ZMAT    AOBASIS   BASIS     P2S    ABASIS      S 
                                         1400     1410     1200     1210     1080     1600     1650     1300     1700     1380   
                                           T        V       H0       H01     AOSYM     SMH    MOLCAS    ERIS     OPER     JKOP   

              2       3        0.89       700     1000     2100   
                                         GEOM     BASIS     RHF  

 PROGRAMS   *        TOTAL   CCSD(T)       RHF       INT
 CPU TIMES  *       165.11    157.80      3.83      3.44
 REAL TIME  *       170.34 SEC
 DISK USED  *         1.03 GB      
 GA USED    *         0.01 MB       (max)       0.00 MB       (current)
 **********************************************************************************************************************************

        CCSD(T)         RHF-SCF 
   -197.18335941   -196.34771338
 **********************************************************************************************************************************
 Variable memory released
