
 Primary working directories    : /tmp/862144.260.gen4.q
 Secondary working directories  : /tmp/862144.260.gen4.q
 Wavefunction directory         : /home/vulcan/lo21740/wfu/
 Main file repository           : /tmp/862144.260.gen4.q/

 ARCHNAME  : Linux/x86_64
 FC        : /opt/intel/compilers_and_libraries_2016.1.150/linux/bin/intel64/ifort
 FCVERSION : 16.0.1
 BLASLIB   : -mkl
 id        : ccgc

 Nodes     nprocs
 n058         1
 ga_uses_ma=false, calling ma_init with nominal heap.
 GA-space will be limited to   8.0 MW (determined by -G option)

 Using customized tuning parameters: mindgm=10; mindgv=16; mindgc=4; mindgr=1; noblas=0; mincuda=1000; minvec=7
 default implementation of scratch files=df  

 ***,Optimization of formic acid
 memory,1000,m
 gthresh,energy=1.0d-12,orbital=1.0d-10,oneint=1.0d-16,twoint=1.0d-16,optgrad=1.0d-6,compress=1.0d-13
 geomtyp=xyz
 
 bohr
 geometry = {
  C   -3.4984017167   -0.8326150943    0.0000000000
  O   -3.0950917086    1.6239742835   -0.0000000000
  O   -1.8866172374   -2.4807063992    0.0000000000
  H   -5.5205840110   -1.2730469269    0.0000000000
  H   -1.2424266060    1.9533670855   -0.0000000000
  C    3.4984017167    0.8326150943    0.0000000000
  O    3.0950917086   -1.6239742835   -0.0000000000
  O    1.8866172374    2.4807063992    0.0000000000
  H    5.5205840110    1.2730469269   -0.0000000000
  H    1.2424266060   -1.9533670855   -0.0000000000
 }
 
 basis=VDZ
 {rhf;maxit,200}
 {ccsd(t);maxit,200}

 Variables initialized (661), CPU time= 0.00 sec
 Commands  initialized (458), CPU time= 0.01 sec, 486 directives.
 Default parameters read. Elapsed time= 0.05 sec

 Checking input...
 Passed
1


                                         ***  PROGRAM SYSTEM MOLPRO  ***
                         Copyright, University College Cardiff Consultants Limited, 2008

                                    Version 2010.1 linked May 16 2016 07:17:05


 **********************************************************************************************************************************
 LABEL *   Optimization of formic acid                                                   
 Linux-4.4.3/n058(x86_64) 64 bit mpp version                                             DATE: 26-Apr-23          TIME: 18:12:51  
 **********************************************************************************************************************************

 SHA1:             9e8077add272b0f3cad6f7df79ec5211205f459d
 **********************************************************************************************************************************

 THRESHOLDS:

 ZERO    =  1.00D-12  ONEINT  =  1.00D-16  TWOINT  =  1.00D-16  PREFAC  =  1.00D-14  LOCALI  =  1.00D-09  EORDER  =  1.00D-04
 ENERGY  =  1.00D-12  ETEST   =  0.00D+00  EDENS   =  0.00D+00  THRDEDEF=  1.00D-06  GRADIENT=  1.00D-02  STEP    =  1.00D-03
 ORBITAL =  1.00D-10  CIVEC   =  1.00D-05  COEFF   =  1.00D-04  PRINTCI =  5.00D-02  PUNCHCI =  9.90D+01  OPTGRAD =  1.00D-06
 OPTENERG=  1.00D-06  OPTSTEP =  3.00D-04  THRGRAD =  1.00D-10  COMPRESS=  1.00D-13  VARMIN  =  1.00D-07  VARMAX  =  1.00D-03
 THRDOUB =  0.00D+00  THRDIV  =  1.00D-05  THRRED  =  1.00D-07  THRPSP  =  1.00D+00  THRDC   =  1.00D-10  THRCS   =  1.00D-10
 THRNRM  =  1.00D-08  THREQ   =  0.00D+00  THRDE   =  1.00D+00  THRREF  =  1.00D-05  SPARFAC =  1.00D+00  THRDLP  =  1.00D-07
 THRDIA  =  1.00D-10  THRDLS  =  1.00D-07  THRGPS  =  0.00D+00  THRKEX  =  0.00D+00  THRDIS  =  2.00D-01  THRVAR  =  1.00D-10
 THRLOC  =  1.00D-06  THRGAP  =  1.00D-06  THRLOCT = -1.00D+00  THRGAPT = -1.00D+00  THRORB  =  1.00D-06  THRMLTP =  0.00D+00
 THRCPQCI=  1.00D-10  KEXTA   =  0.00D+00  THRCOARS=  0.00D+00  SYMTOL  =  1.00D-06  GRADTOL =  1.00D-06  THROVL  =  1.00D-08
 THRORTH =  1.00D-08  GRID    =  1.00D-06  GRIDMAX =  1.00D-03  DTMAX   =  0.00D+00

 SETTING GEOMTYP        =    XYZ
 ZUNIT=BOHR
 

 Variable memory set to 1000000000 words,  buffer space   230000 words

 SETTING BASIS          =    VDZ


 Recomputing integrals since basis changed


 Using spherical harmonics

 Library entry C      S cc-pVDZ              selected for orbital group  1
 Library entry C      P cc-pVDZ              selected for orbital group  1
 Library entry C      D cc-pVDZ              selected for orbital group  1
 Library entry O      S cc-pVDZ              selected for orbital group  2
 Library entry O      P cc-pVDZ              selected for orbital group  2
 Library entry O      D cc-pVDZ              selected for orbital group  2
 Library entry H      S cc-pVDZ              selected for orbital group  3
 Library entry H      P cc-pVDZ              selected for orbital group  3

1PROGRAM * SEWARD (Integral evaluation for generally contracted gaussian basis sets)     Author: Roland Lindh, 1990

 Geometry written to block  1 of record 700


 Point group  C2h 



 ATOMIC COORDINATES

 NR  ATOM    CHARGE       X              Y              Z

   1  C       6.00   -3.498401717   -0.832615094    0.000000000
   2  C       6.00    3.498401717    0.832615094    0.000000000
   3  O       8.00   -3.095091709    1.623974283    0.000000000
   4  O       8.00    3.095091709   -1.623974283    0.000000000
   5  O       8.00   -1.886617237   -2.480706399    0.000000000
   6  O       8.00    1.886617237    2.480706399    0.000000000
   7  H       1.00   -5.520584011   -1.273046927    0.000000000
   8  H       1.00    5.520584011    1.273046927    0.000000000
   9  H       1.00   -1.242426606    1.953367086    0.000000000
  10  H       1.00    1.242426606   -1.953367086    0.000000000

 Bond lengths in Bohr (Angstrom)

 1-3  2.489475915  1-5  2.305223234  1-7  2.069589677  2-4  2.489475915  2-6  2.305223234
     ( 1.317373917)     ( 1.219871597)     ( 1.095179689)     ( 1.317373917)     ( 1.219871597)

  2- 8  2.069589677   3- 9  1.881719320   4-10  1.881719320
       ( 1.095179689)       ( 0.995762978)       ( 0.995762978)

 Bond angles

  1- 3- 9  109.40485108   2- 4-10  109.40485108   3- 1- 5  126.31475442   3- 1- 7  111.61049619

  4-2-6  126.31475442   4-2-8  111.61049619   5-1-7  122.07474939   6-2-8  122.07474939

 NUCLEAR CHARGE:                   48
 NUMBER OF PRIMITIVE AOS:         190
 NUMBER OF SYMMETRY AOS:          184
 NUMBER OF CONTRACTIONS:          104   (  38Ag  +  14Au  +  38Bu  +  14Bg  )
 NUMBER OF CORE ORBITALS:           6   (   3Ag  +   0Au  +   3Bu  +   0Bg  )
 NUMBER OF VALENCE ORBITALS:       28   (  11Ag  +   3Au  +  11Bu  +   3Bg  )


 NUCLEAR REPULSION ENERGY  235.54461826


 Eigenvalues of metric

         1 0.818E-02 0.138E-01 0.167E-01 0.299E-01 0.377E-01 0.444E-01 0.554E-01 0.933E-01
         2 0.115E+00 0.174E+00 0.194E+00 0.419E+00 0.481E+00 0.558E+00 0.675E+00 0.999E+00
         3 0.871E-02 0.140E-01 0.165E-01 0.306E-01 0.355E-01 0.442E-01 0.528E-01 0.961E-01
         4 0.116E+00 0.175E+00 0.191E+00 0.419E+00 0.480E+00 0.571E+00 0.653E+00 0.999E+00


 Contracted 2-electron integrals neglected if value below      1.0D-16
 AO integral compression algorithm  1   Integral accuracy      1.0D-16

     40.632 MB (compressed) written to integral file (100.0%)

     Node minimum: 40.632 MB, node maximum: 40.632 MB


 NUMBER OF SORTED TWO-ELECTRON INTEGRALS:    4024002.     BUFFER LENGTH:  32768
 NUMBER OF SEGMENTS:   1  SEGMENT LENGTH:    4024002      RECORD LENGTH: 524288

 Memory used in sort:       4.58 MW

 SORT1 READ     4964096. AND WROTE     4024002. INTEGRALS IN     12 RECORDS. CPU TIME:     0.08 SEC, REAL TIME:     0.10 SEC
 SORT2 READ     4024002. AND WROTE     4024002. INTEGRALS IN    155 RECORDS. CPU TIME:     0.07 SEC, REAL TIME:     0.09 SEC

 FILE SIZES:   FILE 1:    35.7 MBYTE,  FILE 4:    50.4 MBYTE,   TOTAL:     86.0 MBYTE

 OPERATOR DM      FOR CENTER  0  COORDINATES:    0.000000    0.000000    0.000000


 **********************************************************************************************************************************
 DATASETS  * FILE   NREC   LENGTH (MB)   RECORD NAMES
              1      19       35.69       500      610      700      900      950      970     1000      129      960     1100   
                                          VAR    BASINP    GEOM    SYMINP    ZMAT    AOBASIS   BASIS     P2S    ABASIS      S 
                                         1400     1410     1200     1210     1080     1600     1650     1300     1700   
                                           T        V       H0       H01     AOSYM     SMH    MOLCAS    ERIS     OPER   

 PROGRAMS   *        TOTAL       INT
 CPU TIMES  *         1.13      1.08
 REAL TIME  *         1.39 SEC
 DISK USED  *       127.44 MB      
 GA USED    *         0.00 MB       (max)       0.00 MB       (current)
 **********************************************************************************************************************************

1PROGRAM * RHF-SCF (CLOSED SHELL)       Authors: W. Meyer, H.-J. Werner


 NUMBER OF ELECTRONS:      24+   24-
 CONVERGENCE THRESHOLDS:    1.00E-10 (Density)    1.00E-13 (Energy)
 MAX. NUMBER OF ITERATIONS:      200
 INTERPOLATION TYPE:            DIIS
 INTERPOLATION STEPS:              2 (START)      1 (STEP)
 LEVEL SHIFTS:                  0.00 (CLOSED)  0.00 (OPEN) 



 Orbital guess generated from atomic densities. Full valence occupancy:   14   3  14   3

 Molecular orbital dump at record        2100.2

 Initial alpha occupancy:  10   2  10   2
 Initial beta  occupancy:  10   2  10   2
 Wave function symmetry:    1

 ITERATION    DDIFF          GRAD             ENERGY        2-EL.EN.            DIPOLE MOMENTS         DIIS
    1      0.000D+00      0.000D+00      -377.45033846    747.063002    0.00000    0.00000    0.00000    0
    2      0.000D+00      0.198D-01      -377.53810466    744.228414    0.00000    0.00000    0.00000    1
    3      0.391D-01      0.122D-01      -377.58441582    746.470549    0.00000    0.00000    0.00000    2
    4      0.142D-01      0.173D-02      -377.58590113    746.189263    0.00000    0.00000    0.00000    3
    5      0.277D-02      0.719D-03      -377.58616047    746.216280    0.00000    0.00000    0.00000    4
    6      0.114D-02      0.208D-03      -377.58620693    746.260272    0.00000    0.00000    0.00000    5
    7      0.397D-03      0.950D-04      -377.58621838    746.245101    0.00000    0.00000    0.00000    6
    8      0.239D-03      0.281D-04      -377.58621938    746.250330    0.00000    0.00000    0.00000    7
    9      0.741D-04      0.947D-05      -377.58621948    746.248875    0.00000    0.00000    0.00000    8
   10      0.256D-04      0.258D-05      -377.58621949    746.249043    0.00000    0.00000    0.00000    7
   11      0.716D-05      0.631D-06      -377.58621949    746.248989    0.00000    0.00000    0.00000    8
   12      0.167D-05      0.177D-06      -377.58621949    746.249011    0.00000    0.00000    0.00000    7
   13      0.460D-06      0.709D-07      -377.58621949    746.248999    0.00000    0.00000    0.00000    8
   14      0.133D-06      0.215D-07      -377.58621949    746.249002    0.00000    0.00000    0.00000    7
   15      0.551D-07      0.641D-08      -377.58621949    746.249001    0.00000    0.00000    0.00000    7
   16      0.113D-07      0.178D-08      -377.58621949    746.249001    0.00000    0.00000    0.00000    7
   17      0.362D-08      0.697D-09      -377.58621949    746.249001    0.00000    0.00000    0.00000    7
   18      0.138D-08      0.208D-09      -377.58621949    746.249001    0.00000    0.00000    0.00000    8
   19      0.507D-09      0.681D-10      -377.58621949    746.249001    0.00000    0.00000    0.00000    8
   20      0.169D-09      0.152D-10      -377.58621949    746.249001    0.00000    0.00000    0.00000    7
   21      0.404D-10      0.337D-11      -377.58621949    746.249001    0.00000    0.00000    0.00000    7
   22      0.901D-11      0.118D-11      -377.58621949    746.249001    0.00000    0.00000    0.00000    0

 Final occupancy:  10   2  10   2

 !RHF STATE 1.1 Energy               -377.586219490790
 Nuclear energy                       235.54461826
 One-electron energy                 -986.25533825
 Two-electron energy                  373.12450049
 Virial quotient                       -1.00121425
 !RHF STATE 1.1 Dipole moment           0.00000000     0.00000000     0.00000000
 Dipole moment /Debye                   0.00000000     0.00000000     0.00000000

 Orbital energies:

         1.1          2.1          3.1          4.1          5.1          6.1          7.1          8.1          9.1         10.1
    -20.613616   -20.576031   -11.412012    -1.482231    -1.370539    -0.913788    -0.727992    -0.689027    -0.615212    -0.489782

        11.1         12.1
      0.204220     0.290210

         1.2          2.2          3.2          4.2
     -0.638564    -0.488323     0.161305     0.631702

         1.3          2.3          3.3          4.3          5.3          6.3          7.3          8.3          9.3         10.3
    -20.613614   -20.576031   -11.412013    -1.469440    -1.384574    -0.877794    -0.763341    -0.719298    -0.574129    -0.467844

        11.3         12.3
      0.209829     0.315643

         1.4          2.4          3.4          4.4
     -0.628972    -0.499000     0.166334     0.658304


 **********************************************************************************************************************************
 DATASETS  * FILE   NREC   LENGTH (MB)   RECORD NAMES
              1      19       35.69       500      610      700      900      950      970     1000      129      960     1100   
                                          VAR    BASINP    GEOM    SYMINP    ZMAT    AOBASIS   BASIS     P2S    ABASIS      S 
                                         1400     1410     1200     1210     1080     1600     1650     1300     1700   
                                           T        V       H0       H01     AOSYM     SMH    MOLCAS    ERIS     OPER   

              2       3        0.49       700     1000     2100   
                                         GEOM     BASIS     RHF  

 PROGRAMS   *        TOTAL       RHF       INT
 CPU TIMES  *         1.43      0.31      1.08
 REAL TIME  *         1.77 SEC
 DISK USED  *       127.44 MB      
 GA USED    *         0.00 MB       (max)       0.00 MB       (current)
 **********************************************************************************************************************************


1PROGRAM * CCSD (Closed-shell coupled cluster)     Authors: C. Hampel, H.-J. Werner, 1991, M. Deegan, P.J. Knowles, 1992


 Convergence thresholds:  THRVAR = 1.00D-08  THRDEN = 1.00D-12

 CCSD(T)     terms to be evaluated (factor= 1.000)


 Number of core orbitals:           6 (   3   0   3   0 )
 Number of closed-shell orbitals:  18 (   7   2   7   2 )
 Number of external orbitals:      80 (  28  12  28  12 )

 Molecular orbitals read from record     2100.2  Type=RHF/CANONICAL (state 1.1)

 Number of N-1 electron functions:              18
 Number of N-2 electron functions:             171
 Number of singly external CSFs:               440
 Number of doubly external CSFs:            272720
 Total number of CSFs:                      273161

 Length of J-op  integral file:               0.00 MB
 Length of K-op  integral file:               0.26 MB
 Length of 3-ext integral record:             0.00 MB

 Memory could be reduced to 3.82 Mwords without degradation in triples

 Integral transformation finished. Total CPU:   0.13 sec, npass=  1  Memory used:   1.67 MW

 Reference energy:                   -377.58621949

 MP2 singlet pair energy:              -0.59900091
 MP2 triplet pair energy:              -0.40682434
 MP2 correlation energy:               -1.00582525
 MP2 total energy:                   -378.59204474

 SCS-MP2 correlation energy:           -0.97193624   (PS=  1.200000  PT=  0.333333)
 SCS-MP2 total energy:               -378.55815573

 ITER.      SQ.NORM     CORR.ENERGY   TOTAL ENERGY   ENERGY CHANGE        DEN1      VAR(S)    VAR(P)  DIIS     TIME
   1      1.28152346    -1.02610745  -378.61232694    -0.02028220     0.01042340  0.10D-01  0.55D-02  1  1     0.44
   2      1.30516165    -1.02799871  -378.61421820    -0.00189126    -0.02503006  0.25D-03  0.10D-02  2  2     0.77
   3      1.31814121    -1.02894251  -378.61516200    -0.00094380    -0.00594442  0.20D-03  0.42D-04  3  3     1.10
   4      1.32345275    -1.02871058  -378.61493007     0.00023193    -0.00174491  0.17D-04  0.70D-05  4  4     1.44
   5      1.32550105    -1.02862146  -378.61484095     0.00008911    -0.00045566  0.11D-05  0.67D-06  5  5     1.78
   6      1.32584284    -1.02860129  -378.61482078     0.00002017    -0.00001561  0.10D-06  0.60D-07  6  6     2.11
   7      1.32591153    -1.02859365  -378.61481314     0.00000764    -0.00000449  0.87D-08  0.89D-08  6  2     2.44
   8      1.32591493    -1.02859451  -378.61481400    -0.00000086     0.00000204  0.18D-08  0.94D-09  6  1     2.77
   9      1.32591577    -1.02859418  -378.61481367     0.00000033     0.00000091  0.40D-09  0.18D-09  6  4     3.11
  10      1.32591767    -1.02859403  -378.61481352     0.00000016    -0.00000066  0.11D-09  0.30D-10  6  3     3.44
  11      1.32591716    -1.02859416  -378.61481365    -0.00000013     0.00000026  0.23D-10  0.62D-11  6  5     3.79
  12      1.32591681    -1.02859417  -378.61481366    -0.00000001     0.00000005  0.28D-11  0.12D-11  6  6     4.12
  13      1.32591646    -1.02859422  -378.61481371    -0.00000005     0.00000014  0.29D-12  0.23D-12  6  1     4.46
  14      1.32591633    -1.02859422  -378.61481371    -0.00000000     0.00000003  0.30D-13  0.24D-13  6  2     4.80
  15      1.32591629    -1.02859422  -378.61481372    -0.00000000     0.00000001  0.61D-14  0.29D-14  6  4     5.14
  16      1.32591628    -1.02859423  -378.61481372    -0.00000000     0.00000000  0.83D-15  0.61D-15  6  5     5.47
  17      1.32591628    -1.02859423  -378.61481372    -0.00000000    -0.00000000  0.92D-16  0.51D-16  6  3     5.81
  18      1.32591627    -1.02859423  -378.61481372    -0.00000000     0.00000000  0.15D-16  0.84D-17  6  6     6.14
  19      1.32591627    -1.02859423  -378.61481372    -0.00000000     0.00000000  0.39D-17  0.16D-17  6  1     6.48
  20      1.32591627    -1.02859423  -378.61481372     0.00000000    -0.00000000  0.63D-18  0.30D-18  6  5     6.82
  21      1.32591627    -1.02859423  -378.61481372    -0.00000000     0.00000000  0.10D-18  0.55D-19  6  4     7.16
  22      1.32591627    -1.02859423  -378.61481372     0.00000000    -0.00000000  0.83D-20  0.52D-20  6  2     7.51
  23      1.32591627    -1.02859423  -378.61481372     0.00000000     0.00000000  0.12D-20  0.92D-21  6  3     7.84
  24      1.32591627    -1.02859423  -378.61481372    -0.00000000     0.00000000  0.31D-21  0.19D-21  6  6     8.17

 Norm of t1 vector:      0.15209272      S-energy:     0.00000000      T1 diagnostic:  0.01792430
                                                                       D1 diagnostic:  0.06472513

 Singles amplitudes (print threshold =  0.500E-01):

         I         SYM. A    A   T(IA)

         8         2         1      0.05931222
        17         4         1      0.06115683


 Total CPU time for triples:      4.65 sec


 RESULTS
 =======

  Reference energy                   -377.586219490790
  CCSD singlet pair energy             -0.670837097057
  CCSD triplet pair energy             -0.357757129658
  CCSD correlation energy              -1.028594226713

  Triples (T) contribution             -0.031878165229
  Total correlation energy             -1.060472391941

  CCSD total energy                  -378.614813717503
  CCSD[T] energy                     -378.649962624882
  CCSD-T energy                      -378.645614538810
 !CCSD(T) total energy               -378.646691882731

 Timing summary (sec):

 STEP                 CPU(USER)    SYS     CPU(TOT)    WALL
 Transformation          0.13      0.03      0.16      0.16
 CCSD iterations         8.04      0.43      8.47      8.50
 Triples                 4.65      0.14      4.79      4.80

 Program statistics:

 Available memory in ccsd:               999998604
 Min. memory needed in ccsd:                781956
 Max. memory used in ccsd:                 1028476
 Max. memory used in cckext:               1140120 (24 integral passes)



 **********************************************************************************************************************************
 DATASETS  * FILE   NREC   LENGTH (MB)   RECORD NAMES
              1      20       52.00       500      610      700      900      950      970     1000      129      960     1100   
                                          VAR    BASINP    GEOM    SYMINP    ZMAT    AOBASIS   BASIS     P2S    ABASIS      S 
                                         1400     1410     1200     1210     1080     1600     1650     1300     1700     1380   
                                           T        V       H0       H01     AOSYM     SMH    MOLCAS    ERIS     OPER     JKOP   

              2       3        0.49       700     1000     2100   
                                         GEOM     BASIS     RHF  

 PROGRAMS   *        TOTAL   CCSD(T)       RHF       INT
 CPU TIMES  *        14.26     12.83      0.31      1.08
 REAL TIME  *        15.25 SEC
 DISK USED  *       143.18 MB      
 GA USED    *         0.00 MB       (max)       0.00 MB       (current)
 **********************************************************************************************************************************

        CCSD(T)         RHF-SCF 
   -378.64669188   -377.58621949
 **********************************************************************************************************************************
 Variable memory released
