
 Primary working directories    : /tmp/1047041.278.gen4.q
 Secondary working directories  : /tmp/1047041.278.gen4.q
 Wavefunction directory         : /home/vulcan/mel64643/wfu/
 Main file repository           : /tmp/1047041.278.gen4.q/

 ARCHNAME  : Linux/x86_64
 FC        : /opt/intel/compilers_and_libraries_2016.1.150/linux/bin/intel64/ifort
 FCVERSION : 16.0.1
 BLASLIB   : -mkl
 id        : ccgc

 Nodes     nprocs
 n022         1
 ga_uses_ma=false, calling ma_init with nominal heap.
 GA-space will be limited to   8.0 MW (determined by -G option)

 Using customized tuning parameters: mindgm=10; mindgv=16; mindgc=4; mindgr=1; noblas=0; mincuda=1000; minvec=7
 default implementation of scratch files=df  

 ***,Optimization of ben_hcn
 memory,1000,m
 gthresh,energy=1.0d-12,orbital=1.0d-10,oneint=1.0d-16,twoint=1.0d-16,optgrad=1.0d-6,compress=1.0d-13
 geomtyp=xyz
 
 
 
 bohr
 geometry = {
  C   -1.8842159543    1.3666887231    2.2855315181
  C   -1.8594199911    2.6924356310   -0.0014548793
  C   -1.8725107278    1.3697765793   -2.2960832851
  C   -1.9197643499   -1.2782648574   -2.2921059061
  C   -1.9443951562   -2.5938281220    0.0005196880
  C   -1.9312382077   -1.2713765499    2.2835094597
  H   -1.8610440815    2.3881560377    4.0604251501
  H   -1.8244848466    4.7401200277    0.0011215943
  H   -1.8401280402    2.3926583538   -4.0700123498
  H   -1.9307790980   -2.3057539917   -4.0636062805
  H   -1.9670429525   -4.6416327108    0.0046798417
  H   -1.9512219012   -2.2945119891    4.0574545741
  N    6.6239093083   -0.2015401954    0.0026467032
  C    4.4343426105   -0.0761656990    0.0091621880
  H    2.4147946351    0.0397623108    0.0153124976
 }
 
 basis=aug-cc-pvdz, H=cc-pvdz
 {rhf;maxit,200}
 {ccsd(t)}

 Variables initialized (661), CPU time= 0.00 sec
 Commands  initialized (458), CPU time= 0.01 sec, 486 directives.
 Default parameters read. Elapsed time= 0.06 sec

 Checking input...
 Passed
1


                                         ***  PROGRAM SYSTEM MOLPRO  ***
                         Copyright, University College Cardiff Consultants Limited, 2008

                                    Version 2010.1 linked May 16 2016 07:17:05


 **********************************************************************************************************************************
 LABEL *   Optimization of ben_hcn                                                       
 Linux-4.4.3/n022(x86_64) 64 bit mpp version                                             DATE: 07-Mar-24          TIME: 00:27:52  
 **********************************************************************************************************************************

 SHA1:             9e8077add272b0f3cad6f7df79ec5211205f459d
 **********************************************************************************************************************************

 THRESHOLDS:

 ZERO    =  1.00D-12  ONEINT  =  1.00D-16  TWOINT  =  1.00D-16  PREFAC  =  1.00D-14  LOCALI  =  1.00D-09  EORDER  =  1.00D-04
 ENERGY  =  1.00D-12  ETEST   =  0.00D+00  EDENS   =  0.00D+00  THRDEDEF=  1.00D-06  GRADIENT=  1.00D-02  STEP    =  1.00D-03
 ORBITAL =  1.00D-10  CIVEC   =  1.00D-05  COEFF   =  1.00D-04  PRINTCI =  5.00D-02  PUNCHCI =  9.90D+01  OPTGRAD =  1.00D-06
 OPTENERG=  1.00D-06  OPTSTEP =  3.00D-04  THRGRAD =  1.00D-10  COMPRESS=  1.00D-13  VARMIN  =  1.00D-07  VARMAX  =  1.00D-03
 THRDOUB =  0.00D+00  THRDIV  =  1.00D-05  THRRED  =  1.00D-07  THRPSP  =  1.00D+00  THRDC   =  1.00D-10  THRCS   =  1.00D-10
 THRNRM  =  1.00D-08  THREQ   =  0.00D+00  THRDE   =  1.00D+00  THRREF  =  1.00D-05  SPARFAC =  1.00D+00  THRDLP  =  1.00D-07
 THRDIA  =  1.00D-10  THRDLS  =  1.00D-07  THRGPS  =  0.00D+00  THRKEX  =  0.00D+00  THRDIS  =  2.00D-01  THRVAR  =  1.00D-10
 THRLOC  =  1.00D-06  THRGAP  =  1.00D-06  THRLOCT = -1.00D+00  THRGAPT = -1.00D+00  THRORB  =  1.00D-06  THRMLTP =  0.00D+00
 THRCPQCI=  1.00D-10  KEXTA   =  0.00D+00  THRCOARS=  0.00D+00  SYMTOL  =  1.00D-06  GRADTOL =  1.00D-06  THROVL  =  1.00D-08
 THRORTH =  1.00D-08  GRID    =  1.00D-06  GRIDMAX =  1.00D-03  DTMAX   =  0.00D+00

 SETTING GEOMTYP        =    XYZ
 ZUNIT=BOHR
 

 Variable memory set to 1000000000 words,  buffer space   230000 words

 SETTING BASIS          =    AUG-CC-PVDZ,H=CC-PVDZ


 Recomputing integrals since basis changed


 Using spherical harmonics

 Library entry C      S aug-cc-pVDZ          selected for orbital group  1
 Library entry C      P aug-cc-pVDZ          selected for orbital group  1
 Library entry C      D aug-cc-pVDZ          selected for orbital group  1
 Library entry H      S cc-pVDZ              selected for orbital group  2
 Library entry H      P cc-pVDZ              selected for orbital group  2
 Library entry N      S aug-cc-pVDZ          selected for orbital group  3
 Library entry N      P aug-cc-pVDZ          selected for orbital group  3
 Library entry N      D aug-cc-pVDZ          selected for orbital group  3

1PROGRAM * SEWARD (Integral evaluation for generally contracted gaussian basis sets)     Author: Roland Lindh, 1990

 Geometry written to block  1 of record 700


 Point group  C1  



 ATOMIC COORDINATES

 NR  ATOM    CHARGE       X              Y              Z

   1  C       6.00   -1.884215954    1.366688723    2.285531518
   2  C       6.00   -1.859419991    2.692435631   -0.001454879
   3  C       6.00   -1.872510728    1.369776579   -2.296083285
   4  C       6.00   -1.919764350   -1.278264857   -2.292105906
   5  C       6.00   -1.944395156   -2.593828122    0.000519688
   6  C       6.00   -1.931238208   -1.271376550    2.283509460
   7  H       1.00   -1.861044082    2.388156038    4.060425150
   8  H       1.00   -1.824484847    4.740120028    0.001121594
   9  H       1.00   -1.840128040    2.392658354   -4.070012350
  10  H       1.00   -1.930779098   -2.305753992   -4.063606281
  11  H       1.00   -1.967042952   -4.641632711    0.004679842
  12  H       1.00   -1.951221901   -2.294511989    4.057454574
  13  N       7.00    6.623909308   -0.201540195    0.002646703
  14  C       6.00    4.434342610   -0.076165699    0.009162188
  15  H       1.00    2.414794635    0.039762311    0.015312498

 Bond lengths in Bohr (Angstrom)

 1-2  2.643582131  1-6  2.638485089  1-7  2.047969681  2-3  2.648569020  2-8  2.047984007
     ( 1.398923414)     ( 1.396226175)     ( 1.083738880)     ( 1.401562362)     ( 1.083746461)

  3- 4  2.648466004   3- 9  2.047964865   4- 5  2.643377668   4-10  2.047942583   5- 6  2.638388441
       ( 1.401507848)       ( 1.083736332)       ( 1.398815217)       ( 1.083724540)       ( 1.396175031)

  5-11  2.047934048   6-12  2.047946958  13-14  2.193162908  14-15  2.022881893
       ( 1.083720024)       ( 1.083726856)       ( 1.160571826)       ( 1.070462994)

 Bond angles

  1- 2- 3  119.93476007   1- 2- 8  120.03273293   1- 6- 5  120.12623703   1- 6-12  119.93527519

  2-1-6  120.06093622   2-1-7  119.96808449   2-3-4  119.87393628   2-3-9  120.06188472

  3- 2- 8  120.03225641   3- 4- 5  119.93859899   3- 4-10  120.02873240   4- 3- 9  120.06389280

  4- 5- 6  120.06471220   4- 5-11  119.96799072   5- 4-10  120.03234256   5- 6-12  119.93817034

  6- 1- 7  119.97070812   6- 5-11  119.96694596  13-14-15  179.99091354

 NUCLEAR CHARGE:                   56
 NUMBER OF PRIMITIVE AOS:         345
 NUMBER OF SYMMETRY AOS:          329
 NUMBER OF CONTRACTIONS:          219   ( 219A   )
 NUMBER OF CORE ORBITALS:           8   (   8A   )
 NUMBER OF VALENCE ORBITALS:       39   (  39A   )


 NUCLEAR REPULSION ENERGY  303.39502359


 Eigenvalues of metric

         1 0.866E-05 0.186E-04 0.229E-04 0.534E-04 0.630E-04 0.631E-04 0.929E-04 0.929E-04


 Contracted 2-electron integrals neglected if value below      1.0D-16
 AO integral compression algorithm  1   Integral accuracy      1.0D-16

     2339.635 MB (compressed) written to integral file ( 91.2%)

     Node minimum: 2339.635 MB, node maximum: 2339.635 MB


 NUMBER OF SORTED TWO-ELECTRON INTEGRALS:  290176095.     BUFFER LENGTH:  32768
 NUMBER OF SEGMENTS:  19  SEGMENT LENGTH:   15999762      RECORD LENGTH: 524288

 Memory used in sort:      16.56 MW

 SORT1 READ   320642736. AND WROTE   287594466. INTEGRALS IN    832 RECORDS. CPU TIME:     3.52 SEC, REAL TIME:     7.78 SEC
 SORT2 READ   287594466. AND WROTE   290176095. INTEGRALS IN   8925 RECORDS. CPU TIME:     2.01 SEC, REAL TIME:     3.19 SEC

 FILE SIZES:   FILE 1:  2150.6 MBYTE,  FILE 4:  3489.7 MBYTE,   TOTAL:   5640.3 MBYTE

 OPERATOR DM      FOR CENTER  0  COORDINATES:    0.000000    0.000000    0.000000


 **********************************************************************************************************************************
 DATASETS  * FILE   NREC   LENGTH (MB)   RECORD NAMES
              1      19     2151.20       500      610      700      900      950      970     1000      129      960     1100   
                                          VAR    BASINP    GEOM    SYMINP    ZMAT    AOBASIS   BASIS     P2S    ABASIS      S 
                                         1400     1410     1200     1210     1080     1600     1650     1300     1700   
                                           T        V       H0       H01     AOSYM     SMH    MOLCAS    ERIS     OPER   

 PROGRAMS   *        TOTAL       INT
 CPU TIMES  *        19.45     19.39
 REAL TIME  *        27.32 SEC
 DISK USED  *         7.98 GB      
 GA USED    *         0.01 MB       (max)       0.00 MB       (current)
 **********************************************************************************************************************************

1PROGRAM * RHF-SCF (CLOSED SHELL)       Authors: W. Meyer, H.-J. Werner


 NUMBER OF ELECTRONS:      28+   28-    SPACE SYMMETRY=1    SPIN SYMMETRY: Singlet 
 CONVERGENCE THRESHOLDS:    1.00E-10 (Density)    1.00E-13 (Energy)
 MAX. NUMBER OF ITERATIONS:      200
 INTERPOLATION TYPE:            DIIS
 INTERPOLATION STEPS:              2 (START)      1 (STEP)
 LEVEL SHIFTS:                  0.00 (CLOSED)  0.00 (OPEN) 



 Orbital guess generated from atomic densities. Full valence occupancy:   47

 Molecular orbital dump at record        2100.2

 ITERATION    DDIFF          GRAD             ENERGY        2-EL.EN.            DIPOLE MOMENTS         DIIS
    1      0.000D+00      0.000D+00      -323.54134772    822.127133   -1.89861    0.10872   -0.00232    0
    2      0.000D+00      0.292D-02      -323.59778973    819.106343   -1.36880    0.04664    0.00737    1
    3      0.781D-02      0.179D-02      -323.61438893    820.251692   -1.72949    0.08108    0.00139    2
    4      0.260D-02      0.576D-03      -323.61672517    820.453378   -1.63878    0.07323    0.00169    3
    5      0.963D-03      0.133D-03      -323.61685454    820.193402   -1.66274    0.07350    0.00246    4
    6      0.223D-03      0.229D-04      -323.61686067    820.220241   -1.66408    0.07370    0.00203    5
    7      0.845D-04      0.438D-05      -323.61686087    820.215419   -1.66443    0.07343    0.00236    6
    8      0.108D-04      0.132D-05      -323.61686089    820.216293   -1.66473    0.07363    0.00212    7
    9      0.353D-05      0.392D-06      -323.61686089    820.216435   -1.66472    0.07351    0.00225    7
   10      0.918D-06      0.177D-06      -323.61686089    820.216389   -1.66472    0.07355    0.00221    7
   11      0.352D-06      0.248D-07      -323.61686089    820.216387   -1.66472    0.07355    0.00221    7
   12      0.112D-06      0.634D-08      -323.61686089    820.216389   -1.66471    0.07355    0.00221    7
   13      0.201D-07      0.242D-08      -323.61686089    820.216389   -1.66471    0.07355    0.00221    7
   14      0.806D-08      0.104D-08      -323.61686089    820.216388   -1.66471    0.07355    0.00221    7
   15      0.445D-08      0.527D-09      -323.61686089    820.216388   -1.66471    0.07355    0.00221    8
   16      0.182D-08      0.263D-09      -323.61686089    820.216388   -1.66471    0.07355    0.00221    8
   17      0.185D-08      0.885D-10      -323.61686089    820.216388   -1.66471    0.07355    0.00221    8
   18      0.348D-09      0.267D-10      -323.61686089    820.216388   -1.66471    0.07355    0.00221    8
   19      0.141D-09      0.916D-11      -323.61686089    820.216388   -1.66471    0.07355    0.00221    9
   20      0.136D-09      0.205D-11      -323.61686089    820.216388   -1.66471    0.07355    0.00221    9
   21      0.153D-09      0.116D-11      -323.61686089    820.216388   -1.66471    0.07355    0.00221    9
   22      0.104D-09      0.847D-12      -323.61686089    820.216388   -1.66471    0.07355    0.00221    9
   23      0.844D-10      0.634D-12      -323.61686089    820.216388   -1.66471    0.07355    0.00221    9
   24      0.628D-10      0.468D-12      -323.61686089    820.216388   -1.66471    0.07355    0.00221    9
   25      0.346D-10      0.540D-12      -323.61686089    820.216388   -1.66471    0.07355    0.00221    9
   26      0.271D-10      0.512D-12      -323.61686089    820.216388   -1.66471    0.07355    0.00221    9
   27      0.200D-10      0.470D-12      -323.61686089    820.216388   -1.66471    0.07355    0.00221    9
   28      0.277D-10      0.497D-12      -323.61686089    820.216388   -1.66471    0.07355    0.00221    9
   29      0.172D-10      0.485D-12      -323.61686089    820.216388   -1.66471    0.07355    0.00221    9
   30      0.146D-10      0.540D-12      -323.61686089    820.216388   -1.66471    0.07355    0.00221    9
   31      0.252D-10      0.462D-12      -323.61686089    820.216388   -1.66471    0.07355    0.00221    0

 Final occupancy:  28

 !RHF STATE 1.1 Energy               -323.616860887480
 Nuclear energy                       303.39502359
 One-electron energy                -1037.12007866
 Two-electron energy                  410.10819418
 Virial quotient                       -1.00170958
 !RHF STATE 1.1 Dipole moment          -1.66471339     0.07354888     0.00220797
 Dipole moment /Debye                  -4.23100226     0.18693035     0.00561173

 Orbital energies:

         1.1          2.1          3.1          4.1          5.1          6.1          7.1          8.1          9.1         10.1
    -15.591648   -11.283864   -11.266567   -11.265812   -11.265501   -11.264716   -11.264400   -11.263598    -1.218335    -1.173925

        11.1         12.1         13.1         14.1         15.1         16.1         17.1         18.1         19.1         20.1
     -1.037788    -1.037781    -0.845722    -0.845717    -0.789909    -0.729362    -0.664877    -0.639191    -0.608561    -0.608559

        21.1         22.1         23.1         24.1         25.1         26.1         27.1         28.1         29.1         30.1
     -0.565228    -0.520378    -0.514852    -0.514851    -0.475690    -0.475685    -0.359667    -0.359660     0.055869     0.060083


 **********************************************************************************************************************************
 DATASETS  * FILE   NREC   LENGTH (MB)   RECORD NAMES
              1      19     2151.20       500      610      700      900      950      970     1000      129      960     1100   
                                          VAR    BASINP    GEOM    SYMINP    ZMAT    AOBASIS   BASIS     P2S    ABASIS      S 
                                         1400     1410     1200     1210     1080     1600     1650     1300     1700   
                                           T        V       H0       H01     AOSYM     SMH    MOLCAS    ERIS     OPER   

              2       3        1.49       700     1000     2100   
                                         GEOM     BASIS     RHF  

 PROGRAMS   *        TOTAL       RHF       INT
 CPU TIMES  *        91.84     72.39     19.39
 REAL TIME  *       106.71 SEC
 DISK USED  *         7.98 GB      
 GA USED    *         0.01 MB       (max)       0.00 MB       (current)
 **********************************************************************************************************************************


1PROGRAM * CCSD (Closed-shell coupled cluster)     Authors: C. Hampel, H.-J. Werner, 1991, M. Deegan, P.J. Knowles, 1992


 Convergence thresholds:  THRVAR = 1.00D-08  THRDEN = 1.00D-12

 CCSD(T)     terms to be evaluated (factor= 1.000)


 Number of core orbitals:           8 (   8 )
 Number of closed-shell orbitals:  20 (  20 )
 Number of external orbitals:     191 ( 191 )

 Molecular orbitals read from record     2100.2  Type=RHF/CANONICAL (state 1.1)

 Number of N-1 electron functions:              20
 Number of N-2 electron functions:             210
 Number of singly external CSFs:              3820
 Number of doubly external CSFs:           7298110
 Total number of CSFs:                     7301931

 Length of J-op  integral file:               0.00 MB
 Length of K-op  integral file:               3.32 MB
 Length of 3-ext integral record:             0.00 MB

 Memory could be reduced to 174.82 Mwords without degradation in triples

 Integral transformation finished. Total CPU:  23.06 sec, npass=  1  Memory used: 128.13 MW

 Reference energy:                   -323.61686089

 MP2 singlet pair energy:              -0.67334401
 MP2 triplet pair energy:              -0.43519901
 MP2 correlation energy:               -1.10854302
 MP2 total energy:                   -324.72540391

 SCS-MP2 correlation energy:           -1.07880331   (PS=  1.200000  PT=  0.333333)
 SCS-MP2 total energy:               -324.69566420

 ITER.      SQ.NORM     CORR.ENERGY   TOTAL ENERGY   ENERGY CHANGE        DEN1      VAR(S)    VAR(P)  DIIS     TIME
   1      1.42873399    -1.14462462  -324.76148551    -0.03608160    -0.00288909  0.51D-02  0.99D-02  1  1    96.14
   2      1.46305653    -1.15049806  -324.76735895    -0.00587344    -0.03103155  0.83D-04  0.13D-02  2  2   169.64
   3      1.47634842    -1.15094576  -324.76780665    -0.00044770    -0.00655956  0.40D-04  0.12D-03  3  3   243.20
   4      1.48204073    -1.15119546  -324.76805635    -0.00024969    -0.00178587  0.22D-05  0.15D-04  4  4   316.74
   5      1.48357013    -1.15123116  -324.76809205    -0.00003570    -0.00036588  0.25D-06  0.14D-05  5  5   390.38
   6      1.48387632    -1.15122264  -324.76808353     0.00000852    -0.00005025  0.24D-07  0.91D-07  6  6   464.00
   7      1.48391111    -1.15122605  -324.76808694    -0.00000341    -0.00000225  0.34D-08  0.80D-08  6  2   537.61
   8      1.48391579    -1.15122641  -324.76808730    -0.00000036    -0.00000042  0.41D-09  0.83D-09  6  1   611.19
   9      1.48391601    -1.15122658  -324.76808746    -0.00000017     0.00000079  0.63D-10  0.78D-10  6  3   684.86
  10      1.48391638    -1.15122664  -324.76808752    -0.00000006     0.00000002  0.10D-10  0.99D-11  6  4   758.46
  11      1.48391611    -1.15122667  -324.76808756    -0.00000004     0.00000022  0.17D-11  0.14D-11  6  5   832.07
  12      1.48391595    -1.15122668  -324.76808757    -0.00000001     0.00000008  0.25D-12  0.27D-12  6  6   905.69
  13      1.48391581    -1.15122669  -324.76808758    -0.00000000     0.00000005  0.14D-13  0.52D-13  6  2   979.30
  14      1.48391575    -1.15122669  -324.76808758    -0.00000000     0.00000002  0.22D-14  0.94D-14  6  1  1052.91
  15      1.48391572    -1.15122669  -324.76808758     0.00000000     0.00000001  0.46D-15  0.13D-14  6  3  1126.51
  16      1.48391571    -1.15122669  -324.76808758    -0.00000000     0.00000000  0.99D-16  0.19D-15  6  4  1200.09
  17      1.48391571    -1.15122669  -324.76808758    -0.00000000     0.00000000  0.19D-16  0.28D-16  6  5  1273.72
  18      1.48391571    -1.15122669  -324.76808758    -0.00000000     0.00000000  0.37D-17  0.36D-17  6  6  1347.31
  19      1.48391571    -1.15122669  -324.76808758    -0.00000000     0.00000000  0.83D-18  0.61D-18  6  2  1420.96
  20      1.48391571    -1.15122669  -324.76808758    -0.00000000     0.00000000  0.18D-18  0.13D-18  6  1  1494.52
  21      1.48391571    -1.15122669  -324.76808758    -0.00000000     0.00000000  0.62D-19  0.36D-19  6  3  1568.10
  22      1.48391571    -1.15122669  -324.76808758     0.00000000     0.00000000  0.29D-19  0.17D-19  6  4  1641.70

 Norm of t1 vector:      0.09773703      S-energy:     0.00000000      T1 diagnostic:  0.01092733
                                                                       D1 diagnostic:  0.02771760


 Total CPU time for triples:   1504.82 sec


 RESULTS
 =======

  Reference energy                   -323.616860887480
  CCSD singlet pair energy             -0.770020924688
  CCSD triplet pair energy             -0.381205763722
  CCSD correlation energy              -1.151226688410

  Triples (T) contribution             -0.054015959368
  Total correlation energy             -1.205242647778

  CCSD total energy                  -324.768087575890
  CCSD[T] energy                     -324.823435864532
  CCSD-T energy                      -324.821498049565
 !CCSD(T) total energy               -324.822103535258

 Timing summary (sec):

 STEP                 CPU(USER)    SYS     CPU(TOT)    WALL
 Transformation         23.91      1.17     25.08     25.07
 CCSD iterations      1617.82     14.78   1632.60   1632.76
 Triples              1504.82     15.58   1520.40   1520.47

 Program statistics:

 Available memory in ccsd:               999998300
 Min. memory needed in ccsd:              17709720
 Max. memory used in ccsd:                24415330
 Max. memory used in cckext:              20754978 (22 integral passes)



 **********************************************************************************************************************************
 DATASETS  * FILE   NREC   LENGTH (MB)   RECORD NAMES
              1      20     2833.37       500      610      700      900      950      970     1000      129      960     1100   
                                          VAR    BASINP    GEOM    SYMINP    ZMAT    AOBASIS   BASIS     P2S    ABASIS      S 
                                         1400     1410     1200     1210     1080     1600     1650     1300     1700     1380   
                                           T        V       H0       H01     AOSYM     SMH    MOLCAS    ERIS     OPER     JKOP   

              2       3        1.49       700     1000     2100   
                                         GEOM     BASIS     RHF  

 PROGRAMS   *        TOTAL   CCSD(T)       RHF       INT
 CPU TIMES  *      3238.41   3146.57     72.39     19.39
 REAL TIME  *      3285.15 SEC
 DISK USED  *         7.98 GB      
 GA USED    *         0.01 MB       (max)       0.00 MB       (current)
 **********************************************************************************************************************************

        CCSD(T)         RHF-SCF 
   -324.82210354   -323.61686089
 **********************************************************************************************************************************
 Variable memory released
