
 Primary working directories    : /tmp/985636.288.gen6.q
 Secondary working directories  : /tmp/985636.288.gen6.q
 Wavefunction directory         : /home/vulcan/jj04645/wfu/
 Main file repository           : /tmp/985636.288.gen6.q/

 ARCHNAME  : Linux/x86_64
 FC        : /opt/intel/compilers_and_libraries_2016.1.150/linux/bin/intel64/ifort
 FCVERSION : 16.0.1
 BLASLIB   : -mkl
 id        : ccgc

 Nodes     nprocs
 n091         1
 ga_uses_ma=false, calling ma_init with nominal heap.
 GA-space will be limited to   8.0 MW (determined by -G option)

 Using customized tuning parameters: mindgm=10; mindgv=16; mindgc=4; mindgr=1; noblas=0; mincuda=1000; minvec=7
 default implementation of scratch files=df  

 ***,Optimization of tetrahydrothiopyran
 memory,1000,m
 gthresh,energy=1.0d-12,orbital=1.0d-10,oneint=1.0d-16,twoint=1.0d-16,optgrad=1.0d-6,compress=1.0d-13
 geomtyp=xyz
 
 bohr
 geometry = {
  S    0.3496613385    2.6979203026    0.0028891563
  C   -0.3315390679   -3.3671250175    0.0018700978
  C   -0.6655124217    0.6714486075   -2.5817470859
  C   -0.6613650376    0.6671899729    2.5791496707
  C    0.4738421053   -1.9827741643   -2.4165339098
  C    0.4697075988   -1.9796795448    2.4138737219
  H   -2.7315513544    0.5689368936   -2.5791590684
  H   -2.7274994157    0.5665920540    2.5781445110
  H   -0.0707789954    1.6289923870   -4.3088944296
  H   -0.0656068317    1.6216414397    4.3076549337
  H    2.5358301378   -1.8363082200   -2.4820839982
  H    2.5317913187   -1.8353452518    2.4811201099
  H   -0.1251734124   -3.0757734818   -4.0684773572
  H   -0.1306181915   -3.0705235861    4.0667658766
  H    0.4641010911   -5.2738214280    0.0044881649
  H   -2.3940238785   -3.5811923796    0.0009396063
 }
 
 basis=VDZ
 {rhf;maxit,200}
 {ccsd(t);maxit,200}

 Variables initialized (661), CPU time= 0.00 sec
 Commands  initialized (458), CPU time= 0.01 sec, 486 directives.
 Default parameters read. Elapsed time= 0.04 sec

 Checking input...
 Passed
1


                                         ***  PROGRAM SYSTEM MOLPRO  ***
                         Copyright, University College Cardiff Consultants Limited, 2008

                                    Version 2010.1 linked May 16 2016 07:17:05


 **********************************************************************************************************************************
 LABEL *   Optimization of tetrahydrothiopyran                                           
 Linux-4.4.3/n091(x86_64) 64 bit mpp version                                             DATE: 26-Jan-24          TIME: 12:00:29  
 **********************************************************************************************************************************

 SHA1:             9e8077add272b0f3cad6f7df79ec5211205f459d
 **********************************************************************************************************************************

 THRESHOLDS:

 ZERO    =  1.00D-12  ONEINT  =  1.00D-16  TWOINT  =  1.00D-16  PREFAC  =  1.00D-14  LOCALI  =  1.00D-09  EORDER  =  1.00D-04
 ENERGY  =  1.00D-12  ETEST   =  0.00D+00  EDENS   =  0.00D+00  THRDEDEF=  1.00D-06  GRADIENT=  1.00D-02  STEP    =  1.00D-03
 ORBITAL =  1.00D-10  CIVEC   =  1.00D-05  COEFF   =  1.00D-04  PRINTCI =  5.00D-02  PUNCHCI =  9.90D+01  OPTGRAD =  1.00D-06
 OPTENERG=  1.00D-06  OPTSTEP =  3.00D-04  THRGRAD =  1.00D-10  COMPRESS=  1.00D-13  VARMIN  =  1.00D-07  VARMAX  =  1.00D-03
 THRDOUB =  0.00D+00  THRDIV  =  1.00D-05  THRRED  =  1.00D-07  THRPSP  =  1.00D+00  THRDC   =  1.00D-10  THRCS   =  1.00D-10
 THRNRM  =  1.00D-08  THREQ   =  0.00D+00  THRDE   =  1.00D+00  THRREF  =  1.00D-05  SPARFAC =  1.00D+00  THRDLP  =  1.00D-07
 THRDIA  =  1.00D-10  THRDLS  =  1.00D-07  THRGPS  =  0.00D+00  THRKEX  =  0.00D+00  THRDIS  =  2.00D-01  THRVAR  =  1.00D-10
 THRLOC  =  1.00D-06  THRGAP  =  1.00D-06  THRLOCT = -1.00D+00  THRGAPT = -1.00D+00  THRORB  =  1.00D-06  THRMLTP =  0.00D+00
 THRCPQCI=  1.00D-10  KEXTA   =  0.00D+00  THRCOARS=  0.00D+00  SYMTOL  =  1.00D-06  GRADTOL =  1.00D-06  THROVL  =  1.00D-08
 THRORTH =  1.00D-08  GRID    =  1.00D-06  GRIDMAX =  1.00D-03  DTMAX   =  0.00D+00

 SETTING GEOMTYP        =    XYZ
 ZUNIT=BOHR
 

 Variable memory set to 1000000000 words,  buffer space   230000 words

 SETTING BASIS          =    VDZ


 Recomputing integrals since basis changed


 Using spherical harmonics

 Library entry S      S cc-pVDZ              selected for orbital group  1
 Library entry S      P cc-pVDZ              selected for orbital group  1
 Library entry S      D cc-pVDZ              selected for orbital group  1
 Library entry C      S cc-pVDZ              selected for orbital group  2
 Library entry C      P cc-pVDZ              selected for orbital group  2
 Library entry C      D cc-pVDZ              selected for orbital group  2
 Library entry H      S cc-pVDZ              selected for orbital group  3
 Library entry H      P cc-pVDZ              selected for orbital group  3

1PROGRAM * SEWARD (Integral evaluation for generally contracted gaussian basis sets)     Author: Roland Lindh, 1990

 Geometry written to block  1 of record 700


 Point group  C1  



 ATOMIC COORDINATES

 NR  ATOM    CHARGE       X              Y              Z

   1  S      16.00    0.349661338    2.697920303    0.002889156
   2  C       6.00   -0.331539068   -3.367125017    0.001870098
   3  C       6.00   -0.665512422    0.671448608   -2.581747086
   4  C       6.00   -0.661365038    0.667189973    2.579149671
   5  C       6.00    0.473842105   -1.982774164   -2.416533910
   6  C       6.00    0.469707599   -1.979679545    2.413873722
   7  H       1.00   -2.731551354    0.568936894   -2.579159068
   8  H       1.00   -2.727499416    0.566592054    2.578144511
   9  H       1.00   -0.070778995    1.628992387   -4.308894430
  10  H       1.00   -0.065606832    1.621641440    4.307654934
  11  H       1.00    2.535830138   -1.836308220   -2.482083998
  12  H       1.00    2.531791319   -1.835345252    2.481120110
  13  H       1.00   -0.125173412   -3.075773482   -4.068477357
  14  H       1.00   -0.130618192   -3.070523586    4.066765877
  15  H       1.00    0.464101091   -5.273821428    0.004488165
  16  H       1.00   -2.394023879   -3.581192380    0.000939606

 Bond lengths in Bohr (Angstrom)

  1- 3  3.437660512   1- 4  3.432660520   2- 5  2.900645456   2- 6  2.895645462   2-15  2.066044849
       ( 1.819131595)       ( 1.816485713)       ( 1.534955467)       ( 1.532309584)       ( 1.093303847)

  2-16  2.073564394   3- 5  2.893150991   3- 7  2.068582176   3- 9  2.062434456   4- 6  2.883151001
       ( 1.097283019)       ( 1.530989566)       ( 1.094646543)       ( 1.091393309)       ( 1.525697800)

  4- 8  2.068582176   4-10  2.062434456   5-11  2.068222361   5-13  2.069392242   6-12  2.068222361
       ( 1.094646543)       ( 1.091393309)       ( 1.094456136)       ( 1.095075211)       ( 1.094456136)

  6-14  2.069392242
       ( 1.095075211)

 Bond angles

  1-3-5  112.43145768   1-3-7  108.85770249   1-3-9  105.71100535   1-4-6  112.61515036

  1- 4- 8  108.81951207   1- 4-10  105.67281493   2- 5- 3  112.09290459   2- 5-11  109.69673487

  2- 5-13  109.45784265   2- 6- 4  112.27659058   2- 6-12  109.65816982   2- 6-14  109.41927760

  3- 1- 4   97.38669160   3- 5-11  109.01678042   3- 5-13  108.96409700   4- 6-12  108.97821539

  4- 6-14  108.92553197   5- 2- 6  112.89135952   5- 2-15  109.54682181   5- 2-16  108.96971545

  5- 3- 7  110.35228627   5- 3- 9  111.11227387   6- 2-15  109.54682181   6- 2-16  108.96971545

  6- 4- 8  110.31409590   6- 4-10  111.07408347   7- 3- 9  108.18377931   8- 4-10  108.14558887

 11- 5-13  107.49937086  12- 6-14  107.46080589  15- 2-16  106.72460593

 NUCLEAR CHARGE:                   56
 NUMBER OF PRIMITIVE AOS:         247
 NUMBER OF SYMMETRY AOS:          241
 NUMBER OF CONTRACTIONS:          138   ( 138A   )
 NUMBER OF CORE ORBITALS:          10   (  10A   )
 NUMBER OF VALENCE ORBITALS:       34   (  34A   )


 NUCLEAR REPULSION ENERGY  312.16549286


 Eigenvalues of metric

         1 0.286E-02 0.306E-02 0.426E-02 0.634E-02 0.705E-02 0.151E-01 0.157E-01 0.196E-01


 Contracted 2-electron integrals neglected if value below      1.0D-16
 AO integral compression algorithm  1   Integral accuracy      1.0D-16

     374.079 MB (compressed) written to integral file ( 94.2%)

     Node minimum: 374.079 MB, node maximum: 374.079 MB


 NUMBER OF SORTED TWO-ELECTRON INTEGRALS:   45998436.     BUFFER LENGTH:  32768
 NUMBER OF SEGMENTS:   3  SEGMENT LENGTH:   15998004      RECORD LENGTH: 524288

 Memory used in sort:      16.56 MW

 SORT1 READ    49670214. AND WROTE    45797848. INTEGRALS IN    132 RECORDS. CPU TIME:     0.42 SEC, REAL TIME:     0.70 SEC
 SORT2 READ    45797848. AND WROTE    45998436. INTEGRALS IN   1427 RECORDS. CPU TIME:     0.33 SEC, REAL TIME:     0.50 SEC

 FILE SIZES:   FILE 1:   349.6 MBYTE,  FILE 4:   553.7 MBYTE,   TOTAL:    903.3 MBYTE

 OPERATOR DM      FOR CENTER  0  COORDINATES:    0.000000    0.000000    0.000000


 **********************************************************************************************************************************
 DATASETS  * FILE   NREC   LENGTH (MB)   RECORD NAMES
              1      19      349.81       500      610      700      900      950      970     1000      129      960     1100   
                                          VAR    BASINP    GEOM    SYMINP    ZMAT    AOBASIS   BASIS     P2S    ABASIS      S 
                                         1400     1410     1200     1210     1080     1600     1650     1300     1700   
                                           T        V       H0       H01     AOSYM     SMH    MOLCAS    ERIS     OPER   

 PROGRAMS   *        TOTAL       INT
 CPU TIMES  *         4.26      4.22
 REAL TIME  *         5.06 SEC
 DISK USED  *         1.28 GB      
 GA USED    *         0.01 MB       (max)       0.00 MB       (current)
 **********************************************************************************************************************************

1PROGRAM * RHF-SCF (CLOSED SHELL)       Authors: W. Meyer, H.-J. Werner


 NUMBER OF ELECTRONS:      28+   28-    SPACE SYMMETRY=1    SPIN SYMMETRY: Singlet 
 CONVERGENCE THRESHOLDS:    1.00E-10 (Density)    1.00E-13 (Energy)
 MAX. NUMBER OF ITERATIONS:      200
 INTERPOLATION TYPE:            DIIS
 INTERPOLATION STEPS:              2 (START)      1 (STEP)
 LEVEL SHIFTS:                  0.00 (CLOSED)  0.00 (OPEN) 



 Orbital guess generated from atomic densities. Full valence occupancy:   44

 Molecular orbital dump at record        2100.2

 ITERATION    DDIFF          GRAD             ENERGY        2-EL.EN.            DIPOLE MOMENTS         DIIS
    1      0.000D+00      0.000D+00      -592.64388111   1056.896839   -0.40601   -0.80440   -0.00004    0
    2      0.000D+00      0.396D-02      -592.70488218   1054.319446   -0.20642   -0.73868    0.00133    1
    3      0.777D-02      0.132D-02      -592.71080887   1055.750153   -0.27890   -0.67638   -0.00092    2
    4      0.268D-02      0.539D-03      -592.71181444   1055.132798   -0.25164   -0.70941   -0.00011    3
    5      0.929D-03      0.773D-04      -592.71184015   1055.195547   -0.24774   -0.70093   -0.00032    4
    6      0.180D-03      0.266D-04      -592.71184267   1055.164743   -0.24947   -0.70121   -0.00028    5
    7      0.503D-04      0.619D-05      -592.71184287   1055.167913   -0.24880   -0.70109   -0.00029    6
    8      0.164D-04      0.174D-05      -592.71184289   1055.167045   -0.24879   -0.70096   -0.00029    7
    9      0.539D-05      0.452D-06      -592.71184289   1055.166930   -0.24877   -0.70091   -0.00029    7
   10      0.127D-05      0.162D-06      -592.71184289   1055.166968   -0.24876   -0.70091   -0.00029    7
   11      0.478D-06      0.344D-07      -592.71184289   1055.166953   -0.24876   -0.70091   -0.00029    7
   12      0.114D-06      0.691D-08      -592.71184289   1055.166959   -0.24876   -0.70091   -0.00029    7
   13      0.183D-07      0.290D-08      -592.71184289   1055.166956   -0.24876   -0.70091   -0.00029    7
   14      0.636D-08      0.853D-09      -592.71184289   1055.166957   -0.24876   -0.70091   -0.00029    7
   15      0.229D-08      0.283D-09      -592.71184289   1055.166957   -0.24876   -0.70091   -0.00029    7
   16      0.681D-09      0.931D-10      -592.71184289   1055.166957   -0.24876   -0.70091   -0.00029    8
   17      0.229D-09      0.257D-10      -592.71184289   1055.166957   -0.24876   -0.70091   -0.00029    7
   18      0.716D-10      0.105D-10      -592.71184289   1055.166957   -0.24876   -0.70091   -0.00029    7
   19      0.358D-10      0.380D-11      -592.71184289   1055.166957   -0.24876   -0.70091   -0.00029    8
   20      0.129D-10      0.126D-11      -592.71184289   1055.166957   -0.24876   -0.70091   -0.00029    8
   21      0.456D-11      0.394D-12      -592.71184289   1055.166957   -0.24876   -0.70091   -0.00029    8
   22      0.123D-11      0.131D-12      -592.71184289   1055.166957   -0.24876   -0.70091   -0.00029    8
   23      0.481D-12      0.597D-13      -592.71184289   1055.166957   -0.24876   -0.70091   -0.00029    8
   24      0.241D-12      0.480D-13      -592.71184289   1055.166957   -0.24876   -0.70091   -0.00029    9
   25      0.148D-12      0.335D-13      -592.71184289   1055.166957   -0.24876   -0.70091   -0.00029    9
   26      0.105D-12      0.315D-13      -592.71184289   1055.166957   -0.24876   -0.70091   -0.00029    9
   27      0.768D-13      0.332D-13      -592.71184289   1055.166957   -0.24876   -0.70091   -0.00029    9
   28      0.579D-13      0.368D-13      -592.71184289   1055.166957   -0.24876   -0.70091   -0.00029    9
   29      0.458D-13      0.271D-13      -592.71184289   1055.166957   -0.24876   -0.70091   -0.00029    9
   30      0.349D-13      0.235D-13      -592.71184289   1055.166957   -0.24876   -0.70091   -0.00029    0

 Final occupancy:  28

 !RHF STATE 1.1 Energy               -592.711842894783
 Nuclear energy                       312.16549286
 One-electron energy                -1432.46081409
 Two-electron energy                  527.58347834
 Virial quotient                       -1.00019502
 !RHF STATE 1.1 Dipole moment          -0.24876261    -0.70090862    -0.00029215
 Dipole moment /Debye                  -0.63225007    -1.78141532    -0.00074251

 Orbital energies:

         1.1          2.1          3.1          4.1          5.1          6.1          7.1          8.1          9.1         10.1
    -91.929570   -11.255195   -11.254618   -11.231370   -11.230754   -11.229303    -8.933527    -6.615427    -6.613988    -6.611787

        11.1         12.1         13.1         14.1         15.1         16.1         17.1         18.1         19.1         20.1
     -1.119565    -1.019997    -1.006520    -0.842294    -0.835834    -0.755491    -0.646660    -0.614755    -0.609576    -0.578878

        21.1         22.1         23.1         24.1         25.1         26.1         27.1         28.1         29.1         30.1
     -0.546953    -0.523643    -0.497791    -0.495421    -0.473163    -0.434525    -0.411757    -0.328567     0.176953     0.190492


 **********************************************************************************************************************************
 DATASETS  * FILE   NREC   LENGTH (MB)   RECORD NAMES
              1      19      349.81       500      610      700      900      950      970     1000      129      960     1100   
                                          VAR    BASINP    GEOM    SYMINP    ZMAT    AOBASIS   BASIS     P2S    ABASIS      S 
                                         1400     1410     1200     1210     1080     1600     1650     1300     1700   
                                           T        V       H0       H01     AOSYM     SMH    MOLCAS    ERIS     OPER   

              2       3        0.92       700     1000     2100   
                                         GEOM     BASIS     RHF  

 PROGRAMS   *        TOTAL       RHF       INT
 CPU TIMES  *        12.43      8.17      4.22
 REAL TIME  *        14.30 SEC
 DISK USED  *         1.28 GB      
 GA USED    *         0.01 MB       (max)       0.00 MB       (current)
 **********************************************************************************************************************************


1PROGRAM * CCSD (Closed-shell coupled cluster)     Authors: C. Hampel, H.-J. Werner, 1991, M. Deegan, P.J. Knowles, 1992


 Convergence thresholds:  THRVAR = 1.00D-08  THRDEN = 1.00D-12

 CCSD(T)     terms to be evaluated (factor= 1.000)


 Number of core orbitals:          10 (  10 )
 Number of closed-shell orbitals:  18 (  18 )
 Number of external orbitals:     110 ( 110 )

 Molecular orbitals read from record     2100.2  Type=RHF/CANONICAL (state 1.1)

 Number of N-1 electron functions:              18
 Number of N-2 electron functions:             171
 Number of singly external CSFs:              1980
 Number of doubly external CSFs:           1961190
 Total number of CSFs:                     1963171

 Length of J-op  integral file:               0.00 MB
 Length of K-op  integral file:               1.35 MB
 Length of 3-ext integral record:             0.00 MB

 Memory could be reduced to 32.58 Mwords without degradation in triples

 Integral transformation finished. Total CPU:   2.01 sec, npass=  1  Memory used:  30.89 MW

 Reference energy:                   -592.71184289

 MP2 singlet pair energy:              -0.53946507
 MP2 triplet pair energy:              -0.30437325
 MP2 correlation energy:               -0.84383832
 MP2 total energy:                   -593.55568122

 SCS-MP2 correlation energy:           -0.83674589   (PS=  1.200000  PT=  0.333333)
 SCS-MP2 total energy:               -593.54858878

 ITER.      SQ.NORM     CORR.ENERGY   TOTAL ENERGY   ENERGY CHANGE        DEN1      VAR(S)    VAR(P)  DIIS     TIME
   1      1.33970079    -0.91081120  -593.62265409    -0.06697287    -0.04301686  0.26D-02  0.55D-02  1  1     8.97
   2      1.36669163    -0.91615881  -593.62800171    -0.00534762    -0.02577549  0.69D-04  0.46D-03  2  2    15.99
   3      1.37202221    -0.91628637  -593.62812927    -0.00012756    -0.00303701  0.16D-04  0.28D-04  3  3    23.04
   4      1.37351390    -0.91634446  -593.62818736    -0.00005809    -0.00059361  0.76D-06  0.20D-05  4  4    30.07
   5      1.37375420    -0.91635108  -593.62819398    -0.00000662    -0.00007079  0.17D-06  0.16D-06  5  5    37.10
   6      1.37379974    -0.91634664  -593.62818953     0.00000445    -0.00001392  0.30D-07  0.14D-07  6  6    44.16
   7      1.37380729    -0.91634653  -593.62818942     0.00000011     0.00000064  0.53D-08  0.23D-08  6  2    51.19
   8      1.37381336    -0.91634622  -593.62818911     0.00000031    -0.00000124  0.73D-09  0.26D-09  6  1    58.23
   9      1.37381419    -0.91634615  -593.62818905     0.00000006     0.00000050  0.66D-10  0.44D-10  6  4    65.27
  10      1.37381507    -0.91634612  -593.62818901     0.00000003    -0.00000011  0.48D-11  0.35D-11  6  3    72.31
  11      1.37381509    -0.91634612  -593.62818901    -0.00000000     0.00000004  0.12D-11  0.54D-12  6  5    79.36
  12      1.37381505    -0.91634612  -593.62818902    -0.00000000     0.00000002  0.17D-12  0.77D-13  6  6    86.41
  13      1.37381500    -0.91634612  -593.62818902    -0.00000000     0.00000002  0.24D-13  0.11D-13  6  1    93.46
  14      1.37381499    -0.91634612  -593.62818902    -0.00000000     0.00000000  0.31D-14  0.12D-14  6  2   100.53
  15      1.37381499    -0.91634612  -593.62818902     0.00000000    -0.00000000  0.67D-15  0.30D-15  6  4   107.58
  16      1.37381499    -0.91634612  -593.62818902     0.00000000    -0.00000000  0.33D-16  0.23D-16  6  5   114.62
  17      1.37381499    -0.91634612  -593.62818902     0.00000000    -0.00000000  0.61D-17  0.24D-17  6  3   121.65
  18      1.37381499    -0.91634612  -593.62818902     0.00000000    -0.00000000  0.15D-17  0.43D-18  6  5   128.69
  19      1.37381499    -0.91634612  -593.62818902     0.00000000    -0.00000000  0.22D-18  0.69D-19  6  6   135.74
  20      1.37381499    -0.91634612  -593.62818902    -0.00000000     0.00000000  0.21D-19  0.76D-20  6  1   142.78
  21      1.37381499    -0.91634612  -593.62818902    -0.00000000     0.00000000  0.44D-20  0.13D-20  6  2   149.83

 Norm of t1 vector:      0.07012849      S-energy:    -0.00000000      T1 diagnostic:  0.00826472
                                                                       D1 diagnostic:  0.02104831


 Total CPU time for triples:    100.52 sec


 RESULTS
 =======

  Reference energy                   -592.711842894782
  CCSD singlet pair energy             -0.634218549904
  CCSD triplet pair energy             -0.282127574169
  CCSD correlation energy              -0.916346124074

  Triples (T) contribution             -0.029867900721
  Total correlation energy             -0.946214024795

  CCSD total energy                  -593.628189018855
  CCSD[T] energy                     -593.658676036831
  CCSD-T energy                      -593.657745698666
 !CCSD(T) total energy               -593.658056919577

 Timing summary (sec):

 STEP                 CPU(USER)    SYS     CPU(TOT)    WALL
 Transformation          2.11      0.22      2.33      2.33
 CCSD iterations       147.73      2.71    150.44    150.51
 Triples               100.52      2.03    102.55    102.57

 Program statistics:

 Available memory in ccsd:               999998604
 Min. memory needed in ccsd:               5123362
 Max. memory used in ccsd:                 6867976
 Max. memory used in cckext:               6836871 (21 integral passes)



 **********************************************************************************************************************************
 DATASETS  * FILE   NREC   LENGTH (MB)   RECORD NAMES
              1      20      486.18       500      610      700      900      950      970     1000      129      960     1100   
                                          VAR    BASINP    GEOM    SYMINP    ZMAT    AOBASIS   BASIS     P2S    ABASIS      S 
                                         1400     1410     1200     1210     1080     1600     1650     1300     1700     1380   
                                           T        V       H0       H01     AOSYM     SMH    MOLCAS    ERIS     OPER     JKOP   

              2       3        0.92       700     1000     2100   
                                         GEOM     BASIS     RHF  

 PROGRAMS   *        TOTAL   CCSD(T)       RHF       INT
 CPU TIMES  *       262.79    250.36      8.17      4.22
 REAL TIME  *       269.76 SEC
 DISK USED  *         1.28 GB      
 GA USED    *         0.01 MB       (max)       0.00 MB       (current)
 **********************************************************************************************************************************

        CCSD(T)         RHF-SCF 
   -593.65805692   -592.71184289
 **********************************************************************************************************************************
 Variable memory released
