
 Primary working directories    : /tmp/985636.368.gen4.q
 Secondary working directories  : /tmp/985636.368.gen4.q
 Wavefunction directory         : /home/vulcan/jj04645/wfu/
 Main file repository           : /tmp/985636.368.gen4.q/

 ARCHNAME  : Linux/x86_64
 FC        : /opt/intel/compilers_and_libraries_2016.1.150/linux/bin/intel64/ifort
 FCVERSION : 16.0.1
 BLASLIB   : -mkl
 id        : ccgc

 Nodes     nprocs
 n049         1
 ga_uses_ma=false, calling ma_init with nominal heap.
 GA-space will be limited to   8.0 MW (determined by -G option)

 Using customized tuning parameters: mindgm=10; mindgv=16; mindgc=4; mindgr=1; noblas=0; mincuda=1000; minvec=7
 default implementation of scratch files=df  

 ***,Optimization of tetrahydrothiopyran
 memory,1000,m
 gthresh,energy=1.0d-12,orbital=1.0d-10,oneint=1.0d-16,twoint=1.0d-16,optgrad=1.0d-6,compress=1.0d-13
 geomtyp=xyz
 
 bohr
 geometry = {
  S    0.3481823846    2.6987296438    0.0047822582
  C   -0.3303949224   -3.3659253125   -0.0036269988
  C   -0.6662403561    0.6643452687   -2.5816176555
  C   -0.6649148949    0.6679126642    2.5829768046
  C    0.4700724751   -1.9824809896   -2.4147235736
  C    0.4711268659   -1.9789936820    2.4155082813
  H   -2.7326096042    0.5704685464   -2.5999891275
  H   -2.7313007738    0.5742095147    2.6003359678
  H   -0.0630194768    1.6195678281   -4.3071060841
  H   -0.0625011543    1.6221790389    4.3092761003
  H    2.5319782341   -1.8352006744   -2.4810325663
  H    2.5330096938   -1.8319333648    2.4830079096
  H   -0.1282999291   -3.0757276232   -4.0667364417
  H   -0.1281745972   -3.0727646889    4.0668371380
  H    0.4669887914   -5.2718950211   -0.0036636244
  H   -2.3926377526   -3.5823125652   -0.0042283879
 }
 
 basis=VDZ
 {rhf;maxit,200}
 {ccsd(t);maxit,200}

 Variables initialized (661), CPU time= 0.01 sec
 Commands  initialized (458), CPU time= 0.00 sec, 486 directives.
 Default parameters read. Elapsed time= 0.05 sec

 Checking input...
 Passed
1


                                         ***  PROGRAM SYSTEM MOLPRO  ***
                         Copyright, University College Cardiff Consultants Limited, 2008

                                    Version 2010.1 linked May 16 2016 07:17:05


 **********************************************************************************************************************************
 LABEL *   Optimization of tetrahydrothiopyran                                           
 Linux-4.4.3/n049(x86_64) 64 bit mpp version                                             DATE: 26-Jan-24          TIME: 12:31:15  
 **********************************************************************************************************************************

 SHA1:             9e8077add272b0f3cad6f7df79ec5211205f459d
 **********************************************************************************************************************************

 THRESHOLDS:

 ZERO    =  1.00D-12  ONEINT  =  1.00D-16  TWOINT  =  1.00D-16  PREFAC  =  1.00D-14  LOCALI  =  1.00D-09  EORDER  =  1.00D-04
 ENERGY  =  1.00D-12  ETEST   =  0.00D+00  EDENS   =  0.00D+00  THRDEDEF=  1.00D-06  GRADIENT=  1.00D-02  STEP    =  1.00D-03
 ORBITAL =  1.00D-10  CIVEC   =  1.00D-05  COEFF   =  1.00D-04  PRINTCI =  5.00D-02  PUNCHCI =  9.90D+01  OPTGRAD =  1.00D-06
 OPTENERG=  1.00D-06  OPTSTEP =  3.00D-04  THRGRAD =  1.00D-10  COMPRESS=  1.00D-13  VARMIN  =  1.00D-07  VARMAX  =  1.00D-03
 THRDOUB =  0.00D+00  THRDIV  =  1.00D-05  THRRED  =  1.00D-07  THRPSP  =  1.00D+00  THRDC   =  1.00D-10  THRCS   =  1.00D-10
 THRNRM  =  1.00D-08  THREQ   =  0.00D+00  THRDE   =  1.00D+00  THRREF  =  1.00D-05  SPARFAC =  1.00D+00  THRDLP  =  1.00D-07
 THRDIA  =  1.00D-10  THRDLS  =  1.00D-07  THRGPS  =  0.00D+00  THRKEX  =  0.00D+00  THRDIS  =  2.00D-01  THRVAR  =  1.00D-10
 THRLOC  =  1.00D-06  THRGAP  =  1.00D-06  THRLOCT = -1.00D+00  THRGAPT = -1.00D+00  THRORB  =  1.00D-06  THRMLTP =  0.00D+00
 THRCPQCI=  1.00D-10  KEXTA   =  0.00D+00  THRCOARS=  0.00D+00  SYMTOL  =  1.00D-06  GRADTOL =  1.00D-06  THROVL  =  1.00D-08
 THRORTH =  1.00D-08  GRID    =  1.00D-06  GRIDMAX =  1.00D-03  DTMAX   =  0.00D+00

 SETTING GEOMTYP        =    XYZ
 ZUNIT=BOHR
 

 Variable memory set to 1000000000 words,  buffer space   230000 words

 SETTING BASIS          =    VDZ


 Recomputing integrals since basis changed


 Using spherical harmonics

 Library entry S      S cc-pVDZ              selected for orbital group  1
 Library entry S      P cc-pVDZ              selected for orbital group  1
 Library entry S      D cc-pVDZ              selected for orbital group  1
 Library entry C      S cc-pVDZ              selected for orbital group  2
 Library entry C      P cc-pVDZ              selected for orbital group  2
 Library entry C      D cc-pVDZ              selected for orbital group  2
 Library entry H      S cc-pVDZ              selected for orbital group  3
 Library entry H      P cc-pVDZ              selected for orbital group  3

1PROGRAM * SEWARD (Integral evaluation for generally contracted gaussian basis sets)     Author: Roland Lindh, 1990

 Geometry written to block  1 of record 700


 Point group  C1  



 ATOMIC COORDINATES

 NR  ATOM    CHARGE       X              Y              Z

   1  S      16.00    0.348182385    2.698729644    0.004782258
   2  C       6.00   -0.330394922   -3.365925312   -0.003626999
   3  C       6.00   -0.666240356    0.664345269   -2.581617656
   4  C       6.00   -0.664914895    0.667912664    2.582976805
   5  C       6.00    0.470072475   -1.982480990   -2.414723574
   6  C       6.00    0.471126866   -1.978993682    2.415508281
   7  H       1.00   -2.732609604    0.570468546   -2.599989128
   8  H       1.00   -2.731300774    0.574209515    2.600335968
   9  H       1.00   -0.063019477    1.619567828   -4.307106084
  10  H       1.00   -0.062501154    1.622179039    4.309276100
  11  H       1.00    2.531978234   -1.835200674   -2.481032566
  12  H       1.00    2.533009694   -1.831933365    2.483007910
  13  H       1.00   -0.128299929   -3.075727623   -4.066736442
  14  H       1.00   -0.128174597   -3.072764689    4.066837138
  15  H       1.00    0.466988791   -5.271895021   -0.003663624
  16  H       1.00   -2.392637753   -3.582312565   -0.004228388

 Bond lengths in Bohr (Angstrom)

  1- 3  3.443434012   1- 4  3.434773766   2- 5  2.892758708   2- 6  2.901418968   2-15  2.066044849
       ( 1.822186800)       ( 1.817603995)       ( 1.530781979)       ( 1.535364792)       ( 1.093303847)

  2-16  2.073564394   3- 5  2.885264239   3- 7  2.068582176   3- 9  2.062434456   4- 6  2.885264250
       ( 1.097283019)       ( 1.526816077)       ( 1.094646543)       ( 1.091393309)       ( 1.526816083)

  4- 8  2.068582177   4-10  2.062434456   5-11  2.068222361   5-13  2.069392242   6-12  2.068222361
       ( 1.094646543)       ( 1.091393309)       ( 1.094456136)       ( 1.095075211)       ( 1.094456136)

  6-14  2.069392242
       ( 1.095075211)

 Bond angles

  1-3-5  112.48915555   1-3-7  109.13309588   1-3-9  105.58125640   1-4-6  112.50134097

  1- 4- 8  109.13054883   1- 4-10  105.57870934   2- 5- 3  112.20706533   2- 5-11  109.67277513

  2- 5-13  109.43388290   2- 6- 4  112.21924714   2- 6-12  109.67021681   2- 6-14  109.43132458

  3- 1- 4   97.33040244   3- 5-11  108.99282069   3- 5-13  108.94013727   4- 6-12  108.99026237

  4- 6-14  108.93757895   5- 2- 6  112.94799854   5- 2-15  109.53473653   5- 2-16  108.95763017

  5- 3- 7  110.62767968   5- 3- 9  110.98252493   6- 2-15  109.53473653   6- 2-16  108.95763017

  6- 4- 8  110.62513266   6- 4-10  110.97997788   7- 3- 9  107.80363861   8- 4-10  107.80109155

 11- 5-13  107.47541112  12- 6-14  107.47285284  15- 2-16  106.71252068

 NUCLEAR CHARGE:                   56
 NUMBER OF PRIMITIVE AOS:         247
 NUMBER OF SYMMETRY AOS:          241
 NUMBER OF CONTRACTIONS:          138   ( 138A   )
 NUMBER OF CORE ORBITALS:          10   (  10A   )
 NUMBER OF VALENCE ORBITALS:       34   (  34A   )


 NUCLEAR REPULSION ENERGY  312.10926186


 Eigenvalues of metric

         1 0.286E-02 0.305E-02 0.425E-02 0.634E-02 0.704E-02 0.151E-01 0.157E-01 0.196E-01


 Contracted 2-electron integrals neglected if value below      1.0D-16
 AO integral compression algorithm  1   Integral accuracy      1.0D-16

     374.079 MB (compressed) written to integral file ( 94.2%)

     Node minimum: 374.079 MB, node maximum: 374.079 MB


 NUMBER OF SORTED TWO-ELECTRON INTEGRALS:   45998436.     BUFFER LENGTH:  32768
 NUMBER OF SEGMENTS:   3  SEGMENT LENGTH:   15998004      RECORD LENGTH: 524288

 Memory used in sort:      16.56 MW

 SORT1 READ    49670376. AND WROTE    45798925. INTEGRALS IN    132 RECORDS. CPU TIME:     0.50 SEC, REAL TIME:     0.76 SEC
 SORT2 READ    45798925. AND WROTE    45998436. INTEGRALS IN   1427 RECORDS. CPU TIME:     0.35 SEC, REAL TIME:     0.53 SEC

 FILE SIZES:   FILE 1:   349.6 MBYTE,  FILE 4:   553.7 MBYTE,   TOTAL:    903.3 MBYTE

 OPERATOR DM      FOR CENTER  0  COORDINATES:    0.000000    0.000000    0.000000


 **********************************************************************************************************************************
 DATASETS  * FILE   NREC   LENGTH (MB)   RECORD NAMES
              1      19      349.82       500      610      700      900      950      970     1000      129      960     1100   
                                          VAR    BASINP    GEOM    SYMINP    ZMAT    AOBASIS   BASIS     P2S    ABASIS      S 
                                         1400     1410     1200     1210     1080     1600     1650     1300     1700   
                                           T        V       H0       H01     AOSYM     SMH    MOLCAS    ERIS     OPER   

 PROGRAMS   *        TOTAL       INT
 CPU TIMES  *         5.20      5.15
 REAL TIME  *         6.02 SEC
 DISK USED  *         1.28 GB      
 GA USED    *         0.01 MB       (max)       0.00 MB       (current)
 **********************************************************************************************************************************

1PROGRAM * RHF-SCF (CLOSED SHELL)       Authors: W. Meyer, H.-J. Werner


 NUMBER OF ELECTRONS:      28+   28-    SPACE SYMMETRY=1    SPIN SYMMETRY: Singlet 
 CONVERGENCE THRESHOLDS:    1.00E-10 (Density)    1.00E-13 (Energy)
 MAX. NUMBER OF ITERATIONS:      200
 INTERPOLATION TYPE:            DIIS
 INTERPOLATION STEPS:              2 (START)      1 (STEP)
 LEVEL SHIFTS:                  0.00 (CLOSED)  0.00 (OPEN) 



 Orbital guess generated from atomic densities. Full valence occupancy:   44

 Molecular orbital dump at record        2100.2

 ITERATION    DDIFF          GRAD             ENERGY        2-EL.EN.            DIPOLE MOMENTS         DIIS
    1      0.000D+00      0.000D+00      -592.64389767   1056.793764   -0.40359   -0.80398   -0.00136    0
    2      0.000D+00      0.396D-02      -592.70491748   1054.200318   -0.20593   -0.73877   -0.00110    1
    3      0.778D-02      0.132D-02      -592.71085243   1055.640654   -0.27784   -0.67636   -0.00115    2
    4      0.269D-02      0.540D-03      -592.71186154   1055.019513   -0.25095   -0.70941   -0.00125    3
    5      0.930D-03      0.776D-04      -592.71188737   1055.082976   -0.24701   -0.70093   -0.00122    4
    6      0.181D-03      0.268D-04      -592.71188992   1055.052091   -0.24876   -0.70121   -0.00124    5
    7      0.506D-04      0.620D-05      -592.71189013   1055.055174   -0.24809   -0.70109   -0.00124    6
    8      0.165D-04      0.174D-05      -592.71189015   1055.054321   -0.24807   -0.70096   -0.00125    7
    9      0.541D-05      0.455D-06      -592.71189015   1055.054199   -0.24806   -0.70091   -0.00125    7
   10      0.127D-05      0.162D-06      -592.71189015   1055.054238   -0.24805   -0.70091   -0.00125    7
   11      0.483D-06      0.344D-07      -592.71189015   1055.054224   -0.24805   -0.70091   -0.00125    7
   12      0.114D-06      0.697D-08      -592.71189015   1055.054229   -0.24805   -0.70091   -0.00125    7
   13      0.183D-07      0.291D-08      -592.71189015   1055.054226   -0.24805   -0.70091   -0.00125    7
   14      0.639D-08      0.855D-09      -592.71189015   1055.054227   -0.24805   -0.70091   -0.00125    7
   15      0.228D-08      0.280D-09      -592.71189015   1055.054227   -0.24805   -0.70091   -0.00125    7
   16      0.667D-09      0.854D-10      -592.71189015   1055.054227   -0.24805   -0.70091   -0.00125    8
   17      0.206D-09      0.187D-10      -592.71189015   1055.054227   -0.24805   -0.70091   -0.00125    7
   18      0.492D-10      0.574D-11      -592.71189015   1055.054227   -0.24805   -0.70091   -0.00125    7
   19      0.176D-10      0.201D-11      -592.71189015   1055.054227   -0.24805   -0.70091   -0.00125    8
   20      0.574D-11      0.680D-12      -592.71189015   1055.054227   -0.24805   -0.70091   -0.00125    7
   21      0.206D-11      0.265D-12      -592.71189015   1055.054227   -0.24805   -0.70091   -0.00125    8
   22      0.949D-12      0.105D-12      -592.71189015   1055.054227   -0.24805   -0.70091   -0.00125    8
   23      0.443D-12      0.547D-13      -592.71189015   1055.054227   -0.24805   -0.70091   -0.00125    8
   24      0.205D-12      0.482D-13      -592.71189015   1055.054227   -0.24805   -0.70091   -0.00125    9
   25      0.147D-12      0.412D-13      -592.71189015   1055.054227   -0.24805   -0.70091   -0.00125    9
   26      0.101D-12      0.373D-13      -592.71189015   1055.054227   -0.24805   -0.70091   -0.00125    9
   27      0.753D-13      0.410D-13      -592.71189015   1055.054227   -0.24805   -0.70091   -0.00125    9
   28      0.736D-13      0.361D-13      -592.71189015   1055.054227   -0.24805   -0.70091   -0.00125    9
   29      0.547D-13      0.303D-13      -592.71189015   1055.054227   -0.24805   -0.70091   -0.00125    9
   30      0.463D-13      0.343D-13      -592.71189015   1055.054227   -0.24805   -0.70091   -0.00125    9
   31      0.283D-13      0.245D-13      -592.71189015   1055.054227   -0.24805   -0.70091   -0.00125    0

 Final occupancy:  28

 !RHF STATE 1.1 Energy               -592.711890151425
 Nuclear energy                       312.10926186
 One-electron energy                -1432.34826555
 Two-electron energy                  527.52711354
 Virial quotient                       -1.00019513
 !RHF STATE 1.1 Dipole moment          -0.24804900    -0.70090986    -0.00124534
 Dipole moment /Debye                  -0.63043637    -1.78141848    -0.00316513

 Orbital energies:

         1.1          2.1          3.1          4.1          5.1          6.1          7.1          8.1          9.1         10.1
    -91.929846   -11.255037   -11.254725   -11.231066   -11.230839   -11.229122    -8.933706    -6.615600    -6.614162    -6.611965

        11.1         12.1         13.1         14.1         15.1         16.1         17.1         18.1         19.1         20.1
     -1.119513    -1.020356    -1.006102    -0.842214    -0.836064    -0.755516    -0.646505    -0.614780    -0.609676    -0.578553

        21.1         22.1         23.1         24.1         25.1         26.1         27.1         28.1         29.1         30.1
     -0.546886    -0.523665    -0.498129    -0.495232    -0.472969    -0.434081    -0.411803    -0.328907     0.176893     0.190130


 **********************************************************************************************************************************
 DATASETS  * FILE   NREC   LENGTH (MB)   RECORD NAMES
              1      19      349.82       500      610      700      900      950      970     1000      129      960     1100   
                                          VAR    BASINP    GEOM    SYMINP    ZMAT    AOBASIS   BASIS     P2S    ABASIS      S 
                                         1400     1410     1200     1210     1080     1600     1650     1300     1700   
                                           T        V       H0       H01     AOSYM     SMH    MOLCAS    ERIS     OPER   

              2       3        0.92       700     1000     2100   
                                         GEOM     BASIS     RHF  

 PROGRAMS   *        TOTAL       RHF       INT
 CPU TIMES  *        16.13     10.93      5.15
 REAL TIME  *        18.17 SEC
 DISK USED  *         1.28 GB      
 GA USED    *         0.01 MB       (max)       0.00 MB       (current)
 **********************************************************************************************************************************


1PROGRAM * CCSD (Closed-shell coupled cluster)     Authors: C. Hampel, H.-J. Werner, 1991, M. Deegan, P.J. Knowles, 1992


 Convergence thresholds:  THRVAR = 1.00D-08  THRDEN = 1.00D-12

 CCSD(T)     terms to be evaluated (factor= 1.000)


 Number of core orbitals:          10 (  10 )
 Number of closed-shell orbitals:  18 (  18 )
 Number of external orbitals:     110 ( 110 )

 Molecular orbitals read from record     2100.2  Type=RHF/CANONICAL (state 1.1)

 Number of N-1 electron functions:              18
 Number of N-2 electron functions:             171
 Number of singly external CSFs:              1980
 Number of doubly external CSFs:           1961190
 Total number of CSFs:                     1963171

 Length of J-op  integral file:               0.00 MB
 Length of K-op  integral file:               1.35 MB
 Length of 3-ext integral record:             0.00 MB

 Memory could be reduced to 32.58 Mwords without degradation in triples

 Integral transformation finished. Total CPU:   2.63 sec, npass=  1  Memory used:  30.89 MW

 Reference energy:                   -592.71189015

 MP2 singlet pair energy:              -0.53945784
 MP2 triplet pair energy:              -0.30435357
 MP2 correlation energy:               -0.84381141
 MP2 total energy:                   -593.55570156

 SCS-MP2 correlation energy:           -0.83672496   (PS=  1.200000  PT=  0.333333)
 SCS-MP2 total energy:               -593.54861511

 ITER.      SQ.NORM     CORR.ENERGY   TOTAL ENERGY   ENERGY CHANGE        DEN1      VAR(S)    VAR(P)  DIIS     TIME
   1      1.33970578    -0.91079055  -593.62268071    -0.06697915    -0.04301917  0.26D-02  0.55D-02  1  1    10.64
   2      1.36670484    -0.91613883  -593.62802898    -0.00534827    -0.02577839  0.69D-04  0.46D-03  2  2    18.72
   3      1.37203996    -0.91626672  -593.62815687    -0.00012790    -0.00303840  0.16D-04  0.28D-04  3  3    26.81
   4      1.37353386    -0.91632480  -593.62821495    -0.00005808    -0.00059413  0.76D-06  0.20D-05  4  4    34.92
   5      1.37377472    -0.91633141  -593.62822156    -0.00000661    -0.00007089  0.17D-06  0.16D-06  5  5    43.03
   6      1.37382043    -0.91632696  -593.62821711     0.00000445    -0.00001393  0.30D-07  0.14D-07  6  6    51.14
   7      1.37382802    -0.91632685  -593.62821700     0.00000011     0.00000064  0.53D-08  0.23D-08  6  2    59.26
   8      1.37383411    -0.91632653  -593.62821669     0.00000031    -0.00000125  0.73D-09  0.27D-09  6  1    67.38
   9      1.37383493    -0.91632647  -593.62821662     0.00000006     0.00000051  0.65D-10  0.44D-10  6  4    75.50
  10      1.37383581    -0.91632644  -593.62821659     0.00000003    -0.00000011  0.47D-11  0.35D-11  6  3    83.62
  11      1.37383582    -0.91632644  -593.62821659    -0.00000000     0.00000004  0.11D-11  0.53D-12  6  5    91.74
  12      1.37383579    -0.91632644  -593.62821659    -0.00000000     0.00000002  0.17D-12  0.76D-13  6  6    99.86
  13      1.37383573    -0.91632644  -593.62821660    -0.00000000     0.00000002  0.23D-13  0.10D-13  6  1   107.99
  14      1.37383572    -0.91632644  -593.62821660    -0.00000000     0.00000000  0.31D-14  0.12D-14  6  2   116.09
  15      1.37383573    -0.91632644  -593.62821660     0.00000000    -0.00000000  0.67D-15  0.30D-15  6  4   124.18
  16      1.37383573    -0.91632644  -593.62821660     0.00000000    -0.00000000  0.32D-16  0.23D-16  6  5   132.27
  17      1.37383573    -0.91632644  -593.62821660     0.00000000    -0.00000000  0.57D-17  0.24D-17  6  3   140.38
  18      1.37383573    -0.91632644  -593.62821660     0.00000000    -0.00000000  0.14D-17  0.41D-18  6  5   148.48
  19      1.37383573    -0.91632644  -593.62821660     0.00000000    -0.00000000  0.18D-18  0.64D-19  6  6   156.56
  20      1.37383573    -0.91632644  -593.62821660    -0.00000000     0.00000000  0.16D-19  0.67D-20  6  1   164.65
  21      1.37383573    -0.91632644  -593.62821660    -0.00000000     0.00000000  0.27D-20  0.10D-20  6  2   172.74

 Norm of t1 vector:      0.07015070      S-energy:    -0.00000000      T1 diagnostic:  0.00826734
                                                                       D1 diagnostic:  0.02110009


 Total CPU time for triples:    123.24 sec


 RESULTS
 =======

  Reference energy                   -592.711890151425
  CCSD singlet pair energy             -0.634216286199
  CCSD triplet pair energy             -0.282110157400
  CCSD correlation energy              -0.916326443599

  Triples (T) contribution             -0.029867076405
  Total correlation energy             -0.946193520004

  CCSD total energy                  -593.628216595024
  CCSD[T] energy                     -593.658703030177
  CCSD-T energy                      -593.657772608636
 !CCSD(T) total energy               -593.658083671428

 Timing summary (sec):

 STEP                 CPU(USER)    SYS     CPU(TOT)    WALL
 Transformation          2.75      0.23      2.98      2.98
 CCSD iterations       169.99      2.96    172.95    173.04
 Triples               123.24      2.20    125.44    125.47

 Program statistics:

 Available memory in ccsd:               999998604
 Min. memory needed in ccsd:               5123362
 Max. memory used in ccsd:                 6867976
 Max. memory used in cckext:               6836871 (21 integral passes)



 **********************************************************************************************************************************
 DATASETS  * FILE   NREC   LENGTH (MB)   RECORD NAMES
              1      20      486.19       500      610      700      900      950      970     1000      129      960     1100   
                                          VAR    BASINP    GEOM    SYMINP    ZMAT    AOBASIS   BASIS     P2S    ABASIS      S 
                                         1400     1410     1200     1210     1080     1600     1650     1300     1700     1380   
                                           T        V       H0       H01     AOSYM     SMH    MOLCAS    ERIS     OPER     JKOP   

              2       3        0.92       700     1000     2100   
                                         GEOM     BASIS     RHF  

 PROGRAMS   *        TOTAL   CCSD(T)       RHF       INT
 CPU TIMES  *       312.13    296.00     10.93      5.15
 REAL TIME  *       319.71 SEC
 DISK USED  *         1.28 GB      
 GA USED    *         0.01 MB       (max)       0.00 MB       (current)
 **********************************************************************************************************************************

        CCSD(T)         RHF-SCF 
   -593.65808367   -592.71189015
 **********************************************************************************************************************************
 Variable memory released
