
 Primary working directories    : /tmp/985636.223.gen4.q
 Secondary working directories  : /tmp/985636.223.gen4.q
 Wavefunction directory         : /home/vulcan/jj04645/wfu/
 Main file repository           : /tmp/985636.223.gen4.q/

 ARCHNAME  : Linux/x86_64
 FC        : /opt/intel/compilers_and_libraries_2016.1.150/linux/bin/intel64/ifort
 FCVERSION : 16.0.1
 BLASLIB   : -mkl
 id        : ccgc

 Nodes     nprocs
 n065         1
 ga_uses_ma=false, calling ma_init with nominal heap.
 GA-space will be limited to   8.0 MW (determined by -G option)

 Using customized tuning parameters: mindgm=10; mindgv=16; mindgc=4; mindgr=1; noblas=0; mincuda=1000; minvec=7
 default implementation of scratch files=df  

 ***,Optimization of tetrahydrothiopyran
 memory,1000,m
 gthresh,energy=1.0d-12,orbital=1.0d-10,oneint=1.0d-16,twoint=1.0d-16,optgrad=1.0d-6,compress=1.0d-13
 geomtyp=xyz
 
 bohr
 geometry = {
  S    0.3484414693    2.6961761920   -0.0016675895
  C   -0.3311082657   -3.3689183918   -0.0010791720
  C   -0.6616214713    0.6678004274   -2.5791301262
  C   -0.6640146271    0.6702575107    2.5806292517
  C    0.4718465881   -1.9804420788   -2.4153877671
  C    0.4742360263   -1.9822291903    2.4169252917
  H   -2.7281826752    0.5763978503   -2.5807364969
  H   -2.7305273648    0.5777542024    2.5813098298
  H   -0.0717554751    1.6169418953   -4.3125730780
  H   -0.0747364285    1.6211828438    4.3132942804
  H    2.5338935973   -1.8352498061   -2.4819089565
  H    2.5362274278   -1.8358066806    2.4824664369
  H   -0.1279108237   -3.0710838936   -4.0686196721
  H   -0.1247644988   -3.0741154559    4.0696100791
  H    0.4648335789   -5.2754900828   -0.0025909604
  H   -2.3935920739   -3.5829967588   -0.0005413509
 }
 
 basis=VDZ
 {rhf;maxit,200}
 {ccsd(t);maxit,200}

 Variables initialized (661), CPU time= 0.00 sec
 Commands  initialized (458), CPU time= 0.01 sec, 486 directives.
 Default parameters read. Elapsed time= 0.05 sec

 Checking input...
 Passed
1


                                         ***  PROGRAM SYSTEM MOLPRO  ***
                         Copyright, University College Cardiff Consultants Limited, 2008

                                    Version 2010.1 linked May 16 2016 07:17:05


 **********************************************************************************************************************************
 LABEL *   Optimization of tetrahydrothiopyran                                           
 Linux-4.4.3/n065(x86_64) 64 bit mpp version                                             DATE: 26-Jan-24          TIME: 11:31:29  
 **********************************************************************************************************************************

 SHA1:             9e8077add272b0f3cad6f7df79ec5211205f459d
 **********************************************************************************************************************************

 THRESHOLDS:

 ZERO    =  1.00D-12  ONEINT  =  1.00D-16  TWOINT  =  1.00D-16  PREFAC  =  1.00D-14  LOCALI  =  1.00D-09  EORDER  =  1.00D-04
 ENERGY  =  1.00D-12  ETEST   =  0.00D+00  EDENS   =  0.00D+00  THRDEDEF=  1.00D-06  GRADIENT=  1.00D-02  STEP    =  1.00D-03
 ORBITAL =  1.00D-10  CIVEC   =  1.00D-05  COEFF   =  1.00D-04  PRINTCI =  5.00D-02  PUNCHCI =  9.90D+01  OPTGRAD =  1.00D-06
 OPTENERG=  1.00D-06  OPTSTEP =  3.00D-04  THRGRAD =  1.00D-10  COMPRESS=  1.00D-13  VARMIN  =  1.00D-07  VARMAX  =  1.00D-03
 THRDOUB =  0.00D+00  THRDIV  =  1.00D-05  THRRED  =  1.00D-07  THRPSP  =  1.00D+00  THRDC   =  1.00D-10  THRCS   =  1.00D-10
 THRNRM  =  1.00D-08  THREQ   =  0.00D+00  THRDE   =  1.00D+00  THRREF  =  1.00D-05  SPARFAC =  1.00D+00  THRDLP  =  1.00D-07
 THRDIA  =  1.00D-10  THRDLS  =  1.00D-07  THRGPS  =  0.00D+00  THRKEX  =  0.00D+00  THRDIS  =  2.00D-01  THRVAR  =  1.00D-10
 THRLOC  =  1.00D-06  THRGAP  =  1.00D-06  THRLOCT = -1.00D+00  THRGAPT = -1.00D+00  THRORB  =  1.00D-06  THRMLTP =  0.00D+00
 THRCPQCI=  1.00D-10  KEXTA   =  0.00D+00  THRCOARS=  0.00D+00  SYMTOL  =  1.00D-06  GRADTOL =  1.00D-06  THROVL  =  1.00D-08
 THRORTH =  1.00D-08  GRID    =  1.00D-06  GRIDMAX =  1.00D-03  DTMAX   =  0.00D+00

 SETTING GEOMTYP        =    XYZ
 ZUNIT=BOHR
 

 Variable memory set to 1000000000 words,  buffer space   230000 words

 SETTING BASIS          =    VDZ


 Recomputing integrals since basis changed


 Using spherical harmonics

 Library entry S      S cc-pVDZ              selected for orbital group  1
 Library entry S      P cc-pVDZ              selected for orbital group  1
 Library entry S      D cc-pVDZ              selected for orbital group  1
 Library entry C      S cc-pVDZ              selected for orbital group  2
 Library entry C      P cc-pVDZ              selected for orbital group  2
 Library entry C      D cc-pVDZ              selected for orbital group  2
 Library entry H      S cc-pVDZ              selected for orbital group  3
 Library entry H      P cc-pVDZ              selected for orbital group  3

1PROGRAM * SEWARD (Integral evaluation for generally contracted gaussian basis sets)     Author: Roland Lindh, 1990

 Geometry written to block  1 of record 700


 Point group  C1  



 ATOMIC COORDINATES

 NR  ATOM    CHARGE       X              Y              Z

   1  S      16.00    0.348441469    2.696176192   -0.001667590
   2  C       6.00   -0.331108266   -3.368918392   -0.001079172
   3  C       6.00   -0.661621471    0.667800427   -2.579130126
   4  C       6.00   -0.664014627    0.670257511    2.580629252
   5  C       6.00    0.471846588   -1.980442079   -2.415387767
   6  C       6.00    0.474236026   -1.982229190    2.416925292
   7  H       1.00   -2.728182675    0.576397850   -2.580736497
   8  H       1.00   -2.730527365    0.577754202    2.581309830
   9  H       1.00   -0.071755475    1.616941895   -4.312573078
  10  H       1.00   -0.074736428    1.621182844    4.313294280
  11  H       1.00    2.533893597   -1.835249806   -2.481908956
  12  H       1.00    2.536227428   -1.835806681    2.482466437
  13  H       1.00   -0.127910824   -3.071083894   -4.068619672
  14  H       1.00   -0.124764499   -3.074115456    4.069610079
  15  H       1.00    0.464833579   -5.275490083   -0.002590960
  16  H       1.00   -2.393592074   -3.582996759   -0.000541351

 Bond lengths in Bohr (Angstrom)

  1- 3  3.431887019   1- 4  3.434773766   2- 5  2.898532208   2- 6  2.901418956   2-15  2.066044849
       ( 1.816076395)       ( 1.817603995)       ( 1.533837184)       ( 1.535364785)       ( 1.093303847)

  2-16  2.073564394   3- 5  2.885264247   3- 7  2.068582177   3- 9  2.062434456   4- 6  2.891037744
       ( 1.097283019)       ( 1.526816081)       ( 1.094646543)       ( 1.091393309)       ( 1.529871284)

  4- 8  2.068582176   4-10  2.062434456   5-11  2.068222361   5-13  2.069392242   6-12  2.068222361
       ( 1.094646543)       ( 1.091393309)       ( 1.094456136)       ( 1.095075211)       ( 1.094456136)

  6-14  2.069392242
       ( 1.095075211)

 Bond angles

  1-3-5  112.59663328   1-3-7  108.70698202   1-3-9  105.96542723   1-4-6  112.49058020

  1- 4- 8  108.72915182   1- 4-10  105.98759703   2- 5- 3  112.21723142   2- 5-11  109.67064014

  2- 5-13  109.43174792   2- 6- 4  112.11118234   2- 6-12  109.69290063   2- 6-14  109.45400842

  3- 1- 4   97.42741770   3- 5-11  108.99068571   3- 5-13  108.93800229   4- 6-12  109.01294619

  4- 6-14  108.96026277   5- 2- 6  112.85039961   5- 2-15  109.55555732   5- 2-16  108.97845095

  5- 3- 7  110.60670817   5- 3- 9  110.96155341   6- 2-15  109.55555732   6- 2-16  108.97845095

  6- 4- 8  110.62887793   6- 4-10  110.98372319   7- 3- 9  107.78266711   8- 4-10  107.80483691

 11- 5-13  107.47327620  12- 6-14  107.49553665  15- 2-16  106.73334140

 NUCLEAR CHARGE:                   56
 NUMBER OF PRIMITIVE AOS:         247
 NUMBER OF SYMMETRY AOS:          241
 NUMBER OF CONTRACTIONS:          138   ( 138A   )
 NUMBER OF CORE ORBITALS:          10   (  10A   )
 NUMBER OF VALENCE ORBITALS:       34   (  34A   )


 NUCLEAR REPULSION ENERGY  312.16074250


 Eigenvalues of metric

         1 0.286E-02 0.306E-02 0.426E-02 0.633E-02 0.707E-02 0.151E-01 0.157E-01 0.195E-01


 Contracted 2-electron integrals neglected if value below      1.0D-16
 AO integral compression algorithm  1   Integral accuracy      1.0D-16

     374.079 MB (compressed) written to integral file ( 94.1%)

     Node minimum: 374.079 MB, node maximum: 374.079 MB


 NUMBER OF SORTED TWO-ELECTRON INTEGRALS:   45998436.     BUFFER LENGTH:  32768
 NUMBER OF SEGMENTS:   3  SEGMENT LENGTH:   15998004      RECORD LENGTH: 524288

 Memory used in sort:      16.56 MW

 SORT1 READ    49669998. AND WROTE    45795432. INTEGRALS IN    132 RECORDS. CPU TIME:     0.51 SEC, REAL TIME:     0.76 SEC
 SORT2 READ    45795432. AND WROTE    45998436. INTEGRALS IN   1427 RECORDS. CPU TIME:     0.34 SEC, REAL TIME:     0.54 SEC

 FILE SIZES:   FILE 1:   349.5 MBYTE,  FILE 4:   553.7 MBYTE,   TOTAL:    903.1 MBYTE

 OPERATOR DM      FOR CENTER  0  COORDINATES:    0.000000    0.000000    0.000000


 **********************************************************************************************************************************
 DATASETS  * FILE   NREC   LENGTH (MB)   RECORD NAMES
              1      19      349.70       500      610      700      900      950      970     1000      129      960     1100   
                                          VAR    BASINP    GEOM    SYMINP    ZMAT    AOBASIS   BASIS     P2S    ABASIS      S 
                                         1400     1410     1200     1210     1080     1600     1650     1300     1700   
                                           T        V       H0       H01     AOSYM     SMH    MOLCAS    ERIS     OPER   

 PROGRAMS   *        TOTAL       INT
 CPU TIMES  *         5.22      5.18
 REAL TIME  *         6.02 SEC
 DISK USED  *         1.28 GB      
 GA USED    *         0.01 MB       (max)       0.00 MB       (current)
 **********************************************************************************************************************************

1PROGRAM * RHF-SCF (CLOSED SHELL)       Authors: W. Meyer, H.-J. Werner


 NUMBER OF ELECTRONS:      28+   28-    SPACE SYMMETRY=1    SPIN SYMMETRY: Singlet 
 CONVERGENCE THRESHOLDS:    1.00E-10 (Density)    1.00E-13 (Energy)
 MAX. NUMBER OF ITERATIONS:      200
 INTERPOLATION TYPE:            DIIS
 INTERPOLATION STEPS:              2 (START)      1 (STEP)
 LEVEL SHIFTS:                  0.00 (CLOSED)  0.00 (OPEN) 



 Orbital guess generated from atomic densities. Full valence occupancy:   44

 Molecular orbital dump at record        2100.2

 ITERATION    DDIFF          GRAD             ENERGY        2-EL.EN.            DIPOLE MOMENTS         DIIS
    1      0.000D+00      0.000D+00      -592.64394595   1056.885919   -0.40766   -0.80375    0.00002    0
    2      0.000D+00      0.395D-02      -592.70491917   1054.314156   -0.20776   -0.73793   -0.00077    1
    3      0.777D-02      0.132D-02      -592.71083786   1055.742203   -0.28031   -0.67610    0.00053    2
    4      0.268D-02      0.538D-03      -592.71184021   1055.125005   -0.25280   -0.70902    0.00006    3
    5      0.927D-03      0.773D-04      -592.71186589   1055.187836   -0.24895   -0.70057    0.00018    4
    6      0.180D-03      0.266D-04      -592.71186839   1055.157014   -0.25066   -0.70084    0.00016    5
    7      0.502D-04      0.619D-05      -592.71186860   1055.160208   -0.24999   -0.70073    0.00016    6
    8      0.164D-04      0.173D-05      -592.71186862   1055.159339   -0.24997   -0.70059    0.00017    7
    9      0.537D-05      0.450D-06      -592.71186862   1055.159227   -0.24996   -0.70055    0.00016    7
   10      0.127D-05      0.161D-06      -592.71186862   1055.159265   -0.24995   -0.70055    0.00017    7
   11      0.476D-06      0.343D-07      -592.71186862   1055.159250   -0.24995   -0.70054    0.00017    7
   12      0.114D-06      0.684D-08      -592.71186862   1055.159256   -0.24995   -0.70054    0.00017    7
   13      0.182D-07      0.285D-08      -592.71186862   1055.159253   -0.24995   -0.70054    0.00017    7
   14      0.626D-08      0.840D-09      -592.71186862   1055.159254   -0.24995   -0.70054    0.00017    7
   15      0.224D-08      0.274D-09      -592.71186862   1055.159254   -0.24995   -0.70054    0.00017    7
   16      0.660D-09      0.871D-10      -592.71186862   1055.159254   -0.24995   -0.70054    0.00017    8
   17      0.212D-09      0.210D-10      -592.71186862   1055.159254   -0.24995   -0.70054    0.00017    7
   18      0.565D-10      0.760D-11      -592.71186862   1055.159254   -0.24995   -0.70054    0.00017    7
   19      0.245D-10      0.290D-11      -592.71186862   1055.159254   -0.24995   -0.70054    0.00017    8
   20      0.918D-11      0.104D-11      -592.71186862   1055.159254   -0.24995   -0.70054    0.00017    8
   21      0.366D-11      0.353D-12      -592.71186862   1055.159254   -0.24995   -0.70054    0.00017    8
   22      0.126D-11      0.115D-12      -592.71186862   1055.159254   -0.24995   -0.70054    0.00017    8
   23      0.420D-12      0.615D-13      -592.71186862   1055.159254   -0.24995   -0.70054    0.00017    8
   24      0.237D-12      0.464D-13      -592.71186862   1055.159254   -0.24995   -0.70054    0.00017    9
   25      0.138D-12      0.378D-13      -592.71186862   1055.159254   -0.24995   -0.70054    0.00017    9
   26      0.110D-12      0.297D-13      -592.71186862   1055.159254   -0.24995   -0.70054    0.00017    0

 Final occupancy:  28

 !RHF STATE 1.1 Energy               -592.711868617366
 Nuclear energy                       312.16074250
 One-electron energy                -1432.45223803
 Two-electron energy                  527.57962691
 Virial quotient                       -1.00019727
 !RHF STATE 1.1 Dipole moment          -0.24994792    -0.70054370     0.00016529
 Dipole moment /Debye                  -0.63526265    -1.78048784     0.00042010

 Orbital energies:

         1.1          2.1          3.1          4.1          5.1          6.1          7.1          8.1          9.1         10.1
    -91.929512   -11.254986   -11.254653   -11.231359   -11.230996   -11.229384    -8.933497    -6.615398    -6.613966    -6.611761

        11.1         12.1         13.1         14.1         15.1         16.1         17.1         18.1         19.1         20.1
     -1.119462    -1.019974    -1.006498    -0.842373    -0.835918    -0.755582    -0.646473    -0.614218    -0.609391    -0.578894

        21.1         22.1         23.1         24.1         25.1         26.1         27.1         28.1         29.1         30.1
     -0.546940    -0.523810    -0.497857    -0.495483    -0.473301    -0.434890    -0.411396    -0.328521     0.176918     0.190795


 **********************************************************************************************************************************
 DATASETS  * FILE   NREC   LENGTH (MB)   RECORD NAMES
              1      19      349.70       500      610      700      900      950      970     1000      129      960     1100   
                                          VAR    BASINP    GEOM    SYMINP    ZMAT    AOBASIS   BASIS     P2S    ABASIS      S 
                                         1400     1410     1200     1210     1080     1600     1650     1300     1700   
                                           T        V       H0       H01     AOSYM     SMH    MOLCAS    ERIS     OPER   

              2       3        0.92       700     1000     2100   
                                         GEOM     BASIS     RHF  

 PROGRAMS   *        TOTAL       RHF       INT
 CPU TIMES  *        14.40      9.18      5.18
 REAL TIME  *        16.26 SEC
 DISK USED  *         1.28 GB      
 GA USED    *         0.01 MB       (max)       0.00 MB       (current)
 **********************************************************************************************************************************


1PROGRAM * CCSD (Closed-shell coupled cluster)     Authors: C. Hampel, H.-J. Werner, 1991, M. Deegan, P.J. Knowles, 1992


 Convergence thresholds:  THRVAR = 1.00D-08  THRDEN = 1.00D-12

 CCSD(T)     terms to be evaluated (factor= 1.000)


 Number of core orbitals:          10 (  10 )
 Number of closed-shell orbitals:  18 (  18 )
 Number of external orbitals:     110 ( 110 )

 Molecular orbitals read from record     2100.2  Type=RHF/CANONICAL (state 1.1)

 Number of N-1 electron functions:              18
 Number of N-2 electron functions:             171
 Number of singly external CSFs:              1980
 Number of doubly external CSFs:           1961190
 Total number of CSFs:                     1963171

 Length of J-op  integral file:               0.00 MB
 Length of K-op  integral file:               1.35 MB
 Length of 3-ext integral record:             0.00 MB

 Memory could be reduced to 32.58 Mwords without degradation in triples

 Integral transformation finished. Total CPU:   2.62 sec, npass=  1  Memory used:  30.89 MW

 Reference energy:                   -592.71186862

 MP2 singlet pair energy:              -0.53945516
 MP2 triplet pair energy:              -0.30435250
 MP2 correlation energy:               -0.84380766
 MP2 total energy:                   -593.55567627

 SCS-MP2 correlation energy:           -0.83672108   (PS=  1.200000  PT=  0.333333)
 SCS-MP2 total energy:               -593.54858969

 ITER.      SQ.NORM     CORR.ENERGY   TOTAL ENERGY   ENERGY CHANGE        DEN1      VAR(S)    VAR(P)  DIIS     TIME
   1      1.33968674    -0.91078916  -593.62265777    -0.06698150    -0.04302795  0.26D-02  0.55D-02  1  1    10.60
   2      1.36667376    -0.91613642  -593.62800503    -0.00534726    -0.02577453  0.69D-04  0.46D-03  2  2    18.67
   3      1.37200094    -0.91626417  -593.62813279    -0.00012776    -0.00303595  0.16D-04  0.28D-04  3  3    26.76
   4      1.37349078    -0.91632228  -593.62819090    -0.00005811    -0.00059321  0.76D-06  0.20D-05  4  4    34.85
   5      1.37373038    -0.91632891  -593.62819752    -0.00000662    -0.00007067  0.17D-06  0.16D-06  5  5    42.96
   6      1.37377567    -0.91632447  -593.62819309     0.00000443    -0.00001389  0.30D-07  0.14D-07  6  6    51.07
   7      1.37378313    -0.91632436  -593.62819298     0.00000011     0.00000064  0.53D-08  0.23D-08  6  2    59.15
   8      1.37378916    -0.91632405  -593.62819267     0.00000031    -0.00000124  0.73D-09  0.26D-09  6  1    67.26
   9      1.37378998    -0.91632399  -593.62819261     0.00000006     0.00000050  0.66D-10  0.44D-10  6  4    75.37
  10      1.37379087    -0.91632395  -593.62819257     0.00000003    -0.00000011  0.48D-11  0.35D-11  6  3    83.46
  11      1.37379088    -0.91632396  -593.62819257    -0.00000000     0.00000004  0.12D-11  0.54D-12  6  5    91.56
  12      1.37379084    -0.91632396  -593.62819258    -0.00000000     0.00000002  0.17D-12  0.78D-13  6  6    99.66
  13      1.37379079    -0.91632396  -593.62819258    -0.00000000     0.00000002  0.24D-13  0.11D-13  6  1   107.76
  14      1.37379078    -0.91632396  -593.62819258    -0.00000000     0.00000000  0.31D-14  0.12D-14  6  2   115.87
  15      1.37379078    -0.91632396  -593.62819258     0.00000000    -0.00000000  0.66D-15  0.31D-15  6  4   123.97
  16      1.37379079    -0.91632396  -593.62819258     0.00000000    -0.00000000  0.32D-16  0.23D-16  6  5   132.08
  17      1.37379079    -0.91632396  -593.62819258     0.00000000    -0.00000000  0.58D-17  0.24D-17  6  3   140.18
  18      1.37379079    -0.91632396  -593.62819258     0.00000000    -0.00000000  0.14D-17  0.42D-18  6  5   148.28
  19      1.37379079    -0.91632396  -593.62819258     0.00000000    -0.00000000  0.19D-18  0.65D-19  6  6   156.37
  20      1.37379079    -0.91632396  -593.62819258     0.00000000     0.00000000  0.17D-19  0.69D-20  6  1   164.47
  21      1.37379079    -0.91632396  -593.62819258    -0.00000000     0.00000000  0.30D-20  0.11D-20  6  2   172.57

 Norm of t1 vector:      0.07007619      S-energy:    -0.00000000      T1 diagnostic:  0.00825856
                                                                       D1 diagnostic:  0.02101669


 Total CPU time for triples:    122.97 sec


 RESULTS
 =======

  Reference energy                   -592.711868617367
  CCSD singlet pair energy             -0.634213889571
  CCSD triplet pair energy             -0.282110071205
  CCSD correlation energy              -0.916323960776

  Triples (T) contribution             -0.029861732722
  Total correlation energy             -0.946185693498

  CCSD total energy                  -593.628192578143
  CCSD[T] energy                     -593.658672982094
  CCSD-T energy                      -593.657743215661
 !CCSD(T) total energy               -593.658054310865

 Timing summary (sec):

 STEP                 CPU(USER)    SYS     CPU(TOT)    WALL
 Transformation          2.74      0.23      2.97      2.97
 CCSD iterations       169.83      2.95    172.78    172.86
 Triples               122.97      2.29    125.26    125.27

 Program statistics:

 Available memory in ccsd:               999998604
 Min. memory needed in ccsd:               5123362
 Max. memory used in ccsd:                 6867976
 Max. memory used in cckext:               6836871 (21 integral passes)



 **********************************************************************************************************************************
 DATASETS  * FILE   NREC   LENGTH (MB)   RECORD NAMES
              1      20      486.07       500      610      700      900      950      970     1000      129      960     1100   
                                          VAR    BASINP    GEOM    SYMINP    ZMAT    AOBASIS   BASIS     P2S    ABASIS      S 
                                         1400     1410     1200     1210     1080     1600     1650     1300     1700     1380   
                                           T        V       H0       H01     AOSYM     SMH    MOLCAS    ERIS     OPER     JKOP   

              2       3        0.92       700     1000     2100   
                                         GEOM     BASIS     RHF  

 PROGRAMS   *        TOTAL   CCSD(T)       RHF       INT
 CPU TIMES  *       309.95    295.55      9.18      5.18
 REAL TIME  *       317.41 SEC
 DISK USED  *         1.28 GB      
 GA USED    *         0.01 MB       (max)       0.00 MB       (current)
 **********************************************************************************************************************************

        CCSD(T)         RHF-SCF 
   -593.65805431   -592.71186862
 **********************************************************************************************************************************
 Variable memory released
